# vtk DataFile Version 4.0
 
ASCII
DATASET UNSTRUCTURED_GRID
POINTS 62 float
0.0 -0.4135939027941277 -2.283634346659794
0.0 -5.135618272828199 -5.286666405000266
0.0 -9.595747256430302 -8.213649507138468
0.0 -13.992106767371459 -10.721419504126981
0.0 -18.205419199094738 -13.016571270727626
0.0 -22.192142046413352 -15.174522638212743
0.0 -25.95504899736906 -17.19046943796966
0.0 -29.48111654552479 -19.086969044840085
0.0 -32.77357499832537 -20.858426402205524
0.0 -35.83271142593974 -22.504344289948
0.0 -38.65852543115326 -24.024723396063496
0.0 -41.251017312347756 -25.419563203739507
0.0 -43.6101970904741 -26.68884635617996
0.0 -45.73606476029546 -27.832572862455358
0.0 -47.62892324660106 -28.85021804143986
0.0 -49.291044948147565 -29.737845983031864
0.0 -50.737678673413185 -30.469044976192265
0.0 -51.96841468949345 -31.04452469912911
0.0 -52.99652633235689 -31.441295059558946
0.0 -53.80051142793617 -31.696598915439605
0.0 -54.35880764069788 -31.847783327444834
-0.8152938918039478 -2.1369849706878794 0.7013665442425694
-0.9232602711185554 -7.092109561215138 -1.8979240889481948
-1.045017403566863 -11.85196937877359 -4.305758158079007
-0.8624275731409438 -16.24071143510011 -6.826721973484418
-0.7172432011617597 -20.34486216345096 -9.31094735656688
-0.5835709082011334 -24.216726154617966 -11.667840098605826
-0.458823694439046 -27.85107908482905 -13.906448993809706
-0.35706975050238215 -31.261436915324037 -16.00336371059798
-0.27205245991127286 -34.44518940278554 -17.963105323016514
-0.20240159072431146 -37.40242668466648 -19.785517708417164
-0.1506132401889805 -40.133357086781565 -21.470240035904347
-0.11426271706148827 -42.638317297411156 -23.016689144270146
-0.08424963388989035 -44.917650702186826 -24.424270272154093
-0.059335794404298196 -46.97142986360653 -25.692857737623
-0.038970351202568594 -48.79932257509404 -26.823026939345525
-0.02333805368457717 -50.39905312724952 -27.818719521625397
-0.011931771028020786 -51.75574085302947 -28.70570955583255
-0.005641151376299379 -52.86973333133177 -29.48339501765613
-0.0026418300562744777 -53.72741053689316 -30.17536648285255
-0.0014569859069231085 -54.35036100767939 -30.744231506803967
-0.001005086180947595 -54.760270470954616 -31.152429308089772
-0.6519578110959388 -4.154561971416422 -1.3949966732221168
-0.7381041280070318 -8.945450293653087 -4.0139203316525425
-0.7152918662654275 -13.483237058177858 -6.541563675744465
-0.5923765403635137 -17.744280845264928 -9.018874845626064
-0.4878052910110849 -21.760290774964357 -11.390932034307312
-0.39089797599006726 -25.54382584526543 -13.635982419178625
-0.30596004185303555 -29.09671419291914 -15.750859574504101
-0.23592082890512064 -32.42182131227236 -17.730600318486136
-0.17792026898834412 -35.51864183582765 -19.57607997330682
-0.1323805615924845 -38.38732352142964 -21.287042614872
-0.0993284839689258 -41.0280707370099 -22.863134267540808
-0.07444213160676699 -43.441139800201974 -24.30391097614902
-0.05384453561032071 -45.6266879435187 -25.60910040599582
-0.036864804602575046 -47.584655665374775 -26.778805616850097
-0.023365651832679663 -49.31438691272241 -27.814162925923057
-0.013226184267224234 -50.811638195299714 -28.722522273949746
-0.006589845901620062 -52.072814489498796 -29.510110424473424
-0.0031061180372151964 -53.09454657831564 -30.18276303252676
-0.0015370559861990949 -53.87879404925134 -30.737085992996015
-0.0009232770329515139 -54.43640168806701 -31.154295585945707

CELLS 40 140
4 0 21 22 1
4 1 22 23 2
4 2 23 24 3
4 3 24 25 4
4 4 25 26 5
4 5 26 27 6
4 6 27 28 7
4 7 28 29 8
4 8 29 30 9
4 9 30 31 10
4 10 31 32 11
4 11 32 33 12
4 12 33 34 13
4 13 34 35 14
4 14 35 36 15
4 15 36 37 16
4 16 37 38 17
4 17 38 39 18
4 18 39 40 19
4 19 40 41 20
1 42
1 43
1 44
1 45
1 46
1 47
1 48
1 49
1 50
1 51
1 52
1 53
1 54
1 55
1 56
1 57
1 58
1 59
1 60
1 61

CELL_TYPES 40
7
7
7
7
7
7
7
7
7
7
7
7
7
7
7
7
7
7
7
7
7
7
7
7
7
7
7
7
7
7
7
7
7
7
7
7
7
7
7
7

POINT_DATA 62

VECTORS centroid-point-cyl-mean float
2.3207855880440165 -1.045522527413049e-17 0.0
7.370442098135335 3.00060276925718e-18 0.0
12.631009604754736 1.192739600779729e-16 0.0
17.627475371504513 4.50090415388577e-17 0.0
22.38008971967498 -6.601326092365796e-17 0.0
26.884145995471417 -6.00120553851436e-17 0.0
31.131604647907267 -3.00060276925718e-17 0.0
35.12048718468332 1.8603737169394515e-16 0.0
38.8481810403922 -3.00060276925718e-17 0.0
42.313457907091404 -2.6405304369463184e-16 0.0
45.515589887076004 -2.400482215405744e-17 0.0
48.45410841995272 3.240650990797754e-16 0.0
51.12869849794523 -2.3404701600206e-16 0.0
53.539142054219 2.400482215405744e-17 0.0
55.68527103884158 -5.281060873892637e-16 0.0
57.56688801551498 0.0 0.0
59.18339918362046 6.00120553851436e-17 0.0
60.53493734310796 2.400482215405744e-16 0.0
61.62131805080495 -9.301868584697257e-17 0.0
62.44332960944469 4.800964430811488e-17 0.0
63.001279915492894 -1.4702953569360181e-16 0.0
2.249137566786134 4.50090415388577e-18 0.8152938918039475
7.341671054718347 2.700542492331462e-17 0.9232602711185551
12.60986643352147 -1.200241107702872e-17 1.0450174035668625
17.6171745981428 -9.00180830777154e-17 0.8624275731409441
22.374252102060986 -3.600723323108616e-17 0.71724320116176
26.88100292426594 -6.601326092365796e-17 0.5835709082011332
31.129920170261222 7.801567200068668e-17 0.4588236944390458
35.11958268636567 1.50030138462859e-16 0.35706975050238243
38.84770554150605 -1.800361661554308e-16 0.2720524599112728
42.3132158183699 -4.620928264656057e-16 0.20240159072431135
45.51546504491063 1.0802169969325848e-16 0.15061324018898056
48.45404091630218 2.400482215405744e-16 0.11426271706148837
51.1286643961184 0.0 0.08424963388989029
53.53912739443418 3.00060276925718e-17 0.05933579440429822
55.685264280390655 0.0 0.038970351202568594
57.56688033883889 -1.9203857723245952e-16 0.023338053684577188
59.18339693148556 9.601928861622976e-17 0.011931771028020786
60.534942671925435 -2.400482215405744e-16 0.005641151376299383
61.62132248965721 2.400482215405744e-16 0.0026418300562744785
62.44333040933234 -3.8107655169566184e-16 0.0014569859069231076
63.00127835090059 -4.950994569274347e-17 0.0010050861809475953
4.382510797777952 -2.62552742310003e-18 0.651957811095939
9.804725258010658 -1.050210969240013e-16 0.7381041280070315
14.986318323418905 -1.0802169969325848e-16 0.7152918662654278
19.904763404690442 7.201446646217232e-17 0.5923765403635137
24.561424779951395 7.801567200068668e-17 0.48780529101108516
28.955604903876587 -2.400482215405744e-17 0.39089797599006765
33.086377168861716 4.800964430811488e-17 0.30596004185303555
36.95333117404745 1.4402893292434464e-16 0.23592082890512064
40.55609479453263 -1.4402893292434464e-16 0.17792026898834398
43.894473347179954 -5.401084984662924e-17 0.13238056159248454
46.96834569086607 2.400482215405744e-17 0.09932848396892573
49.77763268655191 3.390681129260613e-16 0.07444213160676702
52.32227705575914 1.8903797446320232e-16 0.053844535610320744
54.602233333970304 -3.900783600034334e-17 0.036864804602575026
56.61745681190116 3.00060276925718e-18 0.02336565183267968
58.36784955664884 5.281060873892637e-16 0.013226184267224226
59.85335935536439 -1.8903797446320232e-16 0.006589845901620066
61.07397203911507 9.901989138548693e-17 0.003106118037215195
62.02977433090089 -4.50090415388577e-17 0.0015370559861990955
62.720905304380565 4.800964430811488e-17 0.0009232770329515135

VECTORS centroid-point-mean float
0.0 -0.01117821358902771 -0.061719847207021436
0.0 -0.1388004938602158 -0.1428828758108198
0.0 -0.25934452044405387 -0.221990527219963
0.0 -0.37816504776678445 -0.289768094706142
0.0 -0.492038356732276 -0.3517992235331858
0.0 -0.5997876228760195 -0.4101222334652203
0.0 -0.7014878107396861 -0.4646072821072986
0.0 -0.7967869336628097 -0.5158640282389324
0.0 -0.8857722972520121 -0.5637412541136807
0.0 -0.9684516601605065 -0.6082255213499598
0.0 -1.0448250116527642 -0.6493168485422731
0.0 -1.1148923597931555 -0.6870152217227027
0.0 -1.1786539754181906 -0.7213201717886646
0.0 -1.236109858386331 -0.7522316989853014
0.0 -1.2872681958540524 -0.7797356227416428
0.0 -1.332190404003949 -0.8037255671089905
0.0 -1.3712886127949162 -0.8234877020592719
0.0 -1.4045517483646537 -0.8390412080845924
0.0 -1.4323385495231238 -0.8497647313394495
0.0 -1.4540678764306698 -0.8566648355524503
0.0 -1.4691569632620705 -0.860750900741776
-0.8152938918039475 -0.0577563505591327 0.018955852547095413
-0.9232602711185551 -0.1916786367895965 -0.051295245647250944
-1.0450174035668625 -0.3203234967236059 -0.11637184211024953
-0.8624275731409441 -0.43893814689459054 -0.18450599928336905
-0.71724320116176 -0.5498611395527185 -0.25164722585316834
-0.5835709082011332 -0.6545061122869573 -0.3153470296920604
-0.4588236944390458 -0.7527318671575272 -0.37584997280568194
-0.35706975050238243 -0.8449037004141475 -0.43252334352968796
-0.2720524599112728 -0.9309510649401305 -0.48548933305451225
-0.20240159072431135 -1.0108763968828534 -0.5347437218491307
-0.15061324018898056 -1.084685326669748 -0.5802767577271614
-0.11426271706148837 -1.1523869539840592 -0.6220726795748878
-0.08424963388989029 -1.2139905595185372 -0.6601154127609428
-0.05933579440429822 -1.2694981044217706 -0.694401560476316
-0.038970351202568594 -1.3189006101376464 -0.7249466740363831
-0.023338053684577188 -1.3621365710067128 -0.751857284368271
-0.011931771028020786 -1.3988038068386013 -0.7758299879954945
-0.005641151376299383 -1.428911711657582 -0.7968485139907313
-0.0026418300562744785 -1.452092176672752 -0.8155504454825266
-0.0014569859069231076 -1.4689286758831945 -0.830925175859594
-0.0010050861809475953 -1.4800073100257685 -0.8419575488673164
-0.651957811095939 -0.11228545868692898 -0.037702612789789015
-0.7381041280070315 -0.2417689268554846 -0.10848433328791007
-0.7152918662654278 -0.3644118123831778 -0.17679901826337185
-0.5923765403635137 -0.4795751579801237 -0.24375337420611942
-0.48780529101108516 -0.5881159668909139 -0.30786302795426124
-0.39089797599006765 -0.6903736714936435 -0.36854006538321843
-0.30596004185303555 -0.7863976808896894 -0.42569890741904326
-0.23592082890512064 -0.8762654408722076 -0.4792054140131517
-0.17792026898834398 -0.9599632928601838 -0.5290832425218224
-0.13238056159248454 -1.037495230308887 -0.5753254760776412
-0.09932848396892573 -1.108866776675918 -0.6179225477713924
-0.07444213160676702 -1.1740848594648896 -0.6568624588148609
-0.053844535610320744 -1.2331537282031793 -0.6921378488107179
-0.036864804602575026 -1.2860717747398318 -0.7237515031581275
-0.02336565183267968 -1.332821267911385 -0.7517341331330704
-0.013226184267224226 -1.3732875187918503 -0.7762843857824435
-0.006589845901620066 -1.4073733645810154 -0.7975705520128186
-0.003106118037215195 -1.4349877453598483 -0.8157503522304727
-0.0015370559861990955 -1.4561836229527012 -0.830732053864786
-0.0009232770329515135 -1.47125409967745 -0.8420079888093639

VECTORS centroid-point-cyl-variance float
2.2779999999999999e-29 9.999999999999999e-33 0.0
1.5445e-28 3.9999999999999997e-32 0.0
4.2095e-28 1.6999999999999998e-31 0.0
8.3167e-28 2.2e-31 0.0
1.3996499999999999e-27 5.799999999999999e-31 0.0
1.7957e-27 7.9e-31 0.0
2.5233299999999998e-27 1.0499999999999999e-30 0.0
3.0578799999999997e-27 2.4e-30 0.0
3.58458e-27 1.3e-30 0.0
4.43195e-27 1.27e-30 0.0
5.55495e-27 1.8999999999999998e-30 0.0
5.4758e-27 2.99e-30 0.0
6.3409099999999994e-27 1.69e-30 0.0
7.11049e-27 1.77e-30 0.0
7.477549999999999e-27 2.8799999999999997e-30 0.0
7.89236e-27 3.24e-30 0.0
8.6292e-27 3.6699999999999995e-30 0.0
9.31009e-27 2.4199999999999997e-30 0.0
8.70425e-27 3.57e-30 0.0
1.01329e-26 4.01e-30 0.0
9.996449999999999e-27 4.5e-30 0.0
9.07e-30 9.999999999999999e-33 1.1e-31
1.0149e-28 6.0e-32 4.999999999999999e-32
3.3192e-28 7.0e-32 1.9999999999999997e-31
6.8942e-28 1.2e-31 1.1e-31
1.16666e-27 6.3999999999999995e-31 1.1e-31
1.69268e-27 8.6e-31 4.999999999999999e-32
2.11295e-27 2.6999999999999997e-31 4.999999999999999e-32
3.1069999999999997e-27 2.75e-30 7.999999999999999e-32
3.41811e-27 2.02e-30 0.0
4.16587e-27 1.94e-30 9.999999999999999e-33
5.3229799999999996e-27 2.4199999999999997e-30 0.0
5.63272e-27 2.7099999999999998e-30 9.999999999999999e-33
5.93428e-27 3.71e-30 0.0
6.71751e-27 3.71e-30 0.0
7.07502e-27 2.9e-30 0.0
7.54577e-27 2.8599999999999998e-30 0.0
7.66585e-27 2.89e-30 0.0
8.794309999999999e-27 2.7599999999999998e-30 0.0
9.108149999999999e-27 2.7599999999999998e-30 0.0
9.202299999999999e-27 3.9499999999999996e-30 0.0
9.959599999999999e-27 1.79e-30 0.0
3.857e-29 1.9999999999999998e-32 4.999999999999999e-32
2.0843e-28 1.2e-31 1.1e-31
5.2764e-28 1.5999999999999999e-31 1.1e-31
9.063799999999999e-28 2.3e-31 0.0
1.4876599999999999e-27 4.3e-31 7.999999999999999e-32
1.92806e-27 6.2e-31 1.5e-31
2.5448199999999998e-27 5.5e-31 0.0
4.1058299999999994e-27 1.3e-30 0.0
3.7647e-27 1.22e-30 1.9999999999999998e-32
4.40329e-27 1.58e-30 0.0
5.222e-27 8.7e-31 0.0
6.19763e-27 2.15e-30 0.0
6.52512e-27 3.0299999999999997e-30 0.0
6.90445e-27 3.33e-30 0.0
7.398409999999999e-27 2.9e-30 0.0
8.38359e-27 2.19e-30 0.0
8.21439e-27 2.5199999999999997e-30 0.0
8.65376e-27 5.28e-30 0.0
8.95123e-27 4.18e-30 0.0
9.73173e-27 4.6899999999999994e-30 0.0

VECTORS centroid-point-cart-variance float
0.0 2.624736759393365 2.7573746942811477
0.0 27.121168910460565 27.162566718209217
0.0 80.03656828043468 79.38929598051205
0.0 156.31323539403903 154.18767822689694
0.0 252.38137862597415 248.1211727965528
0.0 364.5624892645521 357.66687120233183
0.0 489.2064854357259 479.2623774426725
0.0 622.9113844845577 609.6362504916603
0.0 762.4415771892706 745.6371961936492
0.0 904.783727574586 884.337155577721
0.0 1047.1386703799976 1023.0169807137197
0.0 1186.920735004701 1159.1649128790268
0.0 1321.7577443186133 1290.4765377911758
0.0 1449.4910268501894 1414.854884940691
0.0 1568.1754736102434 1530.4088900095778
0.0 1676.080561600871 1635.4453281302272
0.0 1771.6994955908615 1728.4166788818848
0.0 1853.738900055121 1808.0629833161913
0.0 1921.1374574424806 1873.2756870568999
0.0 1973.0085098203292 1923.312714863687
0.0 2008.6465195995547 1957.6154370949012
1.1e-31 2.5810388272906777 2.4738858466622795
4.999999999999999e-32 27.544351943189955 26.316410030471694
1.9999999999999997e-31 81.04945622603894 77.84312569702307
1.1e-31 157.9243020249372 152.21382963593965
1.1e-31 254.42311880094655 245.81836472656386
4.999999999999999e-32 366.9510691410562 355.1094270731818
4.999999999999999e-32 491.83818778244824 476.5258735584959
7.999999999999999e-32 625.7242194443592 606.7599299144431
0.0 765.3783879013309 742.6634681604057
9.999999999999999e-33 907.7967698279791 881.3036411261365
0.0 1050.1889280025323 1019.9553668784952
9.999999999999999e-33 1189.9779384188555 1156.1011725894423
0.0 1324.7997717149124 1287.431025779229
0.0 1452.5019459754603 1411.8423972176709
0.0 1571.1429262447193 1527.4406852326144
0.0 1678.9847831823272 1632.5402233497377
0.0 1774.443272600295 1725.6726354891805
0.0 1856.224044288005 1805.5784837713345
0.0 1923.1889304655238 1871.2247606901315
0.0 1974.5723287783562 1921.7489957279845
0.0 2009.7984040733463 1956.4633556224817
4.999999999999999e-32 9.797543360682758 9.39482802071388
1.1e-31 48.87150870188596 47.1909076186244
1.1e-31 114.040526885108 110.38515614386976
0.0 201.02547832342415 194.8847198336913
7.999999999999999e-32 305.9312770309143 296.8916501558024
1.5e-31 425.04160135864043 412.77301640467743
0.0 554.8239881931007 539.0847250947869
0.0 691.9632622464236 672.5879436607144
1.9999999999999998e-32 833.3464912211696 810.2488751607915
0.0 976.0758424257925 949.2415522441604
0.0 1117.4666721273031 1086.9474110059325
0.0 1255.0475115787672 1220.955260751487
0.0 1386.5595163714947 1349.0614370089895
0.0 1509.956002790876 1469.2700854183568
0.0 1623.400999409223 1579.7938996991559
0.0 1725.2580838152364 1679.0592419954783
0.0 1814.1063618089026 1765.7014457407133
0.0 1888.7400525430958 1838.5653696250156
0.0 1948.1875484985803 1896.694768554835
0.0 1991.720199167802 1939.3181969542372

CELL_DATA 40

SCALARS Gamma-cyl-variance float
LOOKUP_TABLE default
0.0
0.0415453545650152
0.016137617196664962
0.12413178639278652
0.10476005767001756
0.061413631780460186
0.03965079024253575
0.02855315531461361
0.023839602852405554
0.014239307985064486
0.008568032369921876
0.007212990097204633
0.004935599792223163
0.0028366125246306155
0.0009600660924888702
0.00021553682342232946
1.9536194601770398e-5
1.0221862960263668e-5
2.8421172682421983e-6
9.904022839643845e-7
0.0
0.0415453545650152
0.016137617196664962
0.12413178639278652
0.10476005767001756
0.061413631780460186
0.03965079024253575
0.02855315531461361
0.023839602852405554
0.014239307985064486
0.008568032369921876
0.007212990097204633
0.004935599792223163
0.0028366125246306155
0.0009600660924888702
0.00021553682342232946
1.9536194601770398e-5
1.0221862960263668e-5
2.8421172682421983e-6
9.904022839643845e-7

SCALARS Gamma-cart-variance float
LOOKUP_TABLE default
0.0
0.0415453545650152
0.016137617196664962
0.12413178639278652
0.10476005767001756
0.061413631780460186
0.03965079024253575
0.02855315531461361
0.023839602852405554
0.014239307985064486
0.008568032369921876
0.007212990097204633
0.004935599792223163
0.0028366125246306155
0.0009600660924888702
0.00021553682342232946
1.9536194601770398e-5
1.0221862960263668e-5
2.8421172682421983e-6
9.904022839643845e-7
0.0
0.0415453545650152
0.016137617196664962
0.12413178639278652
0.10476005767001756
0.061413631780460186
0.03965079024253575
0.02855315531461361
0.023839602852405554
0.014239307985064486
0.008568032369921876
0.007212990097204633
0.004935599792223163
0.0028366125246306155
0.0009600660924888702
0.00021553682342232946
1.9536194601770398e-5
1.0221862960263668e-5
2.8421172682421983e-6
9.904022839643845e-7

VECTORS centroid-cell-cart-variance float
0.0 0.09336328470610132 0.09103701570906306
0.0 0.4814946252754412 0.46923733500753717
0.0 1.1308703591891613 1.101832043763914
0.0 1.999738881772021 1.9481146694770597
0.0 3.048415411707418 2.969519468042614
0.0 4.239387092927253 4.129498914330791
0.0 5.537255336694308 5.393599686563239
0.0 6.908761521889892 6.729433150046106
0.0 8.322779613188738 8.106683621861324
0.0 9.75031403594847 9.497110320045971
0.0 11.16450057410537 10.874546326526508
0.0 12.54060715487471 12.214897747796538
0.0 13.856031439134583 13.496146095867639
0.0 15.09029952289004 14.69834956290537
0.0 16.22506734252823 15.803641605725241
0.0 17.24412373086945 16.796227888263324
0.0 18.133387653849258 17.66238904516846
0.0 18.880903497300363 18.39048539414395
0.0 19.476846682420877 18.970951318558264
0.0 19.913526145521534 19.3962927906156
0.0 0.006123464600426723 0.005871767512946177
0.0 0.03054469293867873 0.029494317261640233
0.0 0.0712753293031925 0.06899072258991859
0.0 0.12564092395214008 0.12180294989605706
0.0 0.1912070481443215 0.18555728134737656
0.0 0.2656510008491503 0.2579831352529235
0.0 0.3467649926206881 0.3369279531842419
0.0 0.4324770389040148 0.4203674647879465
0.0 0.5208415570132308 0.5064055469754948
0.0 0.6100474015161202 0.5932759701526001
0.0 0.6984166700795649 0.6793421318787081
0.0 0.7844046947367295 0.7630970379696792
0.0 0.8665996977321841 0.8431633981306184
0.0 0.9437225017442978 0.9182938033864729
0.0 1.0146256246307646 0.9873711873119727
0.0 1.078286302384523 1.0494120262471742
0.0 1.1338164761305642 1.103563403587946
0.0 1.1804625328394351 1.149103356015635
0.0 1.2176172178116125 1.185434230346772
0.0 1.2448251244798767 1.2120738730963985

VECTORS D-cart-variance float
0.13187947289725754 654.0840745717065 680.0593280609648
13.029101306273489 257400.10332321769 267503.614470439
9.682542474750953 1.0132887804503907e6 1.0534619034789018e6
21.303698554188674 1.1428410497637049e6 1.1863348191954193e6
13.215561257504506 1.1759425091274604e6 1.2202986985648582e6
7.989060092901078 1.4247769895879491e6 1.4791151251912168e6
4.608381002487577 1.5009851346808984e6 1.5585429989470881e6
3.6454849595027192 1.6581304045956351e6 1.7218703469092674e6
3.1150084340482906 1.8460813789007342e6 1.915335184978721e6
1.795104828020271 1.5550449730248938e6 1.6137611657512812e6
1.7568252656744494 1.5696660514929928e6 1.6282071416217394e6
1.1132245343117737 1.5495793374472216e6 1.6096155032871924e6
0.9581024349547465 1.6298539114681582e6 1.6917646156613275e6
0.9454691741535246 1.5570798515691208e6 1.6162827427349263e6
0.8219818018392566 1.4495092672567987e6 1.5050456410254382e6
0.6133018465554545 1.2021865724828106e6 1.2479965824989195e6
0.35895156637060416 846138.2483861485 878594.565220135
0.15496941794594274 432598.81213996804 449356.6214807982
0.046572125128663024 144100.19390576138 149692.3150511187
0.005587125146331886 21615.488683430074 22458.73617527967
0.13187947289725754 654.0840745717065 680.0593280609648
13.029101306273489 257400.10332321769 267503.614470439
9.682542474750953 1.0132887804503907e6 1.0534619034789018e6
21.303698554188674 1.1428410497637049e6 1.1863348191954193e6
13.215561257504506 1.1759425091274604e6 1.2202986985648582e6
7.989060092901078 1.4247769895879491e6 1.4791151251912168e6
4.608381002487577 1.5009851346808984e6 1.5585429989470881e6
3.6454849595027192 1.6581304045956351e6 1.7218703469092674e6
3.1150084340482906 1.8460813789007342e6 1.915335184978721e6
1.795104828020271 1.5550449730248938e6 1.6137611657512812e6
1.7568252656744494 1.5696660514929928e6 1.6282071416217394e6
1.1132245343117737 1.5495793374472216e6 1.6096155032871924e6
0.9581024349547465 1.6298539114681582e6 1.6917646156613275e6
0.9454691741535246 1.5570798515691208e6 1.6162827427349263e6
0.8219818018392566 1.4495092672567987e6 1.5050456410254382e6
0.6133018465554545 1.2021865724828106e6 1.2479965824989195e6
0.35895156637060416 846138.2483861485 878594.565220135
0.15496941794594274 432598.81213996804 449356.6214807982
0.046572125128663024 144100.19390576138 149692.3150511187
0.005587125146331886 21615.488683430074 22458.73617527967

VECTORS S-cyl-mean float
8.97207714517659e-16 1.669504788660934e-16 1.30550017533329e-18
-4.176998913478383e-15 -7.244589046344322e-16 9.046378650254109e-18
1.1263903039958003e-14 1.8601896172855107e-15 -6.758156399407452e-17
-9.907899900984724e-15 -1.6003469107854243e-15 5.2211674247121866e-17
2.4059556658935314e-15 3.8605025766111703e-16 -1.058471972589743e-17
1.2840964671425633e-14 2.0311685208889028e-15 -5.2920943805617635e-17
-9.920197338314387e-15 -1.5587984960882505e-15 3.680764969210778e-17
-1.2136426856736297e-14 -1.8941306491791273e-15 4.194286679196773e-17
6.736922984144285e-15 1.0420989882568883e-15 -2.245091263829044e-17
9.055932503282125e-16 1.3808935842601333e-16 -3.00125575631265e-18
-4.624285758737355e-15 -7.073583167880118e-16 1.426754362717942e-17
-4.8824837800710956e-17 -8.75870250016124e-18 5.2152981403999994e-21
7.489070244005727e-17 1.1979682994920269e-17 -1.6530796284222e-19
2.907597709564336e-15 4.3914911162922527e-16 -8.702491651901529e-18
-6.484354066234291e-15 -9.770499651808927e-16 1.986007673848913e-17
-8.592089012803319e-16 -1.2981623437795332e-16 2.5909251087677198e-18
-4.8539020456243935e-15 -7.329709607438275e-16 1.4812014022278298e-17
2.6415397703939642e-15 3.9973252711797357e-16 -7.71840274125387e-18
1.0576716062797923e-15 1.6012739378020176e-16 -2.96312731491752e-18
1.0860237124632667e-15 1.650061924206485e-16 -2.56290849342414e-18
9.122632966197631e-16 -2.5096275103304888e-17 1.30550017533329e-18
-4.230649296689157e-15 -2.716010974337912e-16 9.046378650254109e-18
1.1371843240876665e-14 1.0084633908871782e-15 -6.758156399407452e-17
-9.98104098087854e-15 -1.051861027330442e-15 5.2211674247121866e-17
2.4201559546067542e-15 2.83729841692548e-16 -1.058471972589743e-17
1.290236122300968e-14 1.595335113393852e-15 -5.2920943805617635e-17
-9.959670156208818e-15 -1.2826294718390965e-15 3.680764969210778e-17
-1.217735120806132e-14 -1.610187976789505e-15 4.194286679196773e-17
6.756399780669181e-15 9.072836377842565e-16 -2.245091263829044e-17
9.078515829595445e-16 1.223654741680393e-16 -3.00125575631265e-18
-4.634525266512823e-15 -6.368281721505053e-16 1.426754362717942e-17
-4.893890593474719e-17 -8.097106993372859e-18 5.2152981403999994e-21
7.503072528346508e-17 1.106889244962164e-17 -1.6530796284222e-19
2.9122585233537818e-15 4.070954139532521e-16 -8.702491651901529e-18
-6.493855547947287e-15 -9.117644504713697e-16 1.986007673848913e-17
-8.603554263991724e-16 -1.2198660177628092e-16 2.5909251087677198e-18
-4.859622295160911e-15 -6.9403360594816535e-16 1.4812014022278298e-17
2.644151526177594e-15 3.8207480736344437e-16 -7.71840274125387e-18
1.0584840567756222e-15 1.5466580268804218e-16 -2.96312731491752e-18
1.0866415832565471e-15 1.6088696997383278e-16 -2.56290849342414e-18

VECTORS L-cart-variance float
0.004773777669638998 6433.066267054961 6694.308899472337
2.2345903672184715 95946.05313260728 99713.47384518481
0.40293731184371945 178821.00179256717 185778.2963683899
42.556060004937855 235491.75487879466 244263.13773402668
77.9083841756756 264222.42235322477 273903.521766663
68.10468662563956 331306.14441354666 343546.3873039473
62.44980293301027 362228.0159417761 375620.07234238216
55.89006925109066 408048.6104140071 423146.8225249833
55.53615508955929 458946.01832475886 475476.4129980417
39.65731569463664 392331.91107906867 406547.21682112647
23.863890817190505 398104.7261169644 412517.90418560914
26.537377321738372 395200.3849483244 409629.02162764804
19.874557159619062 414073.2631290384 429085.859578348
10.60321959607474 400296.3375064779 414821.7612445745
2.893766931322147 368836.9801114562 382303.6438783242
0.6557205766210625 309418.2597998226 320652.645707038
0.8673063985316016 216120.19436516566 224016.7900550852
0.9091058783809464 114727.77710936657 118974.5774492727
0.2698837704109117 39797.03577498362 41275.85819016722
0.05140275341466 6884.447357466333 7142.878492297268
0.004773777669638998 6433.066267054961 6694.308899472337
2.2345903672184715 95946.05313260728 99713.47384518481
0.40293731184371945 178821.00179256717 185778.2963683899
42.556060004937855 235491.75487879466 244263.13773402668
77.9083841756756 264222.42235322477 273903.521766663
68.10468662563956 331306.14441354666 343546.3873039473
62.44980293301027 362228.0159417761 375620.07234238216
55.89006925109066 408048.6104140071 423146.8225249833
55.53615508955929 458946.01832475886 475476.4129980417
39.65731569463664 392331.91107906867 406547.21682112647
23.863890817190505 398104.7261169644 412517.90418560914
26.537377321738372 395200.3849483244 409629.02162764804
19.874557159619062 414073.2631290384 429085.859578348
10.60321959607474 400296.3375064779 414821.7612445745
2.893766931322147 368836.9801114562 382303.6438783242
0.6557205766210625 309418.2597998226 320652.645707038
0.8673063985316016 216120.19436516566 224016.7900550852
0.9091058783809464 114727.77710936657 118974.5774492727
0.2698837704109117 39797.03577498362 41275.85819016722
0.05140275341466 6884.447357466333 7142.878492297268

VECTORS centroid-cell-mean float
-0.043463854073062545 -0.009985342369949307 -0.005923552902949905
-0.04920694186713547 -0.022753678695436753 -0.013313512269707155
-0.04768612441769516 -0.0349192802957258 -0.02031591158299311
-0.03949176935756759 -0.04647506727365921 -0.026943013584396634
-0.0325203527340723 -0.057404830786199394 -0.03322289281359081
-0.026059865066004467 -0.06771283532650448 -0.039148162951756514
-0.020397336123535698 -0.07739775779935402 -0.0447211156670402
-0.015728055260341375 -0.08646034990672757 -0.049940448973420294
-0.011861351265889608 -0.09490128548088744 -0.05480499575918199
-0.008825370772832299 -0.10272095988414677 -0.05931407123671348
-0.006621898931261721 -0.10991974130249302 -0.06346703768917593
-0.004962808773784465 -0.11649809621784846 -0.06726308714618061
-0.003589635707354711 -0.12245631244362061 -0.07070172110028129
-0.0024576536401716698 -0.12779441921999474 -0.07378288890599119
-0.0015577101221786445 -0.13251239452505895 -0.07650662870638196
-0.0008817456178149485 -0.13661048486610444 -0.07887251353830088
-0.00043932306010800395 -0.14008889699139382 -0.08088018530325222
-0.00020707453581434652 -0.14294735465545289 -0.08253012247243253
-0.00010247039907993961 -0.14518568196274365 -0.08382262970585129
-6.15518021967676e-5 -0.146804020640043 -0.08475746152552772
-0.016298945277398467 -0.002807136467173218 -0.0009425653197447173
-0.018452603200175798 -0.006044223171387101 -0.002712108332197751
-0.01788229665663569 -0.009110295309579469 -0.0044199754565842604
-0.014809413509087831 -0.01198937894950308 -0.0060938343551529845
-0.012195132275277127 -0.014702899172272941 -0.007696575698856565
-0.009772449399751687 -0.017259341787341148 -0.009213501634580448
-0.007649001046325881 -0.019659942022242208 -0.010642472685476077
-0.005898020722628016 -0.021906636021805193 -0.011980135350328835
-0.004448006724708603 -0.023999082321504574 -0.013227081063045517
-0.0033095140398121115 -0.02593738075772212 -0.01438313690194087
-0.0024832120992231434 -0.027721669416897986 -0.015448063694284848
-0.0018610532901691746 -0.029352121486622258 -0.016421561470371483
-0.001346113390258017 -0.030828843205079427 -0.01730344622026793
-0.000921620115064376 -0.032151794368495724 -0.018093787578953243
-0.0005841412958169919 -0.03332053169778463 -0.01879335332832692
-0.00033065460668060603 -0.034332187969796285 -0.019407109644561285
-0.00016474614754050164 -0.035184334114525415 -0.01993926380032047
-7.765295093037998e-5 -0.035874693633996195 -0.020393758805761972
-3.842639965497736e-5 -0.03640459057381772 -0.020768301346619646
-2.3081925823787848e-5 -0.036781352491936314 -0.021050199720234163

SCALARS mu-cart-variance float
LOOKUP_TABLE default
1.5306215308876836e-5
0.0006557159818262462
4.554634380269523e-5
1.9620508288233304e-8
1.831934291824268e-7
1.4918550638931003e-8
2.5047734390696805e-7
6.583559773712022e-8
3.2479222016647526e-8
3.4338939801316796e-10
0.00016984309606088693
7.550037837384942e-5
8.921297176286479e-9
2.1742327033382971e-7
1.0321727704198359e-7
4.707789139231464e-7
6.143462334753998e-7
8.610691163111751e-7
9.611138921294146e-7
1.3396174161252987e-6
1.5306215308876836e-5
0.0006557159818262462
4.554634380269523e-5
1.9620508288233304e-8
1.831934291824268e-7
1.4918550638931003e-8
2.5047734390696805e-7