# vtk DataFile Version 4.0
 
ASCII
DATASET UNSTRUCTURED_GRID
POINTS 704 float
0.7966769023958385 -2.1391865247060204 0.7051797476575368
0.7514406829620165 -2.1435661425473365 0.712765468276432
0.6214809884732289 -2.154000868238624 0.7308389433367861
0.4048895179127021 -2.1613381132447365 0.7435474244749534
0.10373121052662726 -2.1473082746637644 0.71924703123072
-0.2686568310691162 -2.0937002963600166 0.6263952891175795
-0.6774707864079444 -1.97519179066862 0.4211325361310161
-1.0583407255216244 -1.7718438804164438 0.06892362396129226
-1.3164537177473794 -1.4782189390302058 -0.4396496928891029
-1.333201165686269 -1.1122699350074776 -1.0734919608356923
-1.1135126432809705 -0.8225217059832313 -1.5753506149087877
-0.7954701316559406 -0.6248737522699276 -1.9176869127522498
-0.47725425978612795 -0.5085445131705235 -2.1191750652782444
-0.224428864136694 -0.4477352564319631 -2.224499787519931
-0.06561513623718178 -0.4224040213986227 -2.268374773616145
-0.014881417598192588 -0.41534987407435797 -2.2805929151858475
0.014881417598192588 -0.41182986811404854 -2.2866897443520484
0.06655948919937225 -0.40677192632876674 -2.2954503565058824
0.231240844374164 -0.39384388219603217 -2.317842385786271
0.5117602850937687 -0.3915752436154214 -2.3217717830719
0.9004875416594313 -0.42429537728944655 -2.2650988491180435
1.361922689788577 -0.5297556751507947 -2.082436255040842
1.817949802003889 -0.7395880276920179 -1.7189959593677409
2.1308733031291305 -1.0705087333138081 -1.1458244839542588
2.163205356935199 -1.3908364482670652 -0.5910006065827799
2.004899400420978 -1.657951884487196 -0.12834309956359158
1.7455931929471284 -1.8554779615821815 0.21378210178468848
1.4607009073813408 -1.9868215001555296 0.44127578383960925
1.2040274544113783 -2.0668252658958908 0.579846370898752
1.0038139976038398 -2.108782915644972 0.6525191520303399
0.8782765126492166 -2.1285654588579694 0.6867835219781779
0.8339097891653807 -2.134783046929675 0.6975527004189059
0.876237549622453 -4.598123231312835 -0.6267260348124233
0.9228362670027951 -4.591590405480163 -0.6380412210716093
1.0546888239013228 -4.570805666208918 -0.6740414455114783
1.26497174663196 -4.526725789227676 -0.7503900320343753
1.5345488887072891 -4.442681804965282 -0.8959584828473582
1.833754809800062 -4.304712343401444 -1.1349286001688477
2.1060732171117706 -4.097230254828893 -1.49429811923701
2.2722931583136785 -3.8166610835812316 -1.9802581788754499
2.2382681717898705 -3.4802108533166805 -2.5630070719118976
1.909525590147668 -3.1326487516286847 -3.165002290820923
1.4305008080546446 -2.912277473389112 -3.54669654126076
0.9458170945052086 -2.8015322470306296 -3.738512900009366
0.5375159939190799 -2.7671849540331936 -3.798004156583379
0.24287665792099117 -2.7695821172142336 -3.793852148159784
0.06990846594542928 -2.783169325633515 -3.7703184128445626
0.01563013603630352 -2.788484506151821 -3.7611122501354557
-0.01563013603630352 -2.7921832171203906 -3.7547058948153804
-0.06891616971103644 -2.7995950368818905 -3.7418682464119195
-0.23571884446666472 -2.8262094693395765 -3.695770697180598
-0.5012581535272688 -2.8900925641814 -3.585121931169819
-0.8354681204834217 -3.0122936616314817 -3.373463421645603
-1.1694793853409482 -3.219906761996747 -3.0138669834960687
-1.4001670497463037 -3.5242511164877746 -2.4867270985208574
-1.3825018215519616 -3.9086198466209394 -1.8209809290894883
-1.1113363369123976 -4.217011646701785 -1.2868306627118449
-0.7112531997581533 -4.430575917845381 -0.9169264944097205
-0.28183677808235075 -4.555028840741599 -0.7013677088030217
0.10930691703137008 -4.611316233394444 -0.6038750849027146
0.42562733761798066 -4.6260369009421645 -0.5783781407887334
0.6531197593649893 -4.618319261106273 -0.5917454850990136
0.7896190342218844 -4.607352649613703 -0.6107402133910145
0.8371313904550017 -4.602750266532341 -0.6187117747238282
1.0260473632296185 -9.4659983222309 -3.1123046983763016
1.0588649062748245 -9.453112453601113 -3.1346236775427507
1.1518274957733692 -9.414861037369157 -3.200877073917964
1.300646886622875 -9.345126270258554 -3.321661233607508
1.493145138394513 -9.23264843609412 -3.5164785571056134
1.7102033272296484 -9.068033173464137 -3.801600555682038
1.9133267558229226 -8.84075438126364 -4.195258971256186
2.0448902407141545 -8.548261182734356 -4.701872051977235
2.029490589895447 -8.202003160246829 -5.301608539453956
1.7793171533824517 -7.832279462855861 -5.941988768097328
1.3848941885702803 -7.574682230883914 -6.388160261761843
0.9504531516252314 -7.42354144193537 -6.649943787316765
0.5563898725939962 -7.3587953554627346 -6.762087298678619
0.2571288643790628 -7.348759351699696 -6.779470167101152
0.07881623488849696 -7.359204004256765 -6.761379498204909
0.022806765560467738 -7.363767894494388 -6.753474608433174
-0.023003927993888663 -7.369252650407282 -6.743974732524928
-0.07717799624656119 -7.377923051002393 -6.728957158172221
-0.2457926661461365 -7.409307981351379 -6.674596864215767
-0.5025819916192812 -7.487119159843878 -6.539823949669948
-0.7957754368577424 -7.634610605145857 -6.284361272725155
-1.0498498481160023 -7.868181950882247 -5.879803834717494
-1.1702949261086486 -8.188074472792527 -5.325733733807551
-1.0439076686618416 -8.572073135642466 -4.660628539712951
-0.7192293709757948 -8.87733670046773 -4.131896535736002
-0.31608215765425474 -9.101654167480369 -3.743367285844955
0.08114496007369232 -9.255404345688037 -3.4770641655165053
0.4203804053823006 -9.35460457668615 -3.305244325305206
0.6784164094540799 -9.415694142266823 -3.1994340939071733
0.853639675621071 -9.448877476642215 -3.141958872804445
0.9542320208740129 -9.465235743729604 -3.1136255230853065
0.988414118924369 -9.470504020425137 -3.1045006001803124
0.9820493720050042 -14.058104918806345 -5.545863333498026
0.9854311756828062 -14.036832680461378 -5.582707931102228
0.9953030033265851 -13.976063268811933 -5.687963639625133
1.0123771897896892 -13.875827167277961 -5.861577660234603
1.0378983918148172 -13.736183740044257 -6.103447171146424
1.0728994381948294 -13.55719276205747 -6.413468639115987
1.11585792788819 -13.338791457613429 -6.791750794852379
1.1580191245126126 -13.080590954273493 -7.238967185177003
1.175490539664926 -12.782081070015735 -7.756001471272941
1.1167791320165223 -12.442268984823052 -8.34457326785259
0.9621362939316549 -12.164814616465561 -8.825138330629692
0.7298136567620059 -11.960612104657969 -9.178827456113625
0.4705956068855415 -11.833264355717459 -9.39940022750811
0.23460378896430636 -11.781565039404683 -9.488946070078413
0.08118853214395548 -11.774902358741928 -9.500486171500912
0.03243830004580166 -11.775258552654106 -9.499869225547672
-0.0327769896250652 -11.782175104582413 -9.487889406194657
-0.07819287093748278 -11.791893717617707 -9.471056274638427
-0.21490718581037813 -11.829549074009918 -9.405835284190005
-0.3947635322759889 -11.924563006447148 -9.241266325781805
-0.5441075394586264 -12.093195249474975 -8.949186713063309
-0.6117980637331246 -12.328813057076605 -8.5410846991293
-0.5276236445461557 -12.617156603425348 -8.041659026818685
-0.2510614285217665 -12.933341785991534 -7.494010226013615
0.0813876654817779 -13.18614929169326 -7.056134781603473
0.3900478008356105 -13.39850196673306 -6.688329159311373
0.6369595845514406 -13.583380347649127 -6.368110410343677
0.8069986178893772 -13.744409397511898 -6.089199914486813
0.9028107740330056 -13.878016571898238 -5.857785500193959
0.9433433851640168 -13.977815925663656 -5.684927948909715
0.9543458978341224 -14.039305271981064 -5.578425276963769
0.9556408611379472 -14.060905731893019 -5.541012182929407
0.8020369664097139 -18.29268247938714 -8.069015352373302
0.8062956202887109 -18.2725228202142 -8.103932906324104
0.8186643069178978 -18.214934519583352 -8.203678768938278
0.8397521751957258 -18.11995097678518 -8.368195090947605
0.8704741148925221 -17.98762504241402 -8.597390332437476
0.9113493629769198 -17.817989502771123 -8.891207705868341
0.9605694408661958 -17.610937453722325 -9.249832374632097
1.010103456299582 -17.366038339751498 -9.674010082758171
1.03875589433486 -17.082659920896646 -10.164835901983308
1.00013116910579 -16.759196990976 -10.725090130970951
0.8710190128913723 -16.493262127662586 -11.185702825733669
0.6691883518767417 -16.293975604576488 -11.530877208982533
0.43947096110779166 -16.164436413272973 -11.755245669891606
0.22256678811464048 -16.106852086040675 -11.854984650377618
0.07769288071134949 -16.096215009170038 -11.873408607961576
0.03138402102067128 -16.095466281214275 -11.874705442822005
-0.031662256589925164 -16.10112775785547 -11.864899477633596
-0.07519384522818609 -16.11002175810936 -11.84949461731132
-0.20584615954187302 -16.145468890199673 -11.788098383548299
-0.37722269848145057 -16.236126852353518 -11.631074186987181
-0.5214245803093023 -16.396428367433646 -11.353423818338133
-0.5954502566808526 -16.61999687406791 -10.966191805875292
-0.5298223609715487 -16.895345449774787 -10.489274082959257
-0.2841717262830426 -17.19995858737519 -9.961668651982393
0.01417848222417839 -17.44624364982284 -9.535090410677793
0.2912290113301247 -17.654158358983924 -9.174971570769886
0.5117144624053227 -17.834744315574426 -8.86218751882171
0.6613282810223545 -17.991065304050096 -8.591431624492463
0.742403261164945 -18.119914695074293 -8.368257932714243
0.7729650738886124 -18.215622495048574 -8.202487160478155
0.7780728637132528 -18.27433196702485 -8.100799372129705
0.7773161705818656 -18.29490237584154 -8.065170378926734
0.6637769571092984 -22.28298065903317 -10.485606598498704
0.6671894307191958 -22.264499677642874 -10.517616597240432
0.6772409701275841 -22.21171020254047 -10.609050650222686
0.694369379187418 -22.124632815838712 -10.759873108180454
0.718200598960882 -22.00324999123198 -10.970114327565538
0.7467740797055163 -21.847469420634297 -11.23993419067279
0.776419157638673 -21.65714417414121 -11.569587187561888
0.8017719851500207 -21.43213470502194 -11.959315020260558
0.8129865112089941 -21.17237749231435 -12.409227710302579
0.7816102731095446 -20.875999814658652 -12.922568906231518
[...]
POINT_DATA 704

SCALARS Np-cyl-mean float
LOOKUP_TABLE default
-112.30590307023435
-112.30590307023435
-112.30590307023435
-112.30590307023435
-112.30590307023435
-112.30590307023435
-112.30590307023435
-112.30590307023435
-112.30590307023435
-112.30590307023435
-112.30590307023435
-112.30590307023435
-112.30590307023435
-112.30590307023435
-112.30590307023435
-112.30590307023435
-112.30590307023435
-112.30590307023435
-112.30590307023435
-112.30590307023435
-112.30590307023435
-112.30590307023435
-112.30590307023435
-112.30590307023435
-112.30590307023435
-112.30590307023435
-112.30590307023435
-112.30590307023435
-112.30590307023435
-112.30590307023435
-112.30590307023435
-112.30590307023435
-112.30590307023435
-112.30590307023435
-112.30590307023435
-112.30590307023435
-112.30590307023435
-112.30590307023435
-112.30590307023435
-112.30590307023435
-112.30590307023435
-112.30590307023435
-112.30590307023435
-112.30590307023435
-112.30590307023435
-112.30590307023435
-112.30590307023435
-112.30590307023435
-112.30590307023435
-112.30590307023435
-112.30590307023435
-112.30590307023435
-112.30590307023435
-112.30590307023435
-112.30590307023435
-112.30590307023435
-112.30590307023435
-112.30590307023435
-112.30590307023435
-112.30590307023435
-112.30590307023435
-112.30590307023435
-112.30590307023435
-112.30590307023435
-1117.5489824605588
-1117.5489824605588
-1117.5489824605588
-1117.5489824605588
-1117.5489824605588
-1117.5489824605588
-1117.5489824605588
-1117.5489824605588
-1117.5489824605588
-1117.5489824605588
-1117.5489824605588
-1117.5489824605588
-1117.5489824605588
-1117.5489824605588
-1117.5489824605588
-1117.5489824605588
-1117.5489824605588
-1117.5489824605588
-1117.5489824605588
-1117.5489824605588
-1117.5489824605588
-1117.5489824605588
-1117.5489824605588
-1117.5489824605588
-1117.5489824605588
-1117.5489824605588
-1117.5489824605588
-1117.5489824605588
-1117.5489824605588
-1117.5489824605588
-1117.5489824605588
-1117.5489824605588
-1892.6361645131885
-1892.6361645131885
-1892.6361645131885
-1892.6361645131885
-1892.6361645131885
-1892.6361645131885
-1892.6361645131885
-1892.6361645131885
-1892.6361645131885
-1892.6361645131885
-1892.6361645131885
-1892.6361645131885
-1892.6361645131885
-1892.6361645131885
-1892.6361645131885
-1892.6361645131885
-1892.6361645131885
-1892.6361645131885
-1892.6361645131885
-1892.6361645131885
-1892.6361645131885
-1892.6361645131885
-1892.6361645131885
-1892.6361645131885
-1892.6361645131885
-1892.6361645131885
-1892.6361645131885
-1892.6361645131885
-1892.6361645131885
-1892.6361645131885
-1892.6361645131885
-1892.6361645131885
-2760.8785545206647
-2760.8785545206647
-2760.8785545206647
-2760.8785545206647
-2760.8785545206647
-2760.8785545206647
-2760.8785545206647
-2760.8785545206647
-2760.8785545206647
-2760.8785545206647
-2760.8785545206647
-2760.8785545206647
-2760.8785545206647
-2760.8785545206647
-2760.8785545206647
-2760.8785545206647
-2760.8785545206647
-2760.8785545206647
-2760.8785545206647
-2760.8785545206647
-2760.8785545206647
-2760.8785545206647
-2760.8785545206647
-2760.8785545206647
-2760.8785545206647
-2760.8785545206647
-2760.8785545206647
-2760.8785545206647
-2760.8785545206647
-2760.8785545206647
-2760.8785545206647
-2760.8785545206647
-3382.1610883551716
-3382.1610883551716
-3382.1610883551716
-3382.1610883551716
-3382.1610883551716
-3382.1610883551716
-3382.1610883551716
-3382.1610883551716
-3382.1610883551716
-3382.1610883551716
-3382.1610883551716
-3382.1610883551716
-3382.1610883551716
-3382.1610883551716
-3382.1610883551716
-3382.1610883551716
-3382.1610883551716
-3382.1610883551716
-3382.1610883551716
-3382.1610883551716
-3382.1610883551716
-3382.1610883551716
-3382.1610883551716
-3382.1610883551716
-3382.1610883551716
-3382.1610883551716
-3382.1610883551716
-3382.1610883551716
-3382.1610883551716
-3382.1610883551716
-3382.1610883551716
-3382.1610883551716
-4190.375417442661
-4190.375417442661
-4190.375417442661
-4190.375417442661
-4190.375417442661
-4190.375417442661
-4190.375417442661
-4190.375417442661
-4190.375417442661
-4190.375417442661
-4190.375417442661
-4190.375417442661
-4190.375417442661
-4190.375417442661
-4190.375417442661
-4190.375417442661
-4190.375417442661
-4190.375417442661
-4190.375417442661
-4190.375417442661
-4190.375417442661
-4190.375417442661
-4190.375417442661
-4190.375417442661
-4190.375417442661
-4190.375417442661
-4190.375417442661
-4190.375417442661
-4190.375417442661
-4190.375417442661
-4190.375417442661
-4190.375417442661
-4879.112861545278
-4879.112861545278
-4879.112861545278
-4879.112861545278
-4879.112861545278
-4879.112861545278
-4879.112861545278
-4879.112861545278
-4879.112861545278
-4879.112861545278
-4879.112861545278
-4879.112861545278
-4879.112861545278
-4879.112861545278
-4879.112861545278
-4879.112861545278
-4879.112861545278
-4879.112861545278
-4879.112861545278
-4879.112861545278
-4879.112861545278
-4879.112861545278
-4879.112861545278
-4879.112861545278
-4879.112861545278
-4879.112861545278
-4879.112861545278
-4879.112861545278
-4879.112861545278
-4879.112861545278
-4879.112861545278
-4879.112861545278
-5656.3724252594375
-5656.3724252594375
-5656.3724252594375
-5656.3724252594375
-5656.3724252594375
-5656.3724252594375
-5656.3724252594375
-5656.3724252594375
-5656.3724252594375
-5656.3724252594375
-5656.3724252594375
-5656.3724252594375
-5656.3724252594375
-5656.3724252594375
-5656.3724252594375
-5656.3724252594375
-5656.3724252594375
-5656.3724252594375
-5656.3724252594375
-5656.3724252594375
-5656.3724252594375
-5656.3724252594375
-5656.3724252594375
-5656.3724252594375
-5656.3724252594375
-5656.3724252594375
-5656.3724252594375
-5656.3724252594375
-5656.3724252594375
-5656.3724252594375
-5656.3724252594375
-5656.3724252594375
-6481.615557203072
-6481.615557203072
-6481.615557203072
-6481.615557203072
-6481.615557203072
-6481.615557203072
-6481.615557203072
-6481.615557203072
-6481.615557203072
-6481.615557203072
-6481.615557203072
-6481.615557203072
-6481.615557203072
-6481.615557203072
-6481.615557203072
-6481.615557203072
-6481.615557203072
-6481.615557203072
-6481.615557203072
-6481.615557203072
-6481.615557203072
-6481.615557203072
-6481.615557203072
-6481.615557203072
-6481.615557203072
-6481.615557203072
-6481.615557203072
-6481.615557203072
-6481.615557203072
-6481.615557203072
-6481.615557203072
-6481.615557203072
-6447.9969286299165
-6447.9969286299165
-6447.9969286299165
-6447.9969286299165
-6447.9969286299165
-6447.9969286299165
-6447.9969286299165
-6447.9969286299165
-6447.9969286299165
-6447.9969286299165
-6447.9969286299165
-6447.9969286299165
-6447.9969286299165
-6447.9969286299165
-6447.9969286299165
-6447.9969286299165
-6447.9969286299165
-6447.9969286299165
-6447.9969286299165
-6447.9969286299165
-6447.9969286299165
-6447.9969286299165
-6447.9969286299165
-6447.9969286299165
-6447.9969286299165
-6447.9969286299165
-6447.9969286299165
-6447.9969286299165
-6447.9969286299165
-6447.9969286299165
-6447.9969286299165
-6447.9969286299165
-6835.750190600986
-6835.750190600986
-6835.750190600986
-6835.750190600986
-6835.750190600986
-6835.750190600986
-6835.750190600986
-6835.750190600986
-6835.750190600986
-6835.750190600986
-6835.750190600986
-6835.750190600986
-6835.750190600986
-6835.750190600986
-6835.750190600986
-6835.750190600986
-6835.750190600986
-6835.750190600986
-6835.750190600986
-6835.750190600986
-6835.750190600986
-6835.750190600986
-6835.750190600986
-6835.750190600986
-6835.750190600986
-6835.750190600986
-6835.750190600986
-6835.750190600986
-6835.750190600986
-6835.750190600986
-6835.750190600986
-6835.750190600986
-7141.936991829997
-7141.936991829997
-7141.936991829997
-7141.936991829997
-7141.936991829997
-7141.936991829997
-7141.936991829997
-7141.936991829997
-7141.936991829997
-7141.936991829997
-7141.936991829997
-7141.936991829997
-7141.936991829997
-7141.936991829997
-7141.936991829997
-7141.936991829997
-7141.936991829997
-7141.936991829997
-7141.936991829997
-7141.936991829997
-7141.936991829997
-7141.936991829997
-7141.936991829997
-7141.936991829997
-7141.936991829997
-7141.936991829997
-7141.936991829997
-7141.936991829997
-7141.936991829997
-7141.936991829997
-7141.936991829997
-7141.936991829997
-7488.277311106263
-7488.277311106263
-7488.277311106263
-7488.277311106263
-7488.277311106263
-7488.277311106263
-7488.277311106263
-7488.277311106263
-7488.277311106263
-7488.277311106263
-7488.277311106263
-7488.277311106263
-7488.277311106263
-7488.277311106263
-7488.277311106263
-7488.277311106263
-7488.277311106263
-7488.277311106263
-7488.277311106263
-7488.277311106263
-7488.277311106263
-7488.277311106263
-7488.277311106263
-7488.277311106263
-7488.277311106263
-7488.277311106263
-7488.277311106263
-7488.277311106263
-7488.277311106263
-7488.277311106263
-7488.277311106263
-7488.277311106263
-7416.703889551019
-7416.703889551019
-7416.703889551019
-7416.703889551019
-7416.703889551019
-7416.703889551019
-7416.703889551019
-7416.703889551019
-7416.703889551019
-7416.703889551019
-7416.703889551019
-7416.703889551019
-7416.703889551019
-7416.703889551019
-7416.703889551019
-7416.703889551019
-7416.703889551019
-7416.703889551019
-7416.703889551019
-7416.703889551019
-7416.703889551019
-7416.703889551019
-7416.703889551019
-7416.703889551019
-7416.703889551019
-7416.703889551019
-7416.703889551019
-7416.703889551019
-7416.703889551019
-7416.703889551019
-7416.703889551019
-7416.703889551019
-7072.389392468381
-7072.389392468381
-7072.389392468381
-7072.389392468381
-7072.389392468381
-7072.389392468381
-7072.389392468381
-7072.389392468381
-7072.389392468381
-7072.389392468381
-7072.389392468381
-7072.389392468381
-7072.389392468381
-7072.389392468381
-7072.389392468381
-7072.389392468381
-7072.389392468381
-7072.389392468381
-7072.389392468381
-7072.389392468381
-7072.389392468381
-7072.389392468381
-7072.389392468381
-7072.389392468381
-7072.389392468381
-7072.389392468381
-7072.389392468381
-7072.389392468381
-7072.389392468381
-7072.389392468381
-7072.389392468381
-7072.389392468381
-6408.137352431741
-6408.137352431741
-6408.137352431741
-6408.137352431741
-6408.137352431741
-6408.137352431741
-6408.137352431741
-6408.137352431741
-6408.137352431741
-6408.137352431741
-6408.137352431741
-6408.137352431741
-6408.137352431741
-6408.137352431741
-6408.137352431741
-6408.137352431741
-6408.137352431741
-6408.137352431741
-6408.137352431741
-6408.137352431741
-6408.137352431741
-6408.137352431741
-6408.137352431741
-6408.137352431741
-6408.137352431741
-6408.137352431741
-6408.137352431741
-6408.137352431741
-6408.137352431741
-6408.137352431741
-6408.137352431741
-6408.137352431741
-5293.914625390485
-5293.914625390485
-5293.914625390485
-5293.914625390485
-5293.914625390485
-5293.914625390485
-5293.914625390485
-5293.914625390485
-5293.914625390485
-5293.914625390485
-5293.914625390485
-5293.914625390485
-5293.914625390485
-5293.914625390485
-5293.914625390485
-5293.914625390485
-5293.914625390485
-5293.914625390485
-5293.914625390485
-5293.914625390485
-5293.914625390485
-5293.914625390485
-5293.914625390485
-5293.914625390485
-5293.914625390485
-5293.914625390485
-5293.914625390485
-5293.914625390485
-5293.914625390485
-5293.914625390485
-5293.914625390485
-5293.914625390485
-3817.850829263445
-3817.850829263445
-3817.850829263445
-3817.850829263445
-3817.850829263445
-3817.850829263445
-3817.850829263445
-3817.850829263445
-3817.850829263445
-3817.850829263445
-3817.850829263445
-3817.850829263445
-3817.850829263445
-3817.850829263445
-3817.850829263445
-3817.850829263445
-3817.850829263445
-3817.850829263445
-3817.850829263445
-3817.850829263445
-3817.850829263445
-3817.850829263445
-3817.850829263445
-3817.850829263445
-3817.850829263445
-3817.850829263445
-3817.850829263445
-3817.850829263445
-3817.850829263445
-3817.850829263445
-3817.850829263445
-3817.850829263445
-2237.8655341056105
-2237.8655341056105
-2237.8655341056105
-2237.8655341056105
-2237.8655341056105
-2237.8655341056105
-2237.8655341056105
-2237.8655341056105
-2237.8655341056105
-2237.8655341056105
-2237.8655341056105
-2237.8655341056105
-2237.8655341056105
-2237.8655341056105
-2237.8655341056105
-2237.8655341056105
-2237.8655341056105
-2237.8655341056105
-2237.8655341056105
-2237.8655341056105
-2237.8655341056105
-2237.8655341056105
-2237.8655341056105
-2237.8655341056105
-2237.8655341056105
-2237.8655341056105
-2237.8655341056105
-2237.8655341056105
-2237.8655341056105
-2237.8655341056105
-2237.8655341056105
-2237.8655341056105
-925.2881016885374
-925.2881016885374
-925.2881016885374
-925.2881016885374
-925.2881016885374
-925.2881016885374
-925.2881016885374
-925.2881016885374
-925.2881016885374
-925.2881016885374
-925.2881016885374
-925.2881016885374
-925.2881016885374
-925.2881016885374
-925.2881016885374
-925.2881016885374
-925.2881016885374
-925.2881016885374
-925.2881016885374
-925.2881016885374
-925.2881016885374
-925.2881016885374
-925.2881016885374
-925.2881016885374
-925.2881016885374
-925.2881016885374
-925.2881016885374
-925.2881016885374
-925.2881016885374
-925.2881016885374
-925.2881016885374
-925.2881016885374
-925.2881016885374
-925.2881016885374
-925.2881016885374
-925.2881016885374
-925.2881016885374
-925.2881016885374
-925.2881016885374
-925.2881016885374
-925.2881016885374
-925.2881016885374
-925.2881016885374
-925.2881016885374
-925.2881016885374
-925.2881016885374
-925.2881016885374
-925.2881016885374
-925.2881016885374
-925.2881016885374
-925.2881016885374
-925.2881016885374
-925.2881016885374
-925.2881016885374
-925.2881016885374
-925.2881016885374
-925.2881016885374
-925.2881016885374
-925.2881016885374
-925.2881016885374
-925.2881016885374
-925.2881016885374
-925.2881016885374
-925.2881016885374

VECTORS centroid-point-cyl-variance float
2.9e-30 0.0 1.9999999999999997e-31
3.1999999999999996e-30 0.0 0.0
6.2899999999999995e-30 0.0 1.9999999999999997e-31
2.9299999999999997e-30 9.999999999999999e-33 3.0e-32
3.04e-30 9.999999999999999e-33 9.999999999999999e-33
2.73e-30 9.999999999999999e-33 7.999999999999999e-32
1.83e-30 9.999999999999999e-33 0.0
1.4e-30 0.0 0.0
1.7999999999999998e-30 0.0 4.999999999999999e-32
2.1099999999999998e-30 0.0 0.0
3.33e-30 0.0 1.9999999999999997e-31
6.0599999999999994e-30 0.0 1.9999999999999997e-31
6.64e-30 9.999999999999999e-33 7.999999999999999e-32
8.85e-30 0.0 9.999999999999999e-33
6.92e-30 9.999999999999999e-33 0.0
6.93e-30 0.0 0.0
7.399999999999999e-30 0.0 0.0
7.21e-30 9.999999999999999e-33 0.0
7.76e-30 9.999999999999999e-33 0.0
8.22e-30 0.0 1.9999999999999997e-31
6.69e-30 9.999999999999999e-33 1.1e-31
6.49e-30 9.999999999999999e-33 1.9999999999999997e-31
3.69e-30 0.0 1.9999999999999997e-31
2.5599999999999998e-30 0.0 1.9999999999999997e-31
1.3099999999999999e-30 0.0 0.0
1.66e-30 0.0 4.93e-30
1.57e-30 0.0 4.4e-31
3.46e-30 0.0 1.77e-30
4.1199999999999995e-30 0.0 4.4e-31
3.74e-30 9.999999999999999e-33 0.0
4.3e-30 9.999999999999999e-33 1.9999999999999997e-31
6.48e-30 0.0 3.1e-31
9.489999999999999e-30 3.0e-32 3.1e-31
1.179e-29 1.9999999999999998e-32 7.9e-31
9.62e-30 3.0e-32 0.0
9.489999999999999e-30 3.0e-32 4.4e-31
8.98e-30 1.9999999999999998e-32 7.9e-31
1.721e-29 3.0e-32 4.999999999999999e-32
2.418e-29 9.999999999999999e-33 0.0
2.0279999999999998e-29 3.0e-32 7.9e-31
1.087e-29 1.9999999999999998e-32 7.9e-31
1.93e-29 1.9999999999999998e-32 1.77e-30
1.923e-29 3.9999999999999997e-32 1.9999999999999997e-31
1.795e-29 1.9999999999999998e-32 9.999999999999999e-33
2.074e-29 1.9999999999999998e-32 1.1e-31
2.5159999999999998e-29 3.9999999999999997e-32 9.999999999999999e-33
1.806e-29 1.9999999999999998e-32 0.0
2.064e-29 1.9999999999999998e-32 0.0
2.341e-29 3.9999999999999997e-32 0.0
3.2999999999999997e-29 1.9999999999999998e-32 0.0
1.812e-29 3.0e-32 9.999999999999999e-33
3.386e-29 1.9999999999999998e-32 0.0
1.567e-29 3.0e-32 1.9999999999999997e-31
1.7669999999999998e-29 9.999999999999999e-33 1.9999999999999997e-31
1.921e-29 9.999999999999999e-33 4.4e-31
8.53e-30 1.9999999999999998e-32 4.999999999999999e-32
8.399999999999999e-30 9.999999999999999e-33 1.9999999999999997e-31
1.0529999999999999e-29 3.0e-32 3.1e-31
9.55e-30 9.999999999999999e-33 0.0
1.017e-29 1.9999999999999998e-32 0.0
1.9379999999999998e-29 1.9999999999999998e-32 7.999999999999999e-32
1.5799999999999999e-29 3.0e-32 4.999999999999999e-32
1.3009999999999999e-29 3.9999999999999997e-32 1.9999999999999997e-31
1.704e-29 3.0e-32 1.1e-31
5.986999999999999e-29 4.999999999999999e-32 4.999999999999999e-32
5.074e-29 9.999999999999999e-32 4.999999999999999e-32
4.793e-29 6.0e-32 1.9999999999999997e-31
4.324e-29 1.3e-31 1.77e-30
1.1905e-28 1.4e-31 4.4e-31
4.6389999999999995e-29 7.0e-32 4.4e-31
7.453999999999999e-29 7.999999999999999e-32 0.0
5.977999999999999e-29 9.999999999999999e-32 7.9e-31
5.936e-29 8.999999999999999e-32 1.77e-30
6.038e-29 7.0e-32 4.4e-31
7.734999999999999e-29 9.999999999999999e-32 1.2299999999999999e-30
8.008e-29 9.999999999999999e-32 4.4e-31
9.525999999999999e-29 1.2e-31 9.999999999999999e-33
1.0054999999999999e-28 1.2e-31 7.999999999999999e-32
6.524e-29 1.1e-31 0.0
1.1999e-28 3.9999999999999997e-32 0.0
6.608999999999999e-29 9.999999999999999e-32 0.0
9.603e-29 9.999999999999999e-32 0.0
8.263999999999999e-29 1.2e-31 0.0
1.0225e-28 7.999999999999999e-32 9.999999999999999e-33
6.848e-29 1.3e-31 1.1e-31
7.599e-29 1.9e-31 1.2299999999999999e-30
7.026999999999999e-29 1.1e-31 4.999999999999999e-32
8.008e-29 9.999999999999999e-32 1.9999999999999997e-31
8.143999999999999e-29 9.999999999999999e-32 1.1e-31
8.4e-29 3.9999999999999997e-32 4.999999999999999e-32
8.076e-29 7.999999999999999e-32 0.0
5.714e-29 1.2e-31 4.999999999999999e-32
5.612e-29 1.2e-31 0.0
7.377e-29 8.999999999999999e-32 4.999999999999999e-32
9.303999999999999e-29 8.999999999999999e-32 9.999999999999999e-33
4.511e-29 9.999999999999999e-32 1.9999999999999997e-31
1.5699999999999999e-28 1.5e-31 9.999999999999999e-33
1.0566e-28 1.4e-31 4.4e-31
1.4592e-28 1.4e-31 9.999999999999999e-31
1.5317e-28 1.2e-31 4.999999999999999e-32
1.3065e-28 2.4999999999999998e-31 1.9999999999999997e-31
1.1759999999999999e-28 1.9e-31 1.2299999999999999e-30
1.0447e-28 2.4e-31 1.9999999999999997e-31
1.2476999999999998e-28 2.1e-31 4.999999999999999e-32
1.1325e-28 1.9e-31 1.2299999999999999e-30
1.4463999999999999e-28 2.6e-31 4.999999999999999e-32
1.3782e-28 9.999999999999999e-32 1.9999999999999997e-31
1.46e-28 1.1e-31 1.1e-31
2.6112999999999997e-28 2.4e-31 7.999999999999999e-32
1.2741e-28 1.4e-31 0.0
1.3952e-28 1.3e-31 0.0
1.5283e-28 1.5e-31 0.0
1.5172e-28 1.6999999999999998e-31 0.0
1.3901e-28 1.9e-31 0.0
1.2143999999999998e-28 2.1e-31 1.9999999999999998e-32
1.9409999999999998e-28 9.999999999999999e-32 7.999999999999999e-32
1.4447e-28 2.4999999999999998e-31 1.9999999999999997e-31
1.7312e-28 2.2e-31 9.999999999999999e-33
1.2698999999999999e-28 1.9999999999999997e-31 0.0
1.1222999999999998e-28 1.3e-31 9.999999999999999e-33
1.8104999999999999e-28 2.4e-31 0.0
1.3645e-28 2.2e-31 3.0e-32
2.2114e-28 1.5999999999999999e-31 1.1e-31
1.0711e-28 1.7999999999999998e-31 0.0
2.4169e-28 1.9999999999999997e-31 6.0e-31
2.3836e-28 1.9e-31 1.1e-31
1.0984e-28 1.5999999999999999e-31 3.1e-31
1.2332e-28 1.7999999999999998e-31 4.999999999999999e-32
4.7382999999999995e-28 2.4e-31 3.1e-31
4.3528e-28 4.7e-31 1.1e-31
3.4011e-28 8.1e-31 1.9999999999999997e-31
2.3059999999999997e-28 5.5e-31 1.9999999999999997e-31
2.5038999999999997e-28 4.7e-31 3.1e-31
1.9239999999999998e-28 3.3999999999999997e-31 1.1e-31
3.5272999999999997e-28 4.1e-31 3.1e-31
3.3668999999999998e-28 6.0e-31 0.0
3.0155999999999997e-28 4.9999999999999995e-31 0.0
2.5926e-28 6.299999999999999e-31 0.0
2.9269e-28 5.6e-31 1.9999999999999997e-31
2.2275999999999997e-28 2.6e-31 4.999999999999999e-32
2.4971e-28 4.4999999999999995e-31 1.5e-31
3.3123999999999997e-28 4.6e-31 3.0e-32
2.729e-28 5.2e-31 0.0
3.4249e-28 5.8999999999999994e-31 0.0
2.9746e-28 3.5999999999999996e-31 0.0
2.4117999999999997e-28 1.9999999999999997e-31 0.0
5.208999999999999e-28 5.5e-31 1.9999999999999998e-32