# vtk DataFile Version 4.0
 
ASCII
DATASET UNSTRUCTURED_GRID
POINTS 152 float
0.0 2.1844734746466745 0.7836190458745966
0.0 4.148328534942448 -0.28761148371911016
0.0 6.1081085920472 -1.2837479922999653
0.0 8.036021383695852 -2.2529280901683695
0.0 9.931818075777086 -3.1955827706477775
0.0 11.777364456360177 -4.143121410157423
0.0 13.557179521505155 -5.122357894073517
0.0 15.267340620733783 -6.1400864523246925
0.0 16.932050293277225 -7.154387057290408
0.0 18.561099866415866 -8.148300632647478
0.0 20.15439786076118 -9.121985625344703
0.0 21.711746053468993 -10.075785367419384
0.0 23.232939410306685 -11.010054988579725
0.0 24.716319903095066 -11.927666277872467
0.0 26.16298683700155 -12.826715182894626
0.0 27.575347831883096 -13.703031583728631
0.0 28.953760614192063 -14.55599587998377
0.0 30.2976401427773 -15.3866213926584
0.0 31.606564860965488 -16.19563827932894
0.0 32.88053464276778 -16.983046758214492
0.0 34.119549365560005 -17.748847041706345
0.0 35.32360891008268 -18.493039336367968
0.0 36.49271316044102 -19.215623842935035
0.0 37.62686200410492 -19.9166007563154
0.0 38.72605533190897 -20.595970265589116
0.0 39.790293038052425 -21.253732554008415
0.0 40.81957502009925 -21.88988779899773
0.0 41.8139011789781 -22.504436172153685
0.0 42.77327156750687 -23.09737758199298
0.0 43.69768813340832 -23.66870865496083
0.0 44.58715118971601 -24.218428848867223
0.0 45.44166034104253 -24.74653884854323
0.0 46.261215207539706 -25.253039311905187
0.0 47.04581542489862 -25.73793086995466
0.0 47.79546064434959 -26.20121412677844
0.0 48.51015053266218 -26.642889659548594
0.0 49.18967702317953 -27.063317850286154
0.0 49.8333802080569 -27.463641692906517
0.0 50.44025019916044 -27.845610364967488
0.0 51.00976014233974 -28.21013640462574
0.0 51.54221148136626 -28.556697695953506
0.0 52.03744745886327 -28.885565750691708
0.0 52.48952690416229 -29.207030978294615
0.0 52.89858295532172 -29.520862776880644
0.0 53.2690999174726 -29.819294102126186
0.0 53.60413585754271 -30.097028226739386
0.0 53.90447059290915 -30.352714467402496
0.0 54.16937339397315 -30.58761848490717
0.0 54.39949754041276 -30.800608765659458
0.0 54.596130190606864 -30.9894558859498
0.0 54.7603856010625 -31.15222989689528
-0.8152906147965383 0.46108426197546803 -2.201378631688062
-0.840508508576773 2.3718053003077784 -3.364639986932968
-0.8937965186568912 4.218411110625996 -4.556800041056439
-0.9506477078523391 6.0253156544161435 -5.7355725723506605
-1.020681877210228 7.793022777377243 -6.900084894465747
-1.048954977401727 9.536999763977676 -8.023546884847336
-0.9930987765444168 11.268138495142736 -9.087093252342841
-0.9074282632528687 12.9961266721921 -10.073944406058022
-0.838943182597301 14.700565725972911 -11.019431704167335
-0.780438039247949 16.371741206755143 -11.940381067170753
-0.7250391551380654 18.007657050693638 -12.840249779063258
-0.6716005320170477 19.608464234368864 -13.718776340736701
-0.6190912009117757 21.17452625570849 -14.575331155311934
-0.5668551203523576 22.707607933492543 -15.40685746699579
-0.5160737545272154 24.20666797855519 -16.215158841528876
-0.46824322159258064 25.669205912619113 -17.004566234330706
-0.4244759216876314 27.09486419126865 -17.77569893049518
-0.3845740908079094 28.484224486132646 -18.527549445207814
-0.34771109645469384 29.837662669264745 -19.259466748974567
-0.3130568676883623 31.15511663174248 -19.971558417604754
-0.28047282351476527 32.43656562274592 -20.663860392572783
-0.25028172479700606 33.68200830909636 -21.33637498301188
-0.22269967179244904 34.89143508919136 -21.98911881938535
-0.19756508903558764 36.06482191169347 -22.622133559831624
-0.17527331282135344 37.202163260877256 -23.235428757867403
-0.15618952887338375 38.303449371870634 -23.82902132674726
-0.13996799493970205 39.368651761359864 -24.40296060101775
-0.12575834684109707 40.39773592165029 -24.957306349759314
-0.11252036551224441 41.39067137814668 -25.492111356519178
-0.10008619772204906 42.34745321307345 -26.007384139134537
-0.0884564051429673 43.26807920826436 -26.50312853958203
-0.07764813403823374 44.152546776651405 -26.979349038794872
-0.06766754153321136 45.000853042200525 -27.436050618210185
-0.05846867713071129 45.81299447294036 -27.87323939538179
-0.05000632361003568 46.588967847219216 -28.290920950374144
-0.0422455662862189 47.328770325797294 -28.68910020089482
-0.03513713503927796 48.032552127539525 -29.06751696023748
-0.028610254341892315 48.70079822448595 -29.42533123218854
-0.02259956362415257 49.33501001023323 -29.759942526756436
-0.017476911002663225 49.93596479521631 -30.070004502774594
-0.013355710955940858 50.50225677252889 -30.357952089230327
-0.010110762084772787 51.033925091046584 -30.623717478282032
-0.007505342360435571 51.53822675869914 -30.85473116348445
-0.005475063785670375 52.015225731337324 -31.05088237005461
-0.003985447751437076 52.45945706734402 -31.221636654533757
-0.0029419419370193198 52.86732734380096 -31.373218007989422
-0.00222865752783443 53.23826268967296 -31.506620404211493
-0.0017402354220029323 53.573738851476534 -31.61928777525435
-0.0014049497009942318 53.87326037177513 -31.712078278571017
-0.0011720086804816246 54.13540253384634 -31.78745959591118
-0.0010052173229800666 54.35893201976819 -31.847567896577516
-0.6209246712649916 1.8539338370548577 -2.0252560367134507
-0.6503643852126241 3.7533857949738714 -3.1669599449984123
-0.6916665849409614 5.609413783858685 -4.301724240336204
-0.7392485943984627 7.427856844356638 -5.419435407658172
-0.7761138204794831 9.212406269525252 -6.513699939843057
-0.765770157729804 10.968744844403323 -7.574674964475186
-0.7126976399239822 12.70216445553043 -8.5931946652001
-0.6548892921938138 14.411183513563254 -9.571825230036396
-0.6072679581919687 16.088758869734658 -10.522765750494019
-0.5645539478947554 17.731711562440424 -11.451522349586776
-0.5237398826831674 19.339313471177206 -12.359356169020495
-0.4840093998483088 20.911707116750968 -13.246020355518128
-0.44472987047405005 22.449457735125605 -14.11053589167192
-0.40609832807983987 23.95276680952998 -14.952553798292634
-0.3691188660449235 25.42074454280094 -15.77361524927525
-0.33476967873007946 26.852664844717303 -16.574977869773758
-0.3033937546858278 28.24858334864666 -17.356545299968893
-0.27460694522347623 29.608733308741876 -18.117913531816814
-0.24778798655364606 30.933179675844368 -18.858970067160175
-0.22257363420117282 32.22189134647412 -19.57976877880668
-0.19903295561691423 33.47486000889619 -20.280324063103535
-0.17736802372104568 34.69208153317336 -20.960643073311836
-0.15759928531051376 35.87354327090005 -21.620747717112668
-0.1398144006963529 37.01923410671576 -22.260657246875198
-0.12429856563552642 38.12914828352563 -22.88038163418019
-0.11105907142990716 39.203271432230395 -23.479945767037645
-0.09964737816779967 40.24157990601347 -24.059390602935323
-0.08935451713250306 41.24404933073448 -24.618758359122765
-0.07972746121286005 42.21066668432194 -25.15807159048937
-0.07070347607438114 43.14142957339222 -25.677334442497216
-0.062289202192950394 44.03633618568823 -26.176550054067643
-0.054493378339291916 44.89538437564225 -26.655722141432946
-0.047301081998971 45.71857164723262 -27.114855027829474
-0.040678125277780114 46.50589537871586 -27.55395325425011
-0.03459445871109547 47.25735321200766 -27.973020905016746
-0.029018512997061326 47.972974364481516 -28.37200737415396
-0.023905271017938854 48.6528885359141 -28.750688015058838
-0.01920368173726683 49.29763188892186 -29.108134166838617
-0.015028677985055923 49.9078668447311 -29.443198482273292
-0.01156223323447653 50.4833295408677 -29.75633798457425
-0.008799927390267616 51.02352556636949 -30.048409018647785
-0.006606039166953134 51.530428739032835 -30.315992831785724
-0.00486765230478973 52.006058416199174 -30.555591794474054
-0.003547691826415294 52.44896640860479 -30.76971424409649
-0.0025977711331711486 52.85669862605628 -30.962610789554386
-0.001938974799320156 53.2281720688592 -31.136157241343078
-0.0014883348561890108 53.563731076291354 -31.2897571863384
-0.0011794444211239365 53.86373357551762 -31.422790676505343
-0.0009663593930534462 54.12770205598551 -31.53608478438198
-0.0008164597512981341 54.35493993156412 -31.630846032538894

CELLS 100 350
4 0 51 52 1
4 1 52 53 2
4 2 53 54 3
4 3 54 55 4
4 4 55 56 5
4 5 56 57 6
4 6 57 58 7
4 7 58 59 8
4 8 59 60 9
4 9 60 61 10
4 10 61 62 11
4 11 62 63 12
4 12 63 64 13
4 13 64 65 14
4 14 65 66 15
4 15 66 67 16
4 16 67 68 17
4 17 68 69 18
4 18 69 70 19
4 19 70 71 20
4 20 71 72 21
4 21 72 73 22
4 22 73 74 23
4 23 74 75 24
4 24 75 76 25
4 25 76 77 26
4 26 77 78 27
4 27 78 79 28
4 28 79 80 29
4 29 80 81 30
4 30 81 82 31
4 31 82 83 32
4 32 83 84 33
4 33 84 85 34
4 34 85 86 35
4 35 86 87 36
4 36 87 88 37
4 37 88 89 38
4 38 89 90 39
4 39 90 91 40
4 40 91 92 41
4 41 92 93 42
4 42 93 94 43
4 43 94 95 44
4 44 95 96 45
4 45 96 97 46
4 46 97 98 47
4 47 98 99 48
4 48 99 100 49
4 49 100 101 50
1 102
1 103
1 104
1 105
1 106
1 107
1 108
1 109
1 110
1 111
1 112
1 113
1 114
1 115
1 116
1 117
1 118
1 119
1 120
1 121
1 122
1 123
1 124
1 125
1 126
1 127
1 128
1 129
1 130
1 131
1 132
1 133
1 134
1 135
1 136
1 137
1 138
1 139
1 140
1 141
1 142
1 143
1 144
1 145
1 146
1 147
1 148
1 149
1 150
1 151

CELL_TYPES 100
7
7
7
7
7
7
7
7
7
7
7
7
7
7
7
7
7
7
7
7
7
7
7
7
7
7
7
7
7
7
7
7
7
7
7
7
7
7
7
7
7
7
7
7
7
7
7
7
7
7
7
7
7
7
7
7
7
7
7
7
7
7
7
7
7
7
7
7
7
7
7
7
7
7
7
7
7
7
7
7
7
7
7
7
7
7
7
7
7
7
7
7
7
7
7
7
7
7
7
7

POINT_DATA 152

VECTORS centroid-point-cyl-mean float
2.3207721065396236 1.50030138462859e-18 0.0
4.158286906814507 1.950391800017167e-17 0.0
6.241554251945198 2.175437007711456e-17 0.0
8.34585673605095 -4.50090415388577e-17 0.0
10.43325258653283 -6.751356230828655e-17 0.0
12.484861575413696 -4.800964430811488e-17 0.0
14.4926073214345 1.5753164538600193e-16 0.0
16.455769543583493 1.3202652184731592e-16 0.0
18.381501062198254 2.400482215405744e-17 0.0
20.270896167931713 1.4402893292434464e-16 0.0
22.122621338323633 -1.9803978277097387e-16 0.0
23.935775890090362 6.00120553851436e-17 0.0
25.709741042930276 1.800361661554308e-16 0.0
27.443864385112242 3.600723323108616e-17 0.0
29.13805934883479 -1.8603737169394515e-16 0.0
30.79241599215639 -7.801567200068668e-17 0.0
32.40674728759505 -1.9803978277097387e-16 0.0
33.980805112625696 2.400482215405744e-17 0.0
35.514414560644106 1.9803978277097387e-16 0.0
37.00747810356652 3.060614824642323e-16 0.0
38.45991705943707 1.2602531630880155e-16 0.0
39.87166726296922 -4.440892098500626e-16 0.0
41.24267587685609 -3.4806992123383286e-16 0.0
42.57289900820032 5.161036763122349e-16 0.0
43.862299902662556 1.0802169969325848e-16 0.0
45.110847559444174 2.1604339938651696e-16 0.0
46.318515657069895 -2.100421938480026e-16 0.0
47.48528171161981 2.880578658486893e-16 0.0
48.61112641929677 1.9203857723245952e-16 0.0
49.69603321793444 -3.00060276925718e-16 0.0
50.7399876539426 -1.0802169969325848e-16 0.0
51.742977103498305 -3.3606751015680416e-16 0.0
52.70499053189314 1.2602531630880155e-16 0.0
53.6260182603576 0.0 0.0
54.50605177338456 3.8407715446491904e-16 0.0
55.345083558636354 0.0 0.0
56.143098406752934 6.00120553851436e-18 0.0
56.900065008724916 -1.9203857723245952e-16 0.0
57.61594273073642 -2.400482215405744e-16 0.0
58.29071474726175 1.9803978277097387e-16 0.0
58.92439688013765 -2.400482215405744e-16 0.0
59.51698788389332 -6.18124170466979e-16 0.0
60.06830356510704 -9.301868584697257e-17 0.0
60.5783906832501 -9.901989138548693e-17 0.0
61.047418510259625 2.0104038554023102e-16 0.0
61.47547876279666 -9.601928861622976e-16 0.0
61.86258340419909 -4.800964430811488e-17 0.0
62.20870854208386 2.880578658486893e-16 0.0
62.51386112683015 -1.50030138462859e-16 0.0
62.77805196003566 -2.400482215405744e-16 0.0
63.001279818159894 -1.9203857723245952e-16 0.0
2.2491479668297263 -2.62552742310003e-18 0.8152906147965383
4.116583853662698 -3.00060276925718e-18 0.8405085085767725
6.209623089401239 -4.050813738497193e-17 0.8937965186568915
8.318727154321971 -1.50030138462859e-17 0.9506477078523395
10.408764362764455 8.85177816930868e-17 1.0206818772102288
12.463212632040513 -7.201446646217232e-17 1.0489549774017275
14.475710998859203 -1.350271246165731e-17 0.9930987765444168
16.443347115961878 -9.601928861622976e-17 0.9074282632528681
18.37211222876833 -6.601326092365796e-17 0.8389431825973012
20.263430365321064 1.0202049415474412e-16 0.7804380392479483
22.11668435467062 9.00180830777154e-17 0.7250391551380657
23.93108217188855 8.401687753920104e-17 0.671600532017048
25.706046768040736 1.0802169969325848e-16 0.6190912009117754
27.440967823120594 6.00120553851436e-18 0.5668551203523576
29.13578814585295 1.200241107702872e-17 0.5160737545272159
30.790638268833966 1.50030138462859e-16 0.46824322159258047
32.40535662526961 -2.820566603101749e-16 0.4244759216876317
33.97971649412375 -1.800361661554308e-17 0.3845740908079094
35.513563226177354 4.200843876960052e-17 0.3477110964546936
37.00681610143304 3.00060276925718e-17 0.31305686768836216
38.45940607604917 -2.4604942707908875e-16 0.28047282351476527
39.871275138246325 8.401687753920104e-17 0.2502817247970059
41.24237613227819 7.201446646217232e-17 0.222699671792449
42.57267088545224 -4.800964430811488e-17 0.19756508903558773
43.86212604116339 -5.401084984662924e-17 0.17527331282135347
45.11071370721197 1.200241107702872e-16 0.1561895288733837
46.31841132424619 2.3404701600206e-16 0.139967994939702
47.4851998819752 -1.800361661554308e-17 0.12575834684109707
48.611062717728295 -6.601326092365796e-17 0.1125203655122444
49.69598397651428 -7.201446646217232e-17 0.10008619772204906
50.739949751238996 6.00120553851436e-17 0.08845640514296735
51.74294793903344 -5.581121150818355e-16 0.07764813403823377
52.704967963662874 -4.860976486196631e-16 0.06766754153321132
53.6260005684737 -3.720747433878903e-16 0.05846867713071127
54.50603758566163 2.880578658486893e-16 0.05000632361003566
55.34507178502045 -6.00120553851436e-18 0.0422455662862189
56.14309045749539 -3.9007836000343344e-16 0.03513713503927796
56.90006911969544 6.18124170466979e-16 0.02861025434189232
57.61594737488637 1.0202049415474412e-16 0.02259956362415258
58.29070038030066 1.1402290523177283e-16 0.017476911002663232
58.92438539493185 4.800964430811488e-17 0.013355710955940852
59.517002464742816 -7.201446646217232e-17 0.01011076208477279
60.068321539743465 -3.3306690738754696e-16 0.007505342360435571
60.5783872667551 3.00060276925718e-18 0.005475063785670372
61.04740151053322 4.350874015422911e-16 0.00398544775143708
61.475467535053795 7.201446646217232e-16 0.0029419419370193224
61.862587591449135 9.601928861622976e-17 0.002228657527834429
62.2087200795883 3.8407715446491904e-16 0.0017402354220029325
62.51387119537003 5.371078956970352e-16 0.0014049497009942311
62.778056636561125 3.8407715446491904e-16 0.0011720086804816246
63.001278330339574 -2.4604942707908875e-16 0.0010052173229800666
2.745675269659771 1.1252260384714419e-17 0.6209246712649911
4.910961231687345 2.705230934158426e-17 0.6503643852126235
7.0689712432885266 7.50150692314295e-18 0.6916665849409612
9.194745099133259 2.700542492331462e-17 0.739248594398462
11.282584640989857 -6.301265815440077e-17 0.7761138204794836
13.330006162004286 -2.400482215405744e-17 0.7657701577298041
15.335839605622029 4.200843876960052e-17 0.7126976399239818
17.30034821892207 4.800964430811488e-17 0.6548892921938139
19.224379340000485 -4.800964430811488e-17 0.6072679581919687
21.108078052174033 1.200241107702872e-17 0.5645539478947551
22.9513121727095 9.00180830777154e-17 0.5237398826831668
24.753919887475934 6.601326092365796e-17 0.484009399848309
26.515757121970985 -1.1102230246251565e-16 0.4447298704740503
28.236747385677415 3.120626880027467e-16 0.40609832807984025
29.9169047720936 -1.50030138462859e-17 0.36911886604492333
31.55622760480426 0.0 0.3347696787300796
33.15466974583389 -1.4102833015508744e-16 0.3033937546858278
34.71218631683398 2.4604942707908875e-16 0.2746069452234762
36.228750418032895 1.7403496061691643e-16 0.24778798655364595
37.70434494027871 4.110825793882337e-16 0.22257363420117296
39.13895497735855 -3.120626880027467e-16 0.1990329556169143
40.53256812923566 -1.200241107702872e-16 0.17736802372104576
41.88517444939412 -5.941193483129217e-16 0.15759928531051387
43.19676556075343 -1.8603737169394515e-16 0.1398144006963529
44.4673342190964 1.7103435784765925e-16 0.12429856563552641
45.69687455627761 5.701145261588641e-17 0.11105907142990722
46.88538183183209 2.1304279661725974e-16 0.09964737816779974
48.032851969677466 -1.2302471353954437e-16 0.08935451713250309
49.13928111080917 5.101024707737206e-17 0.07972746121286002
50.20466561693072 3.8407715446491904e-16 0.07070347607438117
51.22900230720945 -9.00180830777154e-17 0.062289202192950394
52.21228841104315 -2.880578658486893e-16 0.05449337833929196
53.15452150704928 2.4304882430983155e-16 0.04730108199897099
54.05569946743341 9.601928861622976e-17 0.040678125277780135
54.91582040866702 -3.8407715446491904e-16 0.03459445871109548
55.73488200233548 2.880578658486893e-16 0.029018512997061336
56.51288016220147 -4.50090415388577e-17 0.023905271017938847
57.24980335800585 -2.400482215405744e-16 0.01920368173726683
57.94563926524554 -1.4402893292434464e-16 0.01502867798505592
58.600394297172436 3.420687156953185e-16 0.011562233234476528
59.21407810456843 9.601928861622976e-17 0.008799927390267618
59.786658272606616 -1.8753767307857375e-16 0.006606039166953131
60.318109236776195 -3.8407715446491904e-16 0.004867652304789729
60.80846480543912 -3.420687156953185e-16 0.0035476918264152916
61.25776568363543 2.9105846861794643e-16 0.0025977711331711495
61.66602459661023 3.3606751015680416e-16 0.001938974799320156
62.03323457303584 -4.800964430811488e-17 0.0014883348561890101
62.35939038022931 -2.400482215405744e-16 0.0011794444211239363
62.64449515631265 -4.5759192231172e-17 0.0009663593930534463
62.88855154714678 1.4702953569360181e-16 0.0008164597512981336

VECTORS centroid-point-mean float
0.0 0.05903982363909821 0.021178893131747388
0.0 0.11211698743087563 -0.007773283343757417
0.0 0.1650840160012739 -0.03469589168377953
0.0 0.2171897671269126 -0.06088994838292487
0.0 0.2684275155615407 -0.08636710190939476
0.0 0.31830714746919053 -0.11197625432857447
0.0 0.36641025733797383 -0.13844210524522452
0.0 0.4126308275873964 -0.16594828249525542
0.0 0.45762298089938036 -0.19336181235919297
0.0 0.5016513477409644 -0.2202243414228987
0.0 0.5447134556962445 -0.24654015203633536
0.0 0.5868039473910486 -0.27231852344375596
0.0 0.6279172813596336 -0.29756905374538895
0.0 0.6680086460295908 -0.32236935886140783
0.0 0.7071077523513876 -0.3466679779160599
0.0 0.7452796711319711 -0.3703522049656245
0.0 0.7825340706538338 -0.3934052940535995
0.0 0.8188551389939752 -0.4158546322339974
0.0 0.8542314827287901 -0.4377199534953638
0.0 0.8886630984531738 -0.459001263735512
0.0 0.9221499828529658 -0.4796985686947519
0.0 0.9546921327049307 -0.49981187395587756
0.0 0.9862895448767812 -0.5193411849441785
0.0 1.016942216327152 -0.5382865069274283
0.0 1.0466501441056382 -0.5566478450159055
0.0 1.0754133253527596 -0.5744252041623727
0.0 1.1032317572999724 -0.5916185891620797
0.0 1.1301054372696737 -0.6082280046527846
0.0 1.1560343666893653 -0.6242534481619563
0.0 1.1810185982002177 -0.6396948285124312
0.0 1.2050581402625882 -0.6545521310504495
0.0 1.2281529821903292 -0.6688253742849334
0.0 1.250303113717282 -0.6825145759974204
0.0 1.271508524997254 -0.6956197532420021
0.0 1.2917692066040363 -0.7081409223453429
0.0 1.311085149531406 -0.720078098906702
0.0 1.329450730356193 -0.7314410229806811
0.0 1.3468481137312551 -0.7422605862947467
0.0 1.3632500053827044 -0.752584063918017
0.0 1.3786421660091712 -0.7624361190439143
0.0 1.3930327427396176 -0.7718026404311519
0.0 1.4064174988881861 -0.7806909662348918
0.0 1.4186358622746436 -0.7893792156295575
0.0 1.4296914312249007 -0.7978611561318891
0.0 1.4397054031749286 -0.8059268676250113
0.0 1.4487604285822266 -0.8134331953172617
0.0 1.4568775835921293 -0.8203436342540954
0.0 1.4640371187560233 -0.8266923914839559
0.0 1.470256690281416 -0.8324488855583473
0.0 1.4755710862326035 -0.8375528617824021
0.0 1.4800104216503285 -0.8419521593755324
-0.8152906147965383 0.012461736810148493 -0.05949671977535322
-0.8405085085767725 0.06410284595426476 -0.09093621586305244
-0.8937965186568915 0.11401111109799979 -0.1231567578663889
-0.9506477078523395 0.16284636903827493 -0.15501547492839454
-1.0206818772102288 0.21062223722641205 -0.18648878093150514
-1.0489549774017275 0.2577567503777732 -0.2168526185093836
-0.9930987765444168 0.30454428365250646 -0.24559711492817995
-0.9074282632528681 0.3512466668160013 -0.27226876773129305
-0.8389431825973012 0.3973125871884554 -0.2978224784910033
-0.7804380392479483 0.44247949207445963 -0.3227130018154203
-0.7250391551380657 0.4866934338025275 -0.3470337778125137
-0.671600532017048 0.5299584928207782 -0.37077773893882315
-0.6190912009117754 0.5722844933975236 -0.3939278690624777
-0.5668551203523576 0.6137191333376325 -0.4164015531620405
-0.5160737545272159 0.654234269690677 -0.438247536257529
-0.46824322159258047 0.6937623219626738 -0.4595828711981197
-0.4244759216876317 0.7322936267910408 -0.4804242954187764
-0.3845740908079094 0.769843905030611 -0.5007445796002012
-0.3477110964546936 0.8064233153855301 -0.5205261283506525
-0.31305686768836216 0.8420301792362799 -0.5397718491244389
-0.28047282351476527 0.8766639357498845 -0.5584827133127646
-0.2502817247970059 0.9103245488944917 -0.5766587833246316
-0.222699671792449 0.9430117591673285 -0.5943005086320212
-0.19756508903558773 0.9747249165322502 -0.6114090151305688
-0.17527331282135347 1.0054638719155964 -0.6279845610234295
-0.1561895288733837 1.035228361401902 -0.6440276034255884
-0.139967994939702 1.0640176151718845 -0.6595394757031672
-0.12575834684109707 1.0918307005851369 -0.6745217932367263
-0.1125203655122444 1.118666794003958 -0.6889759826086103
-0.10008619772204906 1.14452576251549 -0.7029022740306455
-0.08845640514296735 1.1694075461692994 -0.716300771340036
-0.07764813403823377 1.193312075044625 -0.7291715956430878
-0.06766754153321132 1.2162392714108172 -0.7415148815732268
-0.05846867713071127 1.2381890398091904 -0.7533307944697641
-0.05000632361003566 1.2591612931680796 -0.7646194851452285
-0.0422455662862189 1.2791559547512679 -0.7753810865106548
-0.03513713503927796 1.2981770845280864 -0.785608566492882
-0.02861025434189232 1.3162377898509618 -0.7952792224915631
-0.02259956362415258 1.3333786489252109 -0.8043227709933962
-0.017476911002663232 1.3496206701409674 -0.8127028243992944
-0.013355710955940852 1.3649258587169864 -0.8204851916007987
-0.01011076208477279 1.3792952727309766 -0.8276680399535505
-0.007505342360435571 1.3929250475323984 -0.8339116530671268
-0.005475063785670372 1.4058169116577595 -0.8392130370284853
-0.00398544775143708 1.417823163982261 -0.8438280176900839
-0.0029419419370193224 1.4288466849675843 -0.8479248110267192
-0.002228657527834429 1.4388719645857428 -0.8515302811948815
-0.0017402354220029325 1.447938887877737 -0.8545753452771181
-0.0014049497009942311 1.4560340641020217 -0.8570831967181133
-0.0011720086804816246 1.463118987401242 -0.859120529619195
-0.0010052173229800666 1.4691603248585914 -0.8607450782858589
-0.6209246712649911 0.05010631992040151 -0.0547366496409034
-0.6503643852126235 0.10144285932361768 -0.08559351202698301
-0.6916665849409612 0.1516057779421257 -0.11626281730638177
-0.739248594398462 0.2007528876853134 -0.14647122723400227
-0.7761138204794836 0.24898395323041062 -0.17604594432007864
-0.7657701577298041 0.2964525633622505 -0.20472094498581125
-0.7126976399239818 0.3433017420413626 -0.23224850446486284
-0.6548892921938139 0.3894914463125184 -0.2586979791901686
-0.6072679581919687 0.4348313208036364 -0.28439907433767014
-0.5645539478947551 0.47923544763352305 -0.3095006040428794
-0.5237398826831668 0.5226841478696522 -0.3340366532167624
-0.484009399848309 0.5651812734256965 -0.35800055014913157
-0.4447298704740503 0.6067421009493377 -0.3813658349100409
-0.40609832807984025 0.6473720759332405 -0.40412307562951977
-0.36911886604492333 0.6870471498054264 -0.42631392565608056
-0.3347696787300796 0.7257476985058697 -0.44797237485874125
-0.3033937546858278 0.763475225639095 -0.4690958189180689
-0.2746069452234762 0.8002360353713964 -0.48967333869774016
-0.24778798655364595 0.8360318831309221 -0.5097018937070206
-0.22257363420117296 0.8708619282830781 -0.529182939967737
-0.1990329556169143 0.9047259461863764 -0.5481168665703527
-0.17736802372104576 0.9376238252208964 -0.5665038668462534
-0.15759928531051387 0.9695552235378335 -0.584344532894924
-0.1398144006963529 1.0005198407220413 -0.6016393850506687
-0.12429856563552641 1.030517521176362 -0.6183886928156628
-0.11105907142990722 1.0595478765467625 -0.6345931288388398
-0.09964737816779974 1.0876102677300872 -0.6502538000793145
-0.08935451713250309 1.1147040359657896 -0.6653718475438412
-0.07972746121286002 1.140828829305992 -0.6799478808240199
-0.07070347607438117 1.1659845830646467 -0.6939820119593693
-0.062289202192950394 1.1901712482618354 -0.707474325785597
-0.05449337833929196 1.2133887669092414 -0.7204249227414087
-0.04730108199897099 1.2356370715468208 -0.7328339196710538
-0.040678125277780135 1.2569160913166357 -0.7447014393040398
-0.03459445871109548 1.2772257624866852 -0.7560275920274637
-0.029018512997061336 1.2965668747157126 -0.7668110101122484
-0.023905271017938847 1.314942933403076 -0.7770456220285992
-0.01920368173726683 1.3323684294303106 -0.7867063288334579
-0.01502867798505592 1.348861266073806 -0.7957621211425033
-0.011562233234476528 1.364414311915333 -0.8042253509344175
-0.008799927390267618 1.3790142044964637 -0.8121191626661363
-0.006606039166953131 1.3927142902441232 -0.8193511576158062
-0.004867652304789729 1.4055691463837499 -0.8258268052560336
-0.0035476918264152916 1.4175396326649812 -0.8316138984890692
-0.0025977711331711495 1.4285594223258364 -0.8368273186365888
-0.001938974799320156 1.4385992451042935 -0.8415177632795224
-0.0014883348561890101 1.4476684074673243 -0.8456691131442569
-0.0011794444211239363 1.4557765831220888 -0.8492646128784966
-0.0009663593930534463 1.4629108663779782 -0.8523266157940884
-0.0008164597512981336 1.4690524305828057 -0.8548877306091388

VECTORS centroid-point-cyl-variance float
1.288e-29 9.999999999999999e-33 0.0
2.953e-29 1.9999999999999998e-32 0.0
4.298e-29 3.9999999999999997e-32 0.0
5.875999999999999e-29 6.0e-32 0.0
1.5649e-28 1.4e-31 0.0
1.8975e-28 1.6999999999999998e-31 0.0
1.7405999999999999e-28 1.9999999999999997e-31 0.0
2.3059999999999997e-28 2.4e-31 0.0
3.2167999999999996e-28 1.2e-31 0.0
4.2198e-28 4.1e-31 0.0
3.5784e-28 3.3999999999999997e-31 0.0
4.5643e-28 3.9999999999999995e-31 0.0
5.0213999999999995e-28 5.5e-31 0.0
6.085699999999999e-28 8.8e-31 0.0
8.17e-28 9.499999999999999e-31 0.0
8.3474e-28 1.07e-30 0.0
8.1598e-28 9.299999999999999e-31 0.0
8.5009e-28 7.299999999999999e-31 0.0
1.4190999999999999e-27 1.5e-30 0.0
1.82026e-27 1.42e-30 0.0
1.4873199999999999e-27 1.2e-30 0.0
1.24171e-27 2.04e-30 0.0
1.5023299999999999e-27 1.67e-30 0.0
1.6756299999999998e-27 1.53e-30 0.0
1.80935e-27 2.8299999999999997e-30 0.0
1.87485e-27 1.77e-30 0.0
1.56919e-27 1.4299999999999999e-30 0.0
1.69336e-27 1.58e-30 0.0
1.7206499999999998e-27 1.1599999999999999e-30 0.0
1.87894e-27 2.07e-30 0.0
1.89395e-27 2.3599999999999998e-30 0.0
2.27465e-27 3.0e-30 0.0
2.2910199999999998e-27 3.2499999999999996e-30 0.0
1.9253299999999998e-27 2.73e-30 0.0
2.11773e-27 2.4099999999999998e-30 0.0
2.21188e-27 2.0499999999999998e-30 0.0
2.5352699999999998e-27 3.58e-30 0.0
2.5407299999999997e-27 4.91e-30 0.0
3.66782e-27 2.59e-30 0.0
2.51753e-27 4.23e-30 0.0
2.35243e-27 3.44e-30 0.0
2.55301e-27 4.31e-30 0.0
2.6376099999999998e-27 2.89e-30 0.0
3.46724e-27 2.38e-30 0.0
2.8627499999999998e-27 4.5699999999999995e-30 0.0
4.3596299999999994e-27 2.6599999999999998e-30 0.0
2.77543e-27 2.8099999999999998e-30 0.0
2.83137e-27 4.35e-30 0.0
3.49453e-27 3.1299999999999997e-30 0.0
2.67445e-27 3.44e-30 0.0
3.67874e-27 2.5199999999999997e-30 0.0
5.63e-30 0.0 0.0
1.2219999999999999e-29 9.999999999999999e-33 1.9999999999999997e-31
2.36e-29 4.999999999999999e-32 4.999999999999999e-32
4.298e-29 7.0e-32 1.9999999999999997e-31
6.635e-29 7.0e-32 7.9e-31
1.1607e-28 1.3e-31 1.9999999999999997e-31
1.2647e-28 1.2e-31 0.0
1.7329e-28 1.9e-31 4.4e-31
2.4357e-28 2.6999999999999997e-31 9.999999999999999e-33
2.671e-28 6.0e-31 4.4e-31
2.9404999999999997e-28 5.799999999999999e-31 1.1e-31
3.8923e-28 4.4999999999999995e-31 4.999999999999999e-32
3.9673e-28 7.699999999999999e-31 1.1e-31
5.9322e-28 6.3999999999999995e-31 0.0
6.055e-28 5.2e-31 3.1e-31
8.596499999999999e-28 8.6e-31 4.999999999999999e-32
1.05477e-27 8.6e-31 1.1e-31
1.29083e-27 1.64e-30 0.0
9.4834e-28 1.9599999999999997e-30 4.999999999999999e-32
1.46958e-27 1.47e-30 9.999999999999999e-33
1.3754299999999999e-27 6.7e-31 0.0
1.4436599999999998e-27 1.8099999999999997e-30 3.0e-32
1.55418e-27 1.3e-30 0.0
1.1775799999999999e-27 1.66e-30 9.999999999999999e-33
1.26354e-27 1.83e-30 0.0
1.59648e-27 1.1799999999999999e-30 0.0
1.70837e-27 2.4199999999999997e-30 0.0
1.8025299999999998e-27 2.39e-30 0.0
1.56646e-27 1.94e-30 0.0
2.1109099999999997e-27 2.9199999999999998e-30 0.0
1.76841e-27 1.92e-30 0.0
2.01948e-27 3.42e-30 0.0
1.93898e-27 4.58e-30 0.0
2.45613e-27 2.7599999999999998e-30 0.0
1.92397e-27 2.99e-30 0.0
2.1068099999999997e-27 2.5599999999999998e-30 0.0
2.80817e-27 3.09e-30 0.0
2.1941399999999998e-27 2.7699999999999997e-30 0.0
2.5257199999999998e-27 3.74e-30 0.0
2.8381899999999998e-27 3.06e-30 0.0
2.21461e-27 3.84e-30 0.0
2.8340999999999997e-27 2.22e-30 0.0
3.31577e-27 3.73e-30 0.0
3.06607e-27 3.9199999999999995e-30 0.0
3.1015499999999997e-27 3.14e-30 0.0
2.5898499999999997e-27 2.4699999999999997e-30 0.0
2.57621e-27 3.57e-30 0.0
2.7890699999999998e-27 2.24e-30 0.0
4.25456e-27 3.5499999999999996e-30 0.0
3.16295e-27 2.4099999999999998e-30 0.0
3.89706e-27 3.78e-30 0.0
4.8199999999999996e-30 9.999999999999999e-33 3.1e-31
1.612e-29 9.999999999999999e-33 3.1e-31
3.782e-29 4.999999999999999e-32 4.999999999999999e-32
8.324e-29 1.1e-31 4.4e-31
9.192999999999999e-29 1.5999999999999999e-31 3.1e-31