# vtk DataFile Version 4.0
 
ASCII
DATASET UNSTRUCTURED_GRID
POINTS 152 float
0.0 2.184473474646655 0.7836190458745892
0.0 4.14832853494241 -0.2876114837191115
0.0 6.108108592047144 -1.283747992299961
0.0 8.036021383695777 -2.25292809016836
0.0 9.931818075776992 -3.1955827706477633
0.0 11.777364456360067 -4.143121410157404
0.0 13.557179521505027 -5.122357894073491
0.0 15.267340620733643 -6.140086452324661
0.0 16.932050293277065 -7.1543870572903705
0.0 18.5610998664157 -8.148300632647434
0.0 20.154397860760987 -9.121985625344655
0.0 21.71174605346879 -10.075785367419329
0.0 23.232939410306468 -11.010054988579665
0.0 24.71631990309484 -11.927666277872403
0.0 26.162986837001306 -12.826715182894553
0.0 27.575347831882837 -13.703031583728556
0.0 28.953760614191797 -14.555995879983689
0.0 30.29764014277702 -15.386621392658313
0.0 31.606564860965193 -16.195638279328854
0.0 32.88053464276747 -16.9830467582144
0.0 34.119549365559685 -17.74884704170624
0.0 35.32360891008235 -18.493039336367865
0.0 36.49271316044068 -19.215623842934928
0.0 37.626862004104574 -19.916600756315287
0.0 38.726055331908604 -20.595970265588996
0.0 39.79029303805205 -21.253732554008295
0.0 40.81957502009887 -21.889887798997606
0.0 41.8139011789777 -22.504436172153554
0.0 42.77327156750647 -23.097377581992852
0.0 43.697688133407915 -23.668708654960696
0.0 44.58715118971559 -24.21842884886708
0.0 45.4416603410421 -24.746538848543093
0.0 46.26121520753927 -25.25303931190505
0.0 47.04581542489818 -25.73793086995451
0.0 47.79546064434915 -26.201214126778297
0.0 48.510150532661726 -26.642889659548437
0.0 49.18967702317907 -27.063317850285998
0.0 49.83338020805643 -27.46364169290636
0.0 50.44025019915997 -27.845610364967325
0.0 51.00976014233927 -28.210136404625583
0.0 51.542211481365776 -28.556697695953346
0.0 52.037447458862786 -28.885565750691544
0.0 52.4895269041618 -29.20703097829445
0.0 52.898582955321224 -29.520862776880463
0.0 53.26909991747209 -29.819294102126012
0.0 53.60413585754221 -30.097028226739212
0.0 53.90447059290865 -30.352714467402315
0.0 54.16937339397264 -30.587618484907
0.0 54.399497540412256 -30.800608765659284
0.0 54.59613019060635 -30.98945588594962
0.0 54.76038560106199 -31.1522298968951
-0.8152906147965383 0.46108426197546315 -2.2013786316880464
-0.840508508576773 2.3718053003077557 -3.364639986932945
-0.8937965186568912 4.218411110625956 -4.55680004105641
-0.9506477078523391 6.025315654416086 -5.735572572350625
-1.020681877210228 7.793022777377169 -6.900084894465705
-1.048954977401727 9.536999763977587 -8.023546884847287
-0.9930987765444168 11.268138495142631 -9.087093252342784
-0.9074282632528687 12.996126672191975 -10.073944406057961
-0.838943182597301 14.700565725972773 -11.019431704167268
-0.780438039247949 16.371741206754994 -11.94038106717068
-0.7250391551380654 18.007657050693464 -12.840249779063182
-0.6716005320170477 19.608464234368682 -13.718776340736618
-0.6190912009117757 21.174526255708294 -14.575331155311844
-0.5668551203523576 22.707607933492334 -15.406857466995698
-0.5160737545272154 24.206667978554965 -16.215158841528776
-0.46824322159258064 25.66920591261887 -17.004566234330607
-0.4244759216876314 27.094864191268393 -17.775698930495075
-0.3845740908079094 28.484224486132383 -18.527549445207704
-0.34771109645469384 29.83766266926447 -19.259466748974457
-0.3130568676883623 31.15511663174219 -19.971558417604637
-0.28047282351476527 32.43656562274561 -20.66386039257266
-0.25028172479700606 33.68200830909604 -21.336374983011755
-0.22269967179244904 34.891435089191035 -21.989118819385222
-0.19756508903558764 36.06482191169314 -22.62213355983149
-0.17527331282135344 37.2021632608769 -23.235428757867265
-0.15618952887338375 38.30344937187027 -23.829021326747117
-0.13996799493970205 39.368651761359494 -24.402960601017604
-0.12575834684109707 40.397735921649904 -24.957306349759165
-0.11252036551224441 41.390671378146294 -25.492111356519032
-0.10008619772204906 42.34745321307306 -26.007384139134388
-0.0884564051429673 43.268079208263956 -26.50312853958187
-0.07764813403823374 44.15254677665099 -26.979349038794716
-0.06766754153321136 45.000853042200106 -27.43605061821002
-0.05846867713071129 45.812994472939934 -27.87323939538163
-0.05000632361003568 46.58896784721878 -28.29092095037398
-0.0422455662862189 47.32877032579684 -28.689100200894654
-0.03513713503927796 48.03255212753908 -29.067516960237313
-0.028610254341892315 48.700798224485496 -29.425331232188366
-0.02259956362415257 49.33501001023277 -29.75994252675627
-0.017476911002663225 49.93596479521584 -30.070004502774424
-0.013355710955940858 50.50225677252842 -30.35795208923015
-0.010110762084772787 51.03392509104611 -30.623717478281854
-0.007505342360435571 51.538226758698656 -30.854731163484278
-0.005475063785670375 52.015225731336834 -31.050882370054424
-0.003985447751437076 52.45945706734352 -31.221636654533576
-0.0029419419370193198 52.86732734380046 -31.373218007989237
-0.00222865752783443 53.238262689672474 -31.506620404211308
-0.0017402354220029323 53.573738851476044 -31.619287775254165
-0.0014049497009942318 53.87326037177464 -31.71207827857084
-0.0011720086804816246 54.13540253384582 -31.787459595911
-0.0010052173229800666 54.358932019767686 -31.84756789657733
-0.6209246712649916 1.8539338370548402 -2.0252560367134373
-0.6503643852126241 3.7533857949738363 -3.1669599449983927
-0.6916665849409614 5.609413783858631 -4.301724240336178
-0.7392485943984627 7.427856844356567 -5.419435407658139
-0.7761138204794831 9.212406269525166 -6.5136999398430175
-0.765770157729804 10.968744844403219 -7.574674964475138
-0.7126976399239822 12.70216445553031 -8.593194665200048
-0.6548892921938138 14.411183513563122 -9.571825230036339
-0.6072679581919687 16.088758869734505 -10.522765750493955
-0.5645539478947554 17.731711562440257 -11.451522349586709
-0.5237398826831674 19.339313471177025 -12.359356169020423
-0.4840093998483088 20.911707116750772 -13.246020355518047
-0.44472987047405005 22.449457735125396 -14.110535891671837
-0.40609832807983987 23.952766809529756 -14.952553798292548
-0.3691188660449235 25.420744542800705 -15.773615249275156
-0.33476967873007946 26.852664844717047 -16.57497786977366
-0.3033937546858278 28.248583348646395 -17.356545299968793
-0.27460694522347623 29.6087333087416 -18.117913531816704
-0.24778798655364606 30.93317967584408 -18.858970067160065
-0.22257363420117282 32.22189134647382 -19.579768778806567
-0.19903295561691423 33.474860008895874 -20.28032406310342
-0.17736802372104568 34.69208153317303 -20.96064307331171
-0.15759928531051376 35.87354327089972 -21.620747717112543
-0.1398144006963529 37.01923410671541 -22.26065724687507
-0.12429856563552642 38.12914828352527 -22.880381634180058
-0.11105907142990716 39.20327143223003 -23.47994576703751
-0.09964737816779967 40.241579906013094 -24.059390602935185
-0.08935451713250306 41.24404933073409 -24.618758359122623
-0.07972746121286005 42.210666684321545 -25.15807159048922
-0.07070347607438114 43.14142957339182 -25.67733444249707
-0.062289202192950394 44.036336185687816 -26.17655005406749
-0.054493378339291916 44.89538437564183 -26.655722141432793
-0.047301081998971 45.71857164723219 -27.11485502782931
-0.040678125277780114 46.50589537871544 -27.55395325424995
-0.03459445871109547 47.25735321200722 -27.97302090501658
-0.029018512997061326 47.97297436448107 -28.372007374153792
-0.023905271017938854 48.65288853591365 -28.75068801505867
-0.01920368173726683 49.2976318889214 -29.108134166838443
-0.015028677985055923 49.907866844730634 -29.443198482273118
-0.01156223323447653 50.483329540867224 -29.75633798457408
-0.008799927390267616 51.02352556636902 -30.048409018647614
-0.006606039166953134 51.53042873903236 -30.315992831785543
-0.00486765230478973 52.00605841619868 -30.555591794473877
-0.003547691826415294 52.448966408604306 -30.769714244096313
-0.0025977711331711486 52.85669862605579 -30.96261078955421
-0.001938974799320156 53.22817206885871 -31.1361572413429
-0.0014883348561890108 53.56373107629086 -31.28975718633822
-0.0011794444211239365 53.86373357551711 -31.42279067650516
-0.0009663593930534462 54.12770205598499 -31.536084784381796
-0.0008164597512981341 54.35493993156361 -31.630846032538713

CELLS 100 350
4 0 51 52 1
4 1 52 53 2
4 2 53 54 3
4 3 54 55 4
4 4 55 56 5
4 5 56 57 6
4 6 57 58 7
4 7 58 59 8
4 8 59 60 9
4 9 60 61 10
4 10 61 62 11
4 11 62 63 12
4 12 63 64 13
4 13 64 65 14
4 14 65 66 15
4 15 66 67 16
4 16 67 68 17
4 17 68 69 18
4 18 69 70 19
4 19 70 71 20
4 20 71 72 21
4 21 72 73 22
4 22 73 74 23
4 23 74 75 24
4 24 75 76 25
4 25 76 77 26
4 26 77 78 27
4 27 78 79 28
4 28 79 80 29
4 29 80 81 30
4 30 81 82 31
4 31 82 83 32
4 32 83 84 33
4 33 84 85 34
4 34 85 86 35
4 35 86 87 36
4 36 87 88 37
4 37 88 89 38
4 38 89 90 39
4 39 90 91 40
4 40 91 92 41
4 41 92 93 42
4 42 93 94 43
4 43 94 95 44
4 44 95 96 45
4 45 96 97 46
4 46 97 98 47
4 47 98 99 48
4 48 99 100 49
4 49 100 101 50
1 102
1 103
1 104
1 105
1 106
1 107
1 108
1 109
1 110
1 111
1 112
1 113
1 114
1 115
1 116
1 117
1 118
1 119
1 120
1 121
1 122
1 123
1 124
1 125
1 126
1 127
1 128
1 129
1 130
1 131
1 132
1 133
1 134
1 135
1 136
1 137
1 138
1 139
1 140
1 141
1 142
1 143
1 144
1 145
1 146
1 147
1 148
1 149
1 150
1 151

CELL_TYPES 100
7
7
7
7
7
7
7
7
7
7
7
7
7
7
7
7
7
7
7
7
7
7
7
7
7
7
7
7
7
7
7
7
7
7
7
7
7
7
7
7
7
7
7
7
7
7
7
7
7
7
7
7
7
7
7
7
7
7
7
7
7
7
7
7
7
7
7
7
7
7
7
7
7
7
7
7
7
7
7
7
7
7
7
7
7
7
7
7
7
7
7
7
7
7
7
7
7
7
7
7

POINT_DATA 152

VECTORS centroid-point-cyl-mean float
2.320772106539599 1.45341696635895e-18 0.0
4.158286906814466 1.50030138462859e-18 0.0
6.24155425194514 5.626130192357213e-17 0.0
8.345856736050873 -9.00180830777154e-18 0.0
10.433252586532728 -4.050813738497193e-17 0.0
12.484861575413586 -7.201446646217232e-17 0.0
14.49260732143437 -9.451898723160116e-17 0.0
16.45576954358335 1.0802169969325848e-16 0.0
18.381501062198076 6.301265815440077e-17 0.0
20.27089616793152 -1.200241107702872e-17 0.0
22.122621338323437 -4.200843876960052e-17 0.0
23.93577589009014 -1.200241107702872e-17 0.0
25.70974104293005 2.7605545477166054e-16 0.0
27.443864385112 -1.4402893292434464e-16 0.0
29.138059348834553 6.00120553851436e-18 0.0
30.7924159921561 -5.401084984662924e-17 0.0
32.406747287594754 -1.3202652184731592e-16 0.0
33.980805112625404 -3.4806992123383286e-16 0.0
35.51441456064377 1.200241107702872e-16 0.0
37.00747810356623 2.220446049250313e-16 0.0
38.45991705943677 -4.560916209270913e-16 0.0
39.8716672629689 -4.200843876960052e-17 0.0
41.24267587685571 1.800361661554308e-17 0.0
42.572899008199954 7.201446646217232e-17 0.0
43.86229990266219 -3.1806389354126107e-16 0.0
45.110847559443776 -1.8603737169394515e-16 0.0
46.31851565706947 3.1806389354126107e-16 0.0
47.48528171161939 8.401687753920104e-17 0.0
48.61112641929635 2.4604942707908875e-16 0.0
49.696033217934016 3.060614824642323e-16 0.0
50.73998765394215 -9.00180830777154e-17 0.0
51.74297710349783 3.600723323108616e-17 0.0
52.70499053189265 -1.620325495398877e-16 0.0
53.62601826035714 2.400482215405744e-16 0.0
54.506051773384065 -1.200241107702872e-17 0.0
55.34508355863586 2.400482215405744e-16 0.0
56.14309840675248 0.0 0.0
56.90006500872443 -4.740952375426344e-16 0.0
57.61594273073597 -4.200843876960052e-17 0.0
58.290714747261234 -3.3606751015680416e-16 0.0
58.92439688013711 3.240650990797754e-16 0.0
59.51698788389282 -6.721350203136083e-16 0.0
60.06830356510653 2.9105846861794643e-16 0.0
60.57839068324959 4.320867987730339e-16 0.0
61.04741851025912 -2.9105846861794643e-16 0.0
61.47547876279605 -9.601928861622976e-17 0.0
61.862583404198574 -3.390681129260613e-16 0.0
62.208708542083286 1.9203857723245952e-16 0.0
62.51386112682963 9.901989138548693e-17 0.0
62.77805196003514 1.4702953569360181e-16 0.0
63.00127981815941 -2.8955816723331783e-16 0.0
2.2491479668297103 -3.00060276925718e-18 0.8152906147965383
4.116583853662664 2.100421938480026e-17 0.8405085085767725
6.209623089401189 3.900783600034334e-17 0.8937965186568915
8.318727154321902 4.50090415388577e-17 0.9506477078523395
10.408764362764375 1.0202049415474412e-16 1.0206818772102288
12.463212632040415 -6.00120553851436e-17 1.0489549774017275
14.475710998859082 -1.50030138462859e-18 0.9930987765444168
16.44334711596174 -3.00060276925718e-18 0.9074282632528681
18.372112228768188 1.1402290523177283e-16 0.8389431825973012
20.263430365320904 2.400482215405744e-17 0.7804380392479483
22.116684354670422 0.0 0.7250391551380657
23.93108217188834 -6.00120553851436e-17 0.671600532017048
25.70604676804052 -9.601928861622976e-17 0.6190912009117754
27.440967823120364 4.0208077108046203e-16 0.5668551203523576
29.135788145852676 -1.2602531630880155e-16 0.5160737545272159
30.790638268833717 3.00060276925718e-16 0.46824322159258047
32.405356625269306 -1.6803375507840208e-16 0.4244759216876317
33.979716494123416 -8.401687753920104e-17 0.3845740908079094
35.51356322617708 8.401687753920104e-17 0.3477110964546936
37.00681610143269 1.9803978277097387e-16 0.31305686768836216
38.45940607604881 2.6405304369463184e-16 0.28047282351476527
39.87127513824597 -6.00120553851436e-17 0.2502817247970059
41.24237613227782 -4.200843876960052e-17 0.222699671792449
42.572670885451856 -3.600723323108616e-17 0.19756508903558773
43.86212604116304 -1.620325495398877e-16 0.17527331282135347
45.11071370721157 6.00120553851436e-17 0.1561895288733837
46.31841132424579 -1.4402893292434464e-16 0.139967994939702
47.48519988197479 3.120626880027467e-16 0.12575834684109707
48.611062717727876 2.880578658486893e-16 0.1125203655122444
49.695983976513844 -6.00120553851436e-17 0.10008619772204906
50.73994975123857 -1.800361661554308e-16 0.08845640514296735
51.742947939032966 -8.401687753920104e-17 0.07764813403823377
52.70496796366243 8.401687753920104e-17 0.06766754153321132
53.626000568473216 3.4806992123383286e-16 0.05846867713071127
54.50603758566113 4.740952375426344e-16 0.05000632361003566
55.34507178501996 -5.221048818507493e-16 0.0422455662862189
56.14309045749489 -3.4806992123383286e-16 0.03513713503927796
56.90006911969494 2.9405907138720363e-16 0.02861025434189232
57.61594737488583 1.9803978277097387e-16 0.02259956362415258
58.29070038030015 -3.8407715446491904e-16 0.017476911002663232
58.92438539493133 -3.600723323108616e-17 0.013355710955940852
59.51700246474235 4.800964430811488e-17 0.01011076208477279
60.068321539742946 0.0 0.007505342360435571
60.57838726675461 -9.00180830777154e-17 0.005475063785670372
61.04740151053266 -3.00060276925718e-18 0.00398544775143708
61.47546753505326 1.8903797446320232e-16 0.0029419419370193224
61.86258759144862 2.400482215405744e-16 0.002228657527834429
62.208720079587735 -3.3606751015680416e-16 0.0017402354220029325
62.51387119536942 -1.8903797446320232e-16 0.0014049497009942311
62.77805663656061 4.650934292348629e-17 0.0011720086804816246
63.00127833033895 -3.00060276925718e-18 0.0010052173229800666
2.745675269659747 3.00060276925718e-18 0.6209246712649911
4.910961231687306 6.048089956784e-18 0.6503643852126235
7.068971243288464 -3.300663046182898e-17 0.6916665849409612
9.194745099133186 9.00180830777154e-17 0.739248594398462
11.282584640989757 -4.800964430811488e-17 0.7761138204794836
13.33000616200418 -4.800964430811488e-17 0.7657701577298041
15.335839605621906 -1.200241107702872e-17 0.7126976399239818
17.300348218921904 -1.1402290523177283e-16 0.6548892921938139
19.22437934000031 -9.601928861622976e-17 0.6072679581919687
21.108078052173845 6.00120553851436e-17 0.5645539478947551
22.951312172709304 -1.800361661554308e-17 0.5237398826831668
24.753919887475718 7.201446646217232e-17 0.484009399848309
26.515757121970772 4.50090415388577e-17 0.4447298704740503
28.236747385677155 1.9203857723245952e-16 0.40609832807984025
29.916904772093318 4.800964430811488e-17 0.36911886604492333
31.556227604804004 7.201446646217232e-17 0.3347696787300796
33.15466974583364 1.200241107702872e-16 0.3033937546858278
34.71218631683369 -1.8603737169394515e-16 0.2746069452234762
36.22875041803263 4.2908619600377667e-16 0.24778798655364595
37.70434494027841 2.1604339938651696e-16 0.22257363420117296
39.138954977358225 -3.600723323108616e-16 0.1990329556169143
40.5325681292353 5.281060873892637e-16 0.17736802372104576
41.88517444939376 3.1806389354126107e-16 0.15759928531051387
43.196765560753036 2.4905002984834595e-16 0.1398144006963529
44.46733421909604 -1.6503315230914488e-16 0.12429856563552641
45.6968745562772 1.1702350800103e-16 0.11105907142990722
46.88538183183168 1.200241107702872e-16 0.09964737816779974
48.03285196967702 -4.800964430811488e-17 0.08935451713250309
49.139281110808746 -1.4102833015508744e-16 0.07972746121286002
50.20466561693029 -2.400482215405744e-17 0.07070347607438117
51.229002307209015 -2.370476187713172e-16 0.062289202192950394
52.21228841104272 -3.8407715446491904e-16 0.05449337833929196
53.15452150704879 5.101024707737206e-17 0.04730108199897099
54.05569946743293 1.9503918000171672e-16 0.040678125277780135
54.915820408666534 0.0 0.03459445871109548
55.73488200233501 -3.3306690738754696e-16 0.029018512997061336
56.51288016220095 1.0202049415474412e-16 0.023905271017938847
57.24980335800533 -9.601928861622976e-17 0.01920368173726683
57.94563926524503 -2.400482215405744e-16 0.01502867798505592
58.60039429717192 -8.701748030845821e-17 0.011562233234476528
59.21407810456794 5.221048818507493e-16 0.008799927390267618
59.78665827260608 -3.3306690738754696e-16 0.006606039166953131
60.318109236775655 0.0 0.004867652304789729
60.808464805438526 4.50090415388577e-17 0.0035476918264152916
61.257765683634915 9.901989138548693e-17 0.0025977711331711495
61.66602459660972 4.3358710015766247e-16 0.001938974799320156
62.033234573035344 4.950994569274347e-17 0.0014883348561890101
62.35939038022869 4.815967444657774e-16 0.0011794444211239363
62.64449515631215 4.950994569274347e-17 0.0009663593930534463
62.88855154714627 -1.4102833015508744e-16 0.0008164597512981336

VECTORS centroid-point-mean float
0.0 0.059039823639098425 0.021178893131746812
0.0 0.11211698743087539 -0.007773283343756384
0.0 0.1650840160012743 -0.03469589168377725
0.0 0.2171897671269125 -0.0608899483829212
0.0 0.26842751556154015 -0.08636710190938952
0.0 0.31830714746919053 -0.11197625432856861
0.0 0.36641025733797294 -0.13844210524521625
0.0 0.41263082758739716 -0.16594828249524457
0.0 0.4576229808993798 -0.19336181235918043
0.0 0.5016513477409664 -0.2202243414228852
0.0 0.5447134556962429 -0.24654015203632199
0.0 0.5868039473910492 -0.272318523443745
0.0 0.6279172813596336 -0.29756905374537274
0.0 0.6680086460295912 -0.3223693588613898
0.0 0.7071077523513859 -0.3466679779160402
0.0 0.7452796711319701 -0.3703522049656082
0.0 0.7825340706538337 -0.3934052940535817
0.0 0.8188551389939766 -0.4158546322339764
0.0 0.8542314827287905 -0.4377199534953422
0.0 0.8886630984531753 -0.45900126373548744
0.0 0.9221499828529661 -0.4796985686947291
0.0 0.9546921327049283 -0.49981187395584853
0.0 0.9862895448767749 -0.5193411849441452
0.0 1.0169422163271526 -0.5382865069274012
0.0 1.046650144105636 -0.5566478450158753
0.0 1.075413325352758 -0.5744252041623413
0.0 1.1032317572999684 -0.5916185891620509
0.0 1.1301054372696688 -0.6082280046527554
0.0 1.1560343666893655 -0.6242534481619227
0.0 1.1810185982002155 -0.6396948285124031
0.0 1.205058140262586 -0.6545521310504148
0.0 1.2281529821903288 -0.6688253742849001
0.0 1.2503031137172786 -0.6825145759973831
0.0 1.2715085249972524 -0.6956197532419635
0.0 1.2917692066040292 -0.7081409223453089
0.0 1.3110851495313947 -0.7200780989066633
0.0 1.329450730356193 -0.7314410229806516
0.0 1.3468481137312573 -0.7422605862947105
0.0 1.3632500053827041 -0.7525840639179839
0.0 1.3786421660091719 -0.7624361190438809
0.0 1.3930327427396179 -0.771802640431115
0.0 1.4064174988881821 -0.7806909662348515
0.0 1.4186358622746489 -0.7893792156295248
0.0 1.4296914312249018 -0.7978611561318506
0.0 1.4397054031749215 -0.8059268676249682
0.0 1.4487604285822266 -0.8134331953172232
0.0 1.4568775835921295 -0.8203436342540588
0.0 1.4640371187560142 -0.8266923914839125
0.0 1.4702566902814111 -0.8324488855582942
0.0 1.4755710862326048 -0.837552861782361
0.0 1.4800104216503285 -0.8419521593754835
-0.8152906147965383 0.012461736810148255 -0.05949671977535119
-0.8405085085767725 0.06410284595426408 -0.09093621586304951
-0.8937965186568915 0.11401111109799954 -0.12315675786638342
-0.9506477078523395 0.1628463690382739 -0.15501547492838733
-1.0206818772102288 0.2106222372264107 -0.1864887809314958
-1.0489549774017275 0.25775675037777335 -0.21685261850937484
-0.9930987765444168 0.30454428365250397 -0.24559711492816996
-0.9074282632528681 0.35124666681600125 -0.27226876773128006
-0.8389431825973012 0.39731258718845464 -0.2978224784909921
-0.7804380392479483 0.44247949207446036 -0.3227130018154044
-0.7250391551380657 0.48669343380252683 -0.3470337778124991
-0.671600532017048 0.5299584928207777 -0.3707777389388059
-0.6190912009117754 0.5722844933975235 -0.39392786906245575
-0.5668551203523576 0.6137191333376346 -0.4164015531620207
-0.5160737545272159 0.6542342696906781 -0.4382475362575088
-0.46824322159258047 0.6937623219626724 -0.459582871198096
-0.4244759216876317 0.7322936267910423 -0.480424295418755
-0.3845740908079094 0.769843905030609 -0.5007445796001795
-0.3477110964546936 0.8064233153855305 -0.5205261283506277
-0.31305686768836216 0.8420301792362769 -0.5397718491244181
-0.28047282351476527 0.8766639357498811 -0.5584827133127409
-0.2502817247970059 0.9103245488944876 -0.5766587833246053
-0.222699671792449 0.943011759167329 -0.5943005086319954
-0.19756508903558773 0.9747249165322481 -0.6114090151305421
-0.17527331282135347 1.0054638719155933 -0.6279845610233945
-0.1561895288733837 1.0352283614019016 -0.6440276034255564
-0.139967994939702 1.0640176151718814 -0.659539475703137
-0.12575834684109707 1.0918307005851329 -0.6745217932366901
-0.1125203655122444 1.1186667940039592 -0.6889759826085777
-0.10008619772204906 1.1445257625154863 -0.702902274030609
-0.08845640514296735 1.1694075461692985 -0.7163007713400011
-0.07764813403823377 1.1933120750446213 -0.7291715956430528
-0.06766754153321132 1.216239271410817 -0.7415148815731981
-0.05846867713071127 1.2381890398091893 -0.7533307944697235
-0.05000632361003566 1.2591612931680773 -0.7646194851451937
-0.0422455662862189 1.2791559547512654 -0.775381086510616
-0.03513713503927796 1.2981770845280878 -0.7856085664928429
-0.02861025434189232 1.316237789850964 -0.7952792224915267
-0.02259956362415258 1.3333786489252142 -0.8043227709933587
-0.017476911002663232 1.3496206701409723 -0.8127028243992532
-0.013355710955940852 1.364925858716986 -0.820485191600756
-0.01011076208477279 1.3792952727309755 -0.8276680399535062
-0.007505342360435571 1.3929250475323993 -0.8339116530670863
-0.005475063785670372 1.4058169116577592 -0.8392130370284407
-0.00398544775143708 1.417823163982262 -0.8438280176900377
-0.0029419419370193224 1.4288466849675774 -0.8479248110266838
-0.002228657527834429 1.4388719645857448 -0.8515302811948388
-0.0017402354220029325 1.447938887877733 -0.8545753452770792
-0.0014049497009942311 1.4560340641020173 -0.8570831967180685
-0.0011720086804816246 1.4631189874012358 -0.8591205296191563
-0.0010052173229800666 1.4691603248585885 -0.8607450782858168
-0.6209246712649911 0.050106319920401356 -0.054736649640901414
-0.6503643852126235 0.10144285932361786 -0.08559351202697879
-0.6916665849409612 0.15160577794212554 -0.11626281730637653
-0.739248594398462 0.20075288768531357 -0.1464712272339952
-0.7761138204794836 0.24898395323041075 -0.17604594432007045
-0.7657701577298041 0.29645256336224984 -0.2047209449858022
-0.7126976399239818 0.3433017420413618 -0.23224850446485032
-0.6548892921938139 0.38949144631251775 -0.2586979791901561
-0.6072679581919687 0.4348313208036356 -0.2843990743376567
-0.5645539478947551 0.4792354476335217 -0.3095006040428627
-0.5237398826831668 0.5226841478696507 -0.3340366532167461
-0.484009399848309 0.565181273425698 -0.3580005501491127
-0.4447298704740503 0.606742100949337 -0.3813658349100266
-0.40609832807984025 0.6473720759332385 -0.40412307562950117
-0.36911886604492333 0.6870471498054285 -0.4263139256560573
-0.3347696787300796 0.7257476985058658 -0.44797237485871577
-0.3033937546858278 0.7634752256390932 -0.46909581891804564
-0.2746069452234762 0.8002360353713978 -0.4896733386977141
-0.24778798655364595 0.8360318831309247 -0.509701893706991
-0.22257363420117296 0.8708619282830783 -0.5291829399677127
-0.1990329556169143 0.9047259461863761 -0.5481168665703264
-0.17736802372104576 0.9376238252208949 -0.5665038668462249
-0.15759928531051387 0.9695552235378283 -0.5843445328948971
-0.1398144006963529 1.0005198407220401 -0.6016393850506361
-0.12429856563552641 1.030517521176359 -0.6183886928156332
-0.11105907142990722 1.0595478765467596 -0.6345931288388051
-0.09964737816779974 1.087610267730087 -0.6502538000792867
-0.08935451713250309 1.1147040359657874 -0.6653718475438094
-0.07972746121286002 1.1408288293059876 -0.6799478808239844
-0.07070347607438117 1.1659845830646454 -0.6939820119593374
-0.062289202192950394 1.190171248261836 -0.7074743257855626
-0.05449337833929196 1.2133887669092425 -0.7204249227413769
-0.04730108199897099 1.2356370715468161 -0.7328339196710051
-0.040678125277780135 1.2569160913166362 -0.7447014393039991
-0.03459445871109548 1.2772257624866847 -0.7560275920274221
-0.029018512997061336 1.2965668747157075 -0.7668110101122122
-0.023905271017938847 1.314942933403071 -0.777045622028564
-0.01920368173726683 1.332368429430308 -0.7867063288334136
-0.01502867798505592 1.3488612660738026 -0.7957621211424653
-0.011562233234476528 1.3644143119153336 -0.8042253509343753
-0.008799927390267618 1.3790142044964626 -0.8121191626660966
-0.006606039166953131 1.3927142902441225 -0.8193511576157693
-0.004867652304789729 1.4055691463837516 -0.8258268052559951
-0.0035476918264152916 1.417539632664978 -0.8316138984890321
-0.0025977711331711495 1.4285594223258336 -0.8368273186365471
-0.001938974799320156 1.4385992451042908 -0.8415177632794748
-0.0014883348561890101 1.4476684074673183 -0.8456691131442173
-0.0011794444211239363 1.4557765831220826 -0.8492646128784574
-0.0009663593930534463 1.4629108663779768 -0.85232661579405
-0.0008164597512981336 1.4690524305828028 -0.8548877306090953

VECTORS centroid-point-cyl-variance float
8.33e-30 0.0 0.0
3.239e-29 1.9999999999999998e-32 0.0
6.417e-29 3.0e-32 0.0
1.1452999999999999e-28 8.999999999999999e-32 0.0
1.7345999999999998e-28 8.999999999999999e-32 0.0
2.7017e-28 9.999999999999999e-32 0.0
3.4531e-28 1.6999999999999998e-31 0.0
4.2914e-28 8.999999999999999e-32 0.0
5.4888e-28 3.1999999999999997e-31 0.0
6.0755e-28 3.7e-31 0.0
7.5423999999999995e-28 5.2e-31 0.0
1.03464e-27 6.299999999999999e-31 0.0
1.00292e-27 8.2e-31 0.0
1.17178e-27 9.9e-31 0.0
1.32733e-27 4.9999999999999995e-31 0.0
1.5190499999999999e-27 2.6e-31 0.0
1.65379e-27 1.48e-30 0.0
1.8079799999999998e-27 1.12e-30 0.0
1.9935599999999998e-27 1.84e-30 0.0
1.92397e-27 9.1e-31 0.0
2.48888e-27 1.82e-30 0.0
2.58712e-27 2.8099999999999998e-30 0.0
2.6458e-27 2.28e-30 0.0
2.87367e-27 1.3e-30 0.0
2.8668499999999998e-27 1.7999999999999998e-30 0.0
3.39628e-27 2.14e-30 0.0
3.5763999999999996e-27 1.76e-30 0.0
3.40856e-27 2.17e-30 0.0
3.54228e-27 2.54e-30 0.0
4.0417e-27 2.4699999999999997e-30 0.0
4.24365e-27 2.7199999999999997e-30 0.0
4.17678e-27 1.66e-30 0.0
4.35144e-27 1.9999999999999998e-30 0.0
4.59023e-27 2.7599999999999998e-30 0.0
4.6529999999999994e-27 3.2499999999999996e-30 0.0
4.6762e-27 3.61e-30 0.0
4.82356e-27 4.09e-30 0.0
5.17425e-27 2.85e-30 0.0
4.82356e-27 4.18e-30 0.0
5.0828199999999994e-27 3.7199999999999995e-30 0.0
5.2192699999999994e-27 3.56e-30 0.0
5.5222e-27 2.45e-30 0.0
5.40075e-27 3.84e-30 0.0
5.17425e-27 3.31e-30 0.0
5.4212199999999996e-27 2.3e-30 0.0
7.20601e-27 3.91e-30 0.0
6.71342e-27 3.38e-30 0.0
6.5142e-27 4.7399999999999994e-30 0.0
5.9219999999999994e-27 4.43e-30 0.0
6.12122e-27 2.79e-30 0.0
6.02297e-27 2.4699999999999997e-30 0.0
5.46e-30 0.0 0.0
2.0769999999999998e-29 3.0e-32 1.9999999999999997e-31
4.5539999999999997e-29 4.999999999999999e-32 4.999999999999999e-32
8.741e-29 1.9999999999999998e-32 1.9999999999999997e-31
1.4592e-28 1.1e-31 7.9e-31
2.1217999999999997e-28 1.7999999999999998e-31 1.9999999999999997e-31
2.9329e-28 1.9e-31 0.0
3.6398e-28 3.5e-31 4.4e-31
4.9566e-28 3.5e-31 9.999999999999999e-33
6.1028e-28 4.8e-31 4.4e-31
8.6681e-28 5.3e-31 1.1e-31
9.459499999999999e-28 1.5e-31 4.999999999999999e-32
9.173e-28 6.5e-31 1.1e-31
1.13221e-27 8.4e-31 0.0
1.36895e-27 6.8999999999999995e-31 3.1e-31
1.3488199999999999e-27 9.4e-31 4.999999999999999e-32
1.6265e-27 8.499999999999999e-31 1.1e-31
2.16822e-27 9.299999999999999e-31 0.0
1.9226e-27 1.87e-30 4.999999999999999e-32
2.01539e-27 2.39e-30 9.999999999999999e-33
2.30467e-27 9.7e-31 0.0
2.38108e-27 2.3199999999999997e-30 3.0e-32
2.5189e-27 2.09e-30 0.0
3.04151e-27 2.5199999999999997e-30 9.999999999999999e-33
2.9609999999999997e-27 1.02e-30 0.0
2.8340999999999997e-27 2.3699999999999997e-30 0.0
3.1465699999999997e-27 1.5599999999999999e-30 0.0
3.62006e-27 7.799999999999999e-31 0.0
3.43858e-27 2.13e-30 0.0
3.54501e-27 2.9799999999999997e-30 0.0
4.04852e-27 2.25e-30 0.0
4.18497e-27 3.5999999999999996e-30 0.0
3.9666499999999996e-27 2.9199999999999998e-30 0.0
4.24637e-27 4.06e-30 0.0
4.45924e-27 3.53e-30 0.0
4.7307799999999994e-27 1.52e-30 0.0
4.6134299999999994e-27 2.8699999999999997e-30 0.0
4.8453999999999996e-27 3.84e-30 0.0
5.48399e-27 4.23e-30 0.0
5.3843799999999994e-27 3.09e-30 0.0
5.93292e-27 3.33e-30 0.0
5.3639099999999995e-27 3.49e-30 0.0
5.6763899999999995e-27 3.7499999999999996e-30 0.0
4.99822e-27 1.3599999999999999e-30 0.0
6.26586e-27 2.9e-30 0.0
5.4376e-27 5.5899999999999995e-30 0.0
5.7719e-27 2.9299999999999997e-30 0.0
5.73233e-27 2.3599999999999998e-30 0.0
6.57424e-27 3.38e-30 0.0
6.15806e-27 1.9599999999999997e-30 0.0
7.66039e-27 2.9e-30 0.0
1.22e-29 9.999999999999999e-33 3.1e-31
3.511e-29 3.9999999999999997e-32 3.1e-31
7.029e-29 3.9999999999999997e-32 4.999999999999999e-32
1.2647e-28 1.5999999999999999e-31 4.4e-31
1.9206e-28 1.9e-31 3.1e-31
2.5345999999999997e-28 1.5e-31 9.999999999999999e-33
4.3016e-28 2.6999999999999997e-31 1.1e-31