# vtk DataFile Version 4.0
 
ASCII
DATASET UNSTRUCTURED_GRID
POINTS 62 float
0.0 -1.7708884057650474 1.499999999999991
0.0 -2.0105782716499654 7.090909090909046
0.0 -2.315355502748413 12.416985645932936
0.0 -2.2889682715183364 17.478229665071655
0.0 -2.1699717910736087 22.274641148325216
0.0 -2.0454510717877996 26.80622009569361
0.0 -1.909858737577394 31.072966507176837
0.0 -1.7892418013165374 35.07488038277489
0.0 -1.6771396481155807 38.81196172248779
0.0 -1.5729781376366172 42.28421052631552
0.0 -1.4767580643089655 45.49162679425808
0.0 -1.38847883136896 48.43421052631548
0.0 -1.308120396914819 51.111961722487706
0.0 -1.2356827714202714 53.524880382774775
0.0 -1.1705601053068222 55.67296650717667
0.0 -1.108207601061146 57.55622009569341
0.0 -1.0181276417268503 59.17464114832498
0.0 -0.9011396931128548 60.52822966507139
0.0 -0.7306970832820876 61.61698564593263
0.0 -0.5498041603692163 62.44090909090869
0.0 -0.40158559544110023 62.9999999999996
-0.8152938918039478 1.67589373002254 1.4999999999999905
-0.9232602711185554 1.902404305124007 7.090909090909046
-1.045017403566863 2.197088741938276 12.416985645932936
-0.8624275731409438 2.2082410639390813 17.478229665071655
-0.7172432011617597 2.1089141376389366 22.274641148325216
-0.5835709082011334 2.003717144621526 26.80622009569361
-0.458823694439046 1.8822014373426643 31.072966507176837
-0.35706975050238215 1.7713989382820403 35.07488038277489
-0.27205245991127286 1.666089160804844 38.81196172248779
-0.20240159072431146 1.5664523798169383 42.28421052631552
-0.1506132401889805 1.4729052469477182 45.49162679425808
-0.11426271706148827 1.386121138757916 48.43421052631548
-0.08424963388989035 1.3067868265106855 51.111961722487706
-0.059335794404298196 1.235047435201936 53.524880382774775
-0.038970351202568594 1.170238551679193 55.67296650717667
-0.02333805368457717 1.1078087571428332 57.55622009569341
-0.011931771028020786 1.0179967175057658 59.17464114832498
-0.005641151376299379 0.901497590563863 60.52822966507139
-0.0026418300562744777 0.7310713257905019 61.61698564593263
-0.0014569859069231085 0.5498949991172368 62.44090909090869
-0.001005086180947595 0.4013400650723857 62.9999999999996
-0.6519578110959388 0.8691784285030787 4.295454545454518
-0.7381041280070318 0.9965681708485584 9.753947368420992
-0.7152918662654275 1.0764582054206653 14.947607655502296
-0.5923765403635137 1.0615656927677632 19.876435406698437
-0.4878052910110849 1.0153088729899977 24.540430622009413
-0.39089797599006726 0.962805742065922 28.93959330143522
-0.30596004185303555 0.9077125734975227 33.07392344497587
-0.23592082890512064 0.855760355978567 36.943421052631344
-0.17792026898834412 0.8059383545141436 40.54808612440166
-0.1323805615924845 0.7585420847935487 43.8879186602868
-0.0993284839689258 0.7139802826798722 46.96291866028678
-0.07444213160676699 0.6727655834402531 49.77308612440159
-0.05384453561032071 0.6352124521003468 52.31842105263123
-0.036864804602575046 0.6012018854895368 54.598923444975725
-0.023365651832679663 0.5694217775122637 56.61459330143504
-0.013226184267224234 0.531385147644725 58.3654306220092
-0.006589845901620062 0.47990194867114755 59.85143540669818
-0.0031061180372151964 0.4082337465835188 61.072607655502004
-0.0015370559861990949 0.32029971638398896 62.02894736842066
-0.0009232770329515139 0.23778942959481889 62.72045454545414

CELLS 40 140
4 0 21 22 1
4 1 22 23 2
4 2 23 24 3
4 3 24 25 4
4 4 25 26 5
4 5 26 27 6
4 6 27 28 7
4 7 28 29 8
4 8 29 30 9
4 9 30 31 10
4 10 31 32 11
4 11 32 33 12
4 12 33 34 13
4 13 34 35 14
4 14 35 36 15
4 15 36 37 16
4 16 37 38 17
4 17 38 39 18
4 18 39 40 19
4 19 40 41 20
1 42
1 43
1 44
1 45
1 46
1 47
1 48
1 49
1 50
1 51
1 52
1 53
1 54
1 55
1 56
1 57
1 58
1 59
1 60
1 61

CELL_TYPES 40
7
7
7
7
7
7
7
7
7
7
7
7
7
7
7
7
7
7
7
7
7
7
7
7
7
7
7
7
7
7
7
7
7
7
7
7
7
7
7
7

POINT_DATA 62

VECTORS centroid-point-cyl-mean float
2.320785588044071 -1.650331523091449e-17 0.0
7.370442098135481 2.100421938480026e-17 0.0
12.631009604754981 -8.476702823151533e-17 0.0
17.62747537150484 1.800361661554308e-17 0.0
22.380089719675397 1.620325495398877e-16 0.0
26.88414599547192 7.201446646217232e-17 0.0
31.131604647907867 -8.401687753920104e-17 0.0
35.12048718468397 4.800964430811488e-17 0.0
38.84818104039293 2.400482215405744e-17 0.0
42.3134579070922 1.6803375507840208e-16 0.0
45.515589887076835 -1.200241107702872e-17 0.0
48.45410841995362 1.6803375507840208e-16 0.0
51.128698497946175 4.800964430811488e-16 0.0
53.539142054219965 1.6803375507840208e-16 0.0
55.68527103884262 1.4402893292434464e-16 0.0
57.56688801551605 3.9007836000343344e-16 0.0
59.18339918362157 2.220446049250313e-16 0.0
60.53493734310909 -2.880578658486893e-16 0.0
61.62131805080612 9.301868584697257e-17 0.0
62.44332960944589 -2.370476187713172e-16 0.0
63.001279915494 1.8903797446320232e-16 0.0
2.24913756678618 -2.062914403864311e-17 0.8152938918039475
7.341671054718479 -6.901386369291513e-17 0.9232602711185551
12.609866433521693 8.404031974833585e-17 1.0450174035668625
17.617174598143112 1.200241107702872e-16 0.8624275731409441
22.374252102061394 2.400482215405744e-17 0.71724320116176
26.88100292426644 -1.50030138462859e-16 0.5835709082011332
31.129920170261812 -7.801567200068668e-17 0.4588236944390458
35.11958268636629 -3.420687156953185e-16 0.35706975050238243
38.847705541506755 1.200241107702872e-16 0.2720524599112728
42.31321581837068 1.800361661554308e-16 0.20240159072431135
45.51546504491145 1.4402893292434464e-16 0.15061324018898056
48.45404091630306 -1.9203857723245952e-16 0.11426271706148837
51.12866439611935 4.800964430811488e-17 0.08424963388989029
53.53912739443517 2.400482215405744e-16 0.05933579440429822
55.685264280391685 -5.281060873892637e-16 0.038970351202568594
57.566880338839965 2.820566603101749e-16 0.023338053684577188
59.183396931486655 -2.880578658486893e-16 0.011931771028020786
60.534942671926515 -3.4506931846457566e-16 0.005641151376299383
61.62132248965836 -3.8407715446491904e-16 0.0026418300562744785
62.443330409333534 -2.400482215405744e-16 0.0014569859069231076
63.001278350901686 -2.8955816723331783e-16 0.0010050861809475953
4.382510797778034 4.200843876960052e-17 0.651957811095939
9.804725258010837 -1.2902591907805872e-16 0.7381041280070315
14.986318323419177 1.800361661554308e-17 0.7152918662654278
19.90476340469081 8.401687753920104e-17 0.5923765403635137
24.561424779951842 0.0 0.48780529101108516
28.95560490387711 9.00180830777154e-17 0.39089797599006765
33.086377168862334 -2.700542492331462e-17 0.30596004185303555
36.95333117404811 6.901386369291513e-17 0.23592082890512064
40.55609479453338 -7.801567200068668e-17 0.17792026898834398
43.894473347180764 1.50030138462859e-16 0.13238056159248454
46.96834569086693 -1.4402893292434464e-16 0.09932848396892573
49.777632686552806 2.400482215405744e-16 0.07444213160676702
52.32227705576012 1.9503918000171672e-16 0.053844535610320744
54.60223333397132 1.3802772738583027e-16 0.036864804602575026
56.61745681190222 -2.520506326176031e-16 0.02336565183267968
58.36784955664994 -4.800964430811488e-17 0.013226184267224226
59.853359355365484 9.601928861622976e-17 0.006589845901620066
61.07397203911617 1.0052019277011551e-16 0.003106118037215195
62.02977433090202 -2.850572630794321e-16 0.0015370559861990955
62.720905304381766 -1.9203857723245952e-16 0.0009232770329515135

VECTORS centroid-point-mean float
0.0 -0.04786184880446005 0.04054054054053922
0.0 -0.054339953287836994 0.19164619164618715
0.0 -0.06257717574995904 0.3355942066468313
0.0 -0.06186400733833536 0.4723845855424692
0.0 -0.058647886245235446 0.6020173283331056
0.0 -0.055282461399673515 0.7244924350187365
0.0 -0.05161780371831285 0.8398099055993623
0.0 -0.04835788652207302 0.9479697400749838
0.0 -0.04532809859772094 1.0489719384456018
0.0 -0.042512922638831045 1.1428165007112134
0.0 -0.03991238011646198 1.2295034268718215
0.0 -0.03752645490187245 1.309032716927425
0.0 -0.03535460532203109 1.381404370878024
0.0 -0.03339683166000786 1.4466183887236237
0.0 -0.03163675960289554 1.5046747704642114
0.0 -0.02995155678544521 1.5555735160998005
0.0 -0.027516963289927598 1.5993146256303814
0.0 -0.02435512684089733 1.6358980990559582
0.0 -0.01974856981844349 1.665323936376533
0.0 -0.014859571901879446 1.6875921375921044
0.0 -0.010853664741657167 1.7027027027026682
-0.8152938918039475 0.04529442513574333 0.04054054054054014
-0.9232602711185551 0.051416332570916684 0.1916461916461884
-1.0450174035668625 0.059380776809139287 0.3355942066468325
-0.8624275731409441 0.05968219091726835 0.47238458554247176
-0.71724320116176 0.05699767939564175 0.6020173283331067
-0.5835709082011332 0.05415451742219999 0.7244924350187368
-0.4588236944390458 0.05087030911736313 0.839809905599363
-0.35706975050238243 0.047875646980587355 0.9479697400749847
-0.2720524599112728 0.04502943677850099 1.0489719384456007
-0.20240159072431135 0.0423365508058547 1.1428165007112154
-0.15061324018898056 0.03980824991750321 1.229503426871825
-0.11426271706148837 0.03746273347993657 1.3090327169274283
-0.08424963388989029 0.03531856287865585 1.3814043708780248
-0.05933579440429822 0.03337966041085459 1.4466183887236244
-0.038970351202568594 0.03162806896428898 1.504674770464215
-0.023338053684577188 0.029940777220064378 1.5555735160998008
-0.011931771028020786 0.0275134247974466 1.5993146256303852
-0.005641151376299383 0.02436479974495482 1.6358980990559626
-0.0026418300562744785 0.019758684480815254 1.6653239363765382
-0.0014569859069231076 0.014862027003157568 1.6875921375921055
-0.0010050861809475953 0.010847028785731128 1.7027027027026704
-0.651957811095939 0.023491308878460435 0.11609336609336388
-0.7381041280070315 0.02693427488779679 0.26362019914651014
-0.7152918662654278 0.029093465011367028 0.403989396094651
-0.5923765403635137 0.028690964669395334 0.5372009569377892
-0.48780529101108516 0.027440780351078043 0.6632548816759194
-0.39089797599006765 0.026021776812584586 0.7821511703090511
-0.30596004185303555 0.02453277225668543 0.8938898228371752
-0.23592082890512064 0.02312865826968332 0.9984708392602939
-0.17792026898834398 0.021782117689567632 1.0958942195784087
-0.13238056159248454 0.020501137426844025 1.1861599637915206
-0.09932848396892573 0.01929676439674687 1.2692680718996237
-0.07444213160676702 0.018182853606480507 1.3452185439027264
-0.053844535610320744 0.017167904110811687 1.4140113798008254
-0.036864804602575026 0.016248699607817062 1.4756465795939193
-0.02336565183267968 0.015389777770592313 1.5301241432820005
-0.013226184267224226 0.01436176074714263 1.577444070865093
-0.006589845901620066 0.01297032293705113 1.6176063623431722
-0.003106118037215195 0.011033344502252079 1.6506110177162454
-0.0015370559861990955 0.00865674909145412 1.6764580369843183
-0.0009232770329515135 0.006426741340392301 1.6951474201473835

VECTORS centroid-point-cyl-variance float
3.38e-30 0.0 0.0
3.686e-29 3.0e-32 0.0
1.0259e-28 1.6999999999999998e-31 0.0
2.3503999999999997e-28 1.9e-31 0.0
3.3975999999999998e-28 9.2e-31 0.0
4.9805e-28 7.699999999999999e-31 0.0
7.6004e-28 8.7e-31 0.0
8.719299999999999e-28 8.8e-31 0.0
9.797199999999999e-28 1.64e-30 0.0
1.3535999999999998e-27 1.57e-30 0.0
1.5923899999999999e-27 1.0299999999999999e-30 0.0
1.84892e-27 2.38e-30 0.0
1.9267e-27 3.56e-30 0.0
2.115e-27 2.2099999999999998e-30 0.0
2.3074e-27 3.31e-30 0.0
2.19687e-27 3.43e-30 0.0
2.7849799999999997e-27 3.4499999999999996e-30 0.0
2.87367e-27 3.4999999999999996e-30 0.0
3.58185e-27 2.89e-30 0.0
3.14248e-27 2.7599999999999998e-30 0.0
3.57094e-27 4.06e-30 0.0
3.8499999999999996e-30 9.999999999999999e-33 1.1e-31
4.0319999999999996e-29 3.0e-32 4.999999999999999e-32
1.0839e-28 1.9e-31 1.9999999999999997e-31
2.0127e-28 3.5e-31 1.1e-31
3.9196e-28 4.2e-31 1.1e-31
5.0213999999999995e-28 7.4e-31 4.999999999999999e-32
9.0365e-28 1.0299999999999999e-30 4.999999999999999e-32
9.8518e-28 2.53e-30 7.999999999999999e-32
1.0629599999999999e-27 1.4e-30 0.0
1.2362499999999999e-27 1.27e-30 9.999999999999999e-33
1.68381e-27 2.9199999999999998e-30 0.0
1.7001899999999998e-27 1.88e-30 9.999999999999999e-33
1.8666599999999998e-27 2.2599999999999998e-30 0.0
2.06997e-27 4.4199999999999995e-30 0.0
2.3879e-27 3.05e-30 0.0
2.34287e-27 4.36e-30 0.0
2.6335199999999997e-27 2.3e-30 0.0
4.32142e-27 3.7199999999999995e-30 0.0
2.8109e-27 2.58e-30 0.0
4.00895e-27 2.59e-30 0.0
4.35417e-27 2.99e-30 0.0
1.6369999999999998e-29 3.0e-32 4.999999999999999e-32
6.617999999999999e-29 7.0e-32 1.1e-31
1.5077999999999998e-28 7.0e-32 1.1e-31
2.8757e-28 5.2e-31 0.0
4.6938999999999995e-28 4.6e-31 7.999999999999999e-32
8.5214e-28 7.999999999999999e-31 1.5e-31
7.559399999999999e-28 6.2e-31 0.0
1.1380099999999999e-27 1.42e-30 0.0
1.28128e-27 1.68e-30 1.9999999999999998e-32
1.43411e-27 1.09e-30 0.0
1.77796e-27 2.3199999999999997e-30 0.0
1.77251e-27 2.12e-30 0.0
1.8912199999999998e-27 2.69e-30 0.0
2.1545699999999998e-27 3.14e-30 0.0
2.2418999999999998e-27 3.43e-30 0.0
2.08907e-27 2.9799999999999997e-30 0.0
2.9951099999999997e-27 2.55e-30 0.0
2.9419e-27 2.38e-30 0.0
2.68946e-27 4.18e-30 0.0
3.1493e-27 3.54e-30 0.0

VECTORS centroid-point-cart-variance float
0.0 2.702705707423296 2.679405746251468
0.0 26.533910033851008 27.749825594820926
0.0 77.75619589549498 81.66966836545784
0.0 151.30269606789855 159.1982175530492
0.0 243.78954050833144 256.71301091421446
0.0 351.7216837519577 370.50767671495333
0.0 471.5873384013391 496.8815244770957
0.0 600.1402709157704 632.4073640604937
0.0 734.2702118512583 773.8085615317175
0.0 871.0844418734686 918.0364412789052
0.0 1007.8962833320422 1062.259367761752
0.0 1142.2239723968662 1203.8616754869488
0.0 1271.7906354752 1340.4436466346863
0.0 1394.524346439381 1469.821565351606
0.0 1508.5573667643264 1590.0269968556088
0.0 1612.222531237339 1699.303358493882
0.0 1704.0311856436779 1796.0849888291973
0.0 1782.7406921564766 1879.0611912149723
0.0 1847.294123722701 1947.11902077682
0.0 1896.9011768543385 1999.4200478298217
0.0 1930.947561895752 2035.314394798851
1.1e-31 2.53480722835563 2.5201174455975304
4.999999999999999e-32 26.316857763517792 27.543904210145826
1.9999999999999997e-31 77.48253785368556 81.4100440693822
1.1e-31 151.1165316410259 159.02160001986223
1.1e-31 243.65557145694098 256.5859120705876
4.999999999999999e-32 351.63502972757345 370.4254664866911
4.999999999999999e-32 471.53355866501346 496.8305026759663
7.999999999999999e-32 600.1076927699909 632.3764565888564
0.0 734.2512674364403 773.790588625352
9.999999999999999e-33 871.0739364033439 918.0264745508383
0.0 1007.8904558018459 1062.253839079258
9.999999999999999e-33 1142.220617947632 1203.8584930607524
0.0 1271.7888473171697 1340.4419501770672
0.0 1394.5235415010618 1469.8208016921749
0.0 1508.55698079647 1590.0266306809774
0.0 1612.222078016782 1699.3029285154041
0.0 1704.031048947 1796.0848591426043
0.0 1782.7410229832265 1879.061505076248
0.0 1847.2944042436843 1947.1192869121114
0.0 1896.9012280789523 1999.4200964275326
0.0 1930.94746080435 2035.3142988916227
4.999999999999999e-32 9.363520785653499 9.828850595743836
1.1e-31 46.793345384039235 49.26907093647464
1.1e-31 109.29034347038296 115.13533955860308
0.0 192.77538853830296 203.13480961882698
7.999999999999999e-32 293.5066908438373 309.3162363429017
1.5e-31 407.907809115422 429.9068086479267
0.0 532.5824877917328 561.3262254961953
0.0 664.3402394772373 700.2109664299513
1.9999999999999998e-32 800.1885089536324 843.4068574283891
0.0 937.3407043998212 987.9766902702024
0.0 1073.214998248561 1131.199084884756
0.0 1205.4343045006704 1270.5684678296743
0.0 1331.8260746753476 1403.7948787052376
0.0 1450.422205567361 1528.8038826419818
0.0 1559.4586746795437 1643.736224428954
0.0 1657.3724392477768 1746.9448865630643
0.0 1742.8072257189845 1837.0005818307636
0.0 1814.6136011360472 1912.691821032203
0.0 1871.8532995384164 1973.0290175151415
0.0 1913.7964955465864 2017.2419005756

CELL_DATA 40

SCALARS Gamma-cyl-variance float
LOOKUP_TABLE default
0.0
1.9875244205524751
0.2874545536480546
2.937453432868312
3.111730685245522
2.054010890827782
1.6240215124345234
1.2206506391839427
0.8989058962572084
0.8390782045684855
0.5276901576156494
0.46714590273653483
0.2766253754712606
0.13635780965417546
0.03814663597457878
0.008192191988249678
0.0006330666989847503
3.3745063380071085e-5
2.506511491310082e-6
7.563442052367654e-6
0.0
1.9875244205524751
0.2874545536480546
2.937453432868312
3.111730685245522
2.054010890827782
1.6240215124345234
1.2206506391839427
0.8989058962572084
0.8390782045684855
0.5276901576156494
0.46714590273653483
0.2766253754712606
0.13635780965417546
0.03814663597457878
0.008192191988249678
0.0006330666989847503
3.3745063380071085e-5
2.506511491310082e-6
7.563442052367654e-6

SCALARS Gamma-cart-variance float
LOOKUP_TABLE default
0.0
1.9875244205524751
0.2874545536480546
2.937453432868312
3.111730685245522
2.054010890827782
1.6240215124345234
1.2206506391839427
0.8989058962572084
0.8390782045684855
0.5276901576156494
0.46714590273653483
0.2766253754712606
0.13635780965417546
0.03814663597457878
0.008192191988249678
0.0006330666989847503
3.3745063380071085e-5
2.506511491310082e-6
7.563442052367654e-6
0.0
1.9875244205524751
0.2874545536480546
2.937453432868312
3.111730685245522
2.054010890827782
1.6240215124345234
1.2206506391839427
0.8989058962572084
0.8390782045684855
0.5276901576156494
0.46714590273653483
0.2766253754712606
0.13635780965417546
0.03814663597457878
0.008192191988249678
0.0006330666989847503
3.3745063380071085e-5
2.506511491310082e-6
7.563442052367654e-6

VECTORS centroid-cell-cart-variance float
0.0 0.08977450887557072 0.09462579153960046
0.0 0.46285719181456514 0.48787476846844846
0.0 1.0869741890968376 1.1457282138563203
0.0 1.9219816645598606 2.025871886689366
0.0 2.929784259851948 3.0881506198983053
0.0 4.074326161619613 4.29455984563874
0.0 5.321600505874803 5.60925451738315
0.0 6.639647419795006 6.9985472521414955
0.0 7.998554474773002 8.430908760277664
0.0 9.370456596136394 9.876967759858761
0.0 10.729535991731417 11.309510908901279
0.0 12.05202212389328 12.703482778778886
0.0 13.316191694736343 14.035985840266893
0.0 14.502368633889665 15.286280451906844
0.0 15.592924093237768 16.43578485501688
0.0 16.572276446161975 17.468075172972064
0.0 17.426891287681165 18.368885411337867
0.0 18.145281434002108 19.12610745744358
0.0 18.718006921533572 19.72979107944699
0.0 19.137675008383656 20.172143927754927
0.0 0.005852200491033437 0.006143031622339898
0.0 0.029245840865024523 0.030793169335296633
0.0 0.06830646466898932 0.0719595872241269
0.0 0.12048461783643938 0.1269592560117669
0.0 0.18344168177739836 0.1933226477143136
0.0 0.25494238069713876 0.26869175540495416
0.0 0.3328640548698329 0.35082889093512204
0.0 0.4152126496732735 0.4376318540187195
0.0 0.50011781809602 0.5271292858927432
0.0 0.5858379402498881 0.6174854314188765
0.0 0.6707593739053507 0.7069994280529727
0.0 0.7533964403129193 0.7941052923935467
0.0 0.8323912966720921 0.8773717991907732
0.0 0.9065138784796007 0.9555024266512386
0.0 0.9746616716747148 1.0273351402680966
0.0 1.035857774529861 1.091840554101915
0.0 1.0892545160743652 1.1481253636442272
0.0 1.134133500710029 1.1954323881451268
0.0 1.1699083122115104 1.2331431359469633
0.0 1.1961228097166163 1.2607761878597503

VECTORS D-cart-variance float
7.638917292402884 531.9056414439144 495.3162486487063
722.3638772243414 270140.2803815224 251794.7150377535
322.22866916905366 1.0064753171252842e6 951302.9522556886
827.3167595168761 1.591470510124784e6 1.493912254065729e6
629.3281267540641 1.687981017001859e6 1.5839170001532158e6
427.24584230650004 1.9446859536486373e6 1.8309451667682629e6
300.5068413610164 2.0267961321886415e6 1.905994651717337e6
230.64068092090506 2.198422746687532e6 2.0693661963215242e6
190.2579946412362 2.4130598192984005e6 2.2746088743127333e6
142.04371511137987 2.0498487975886632e6 1.932219862075512e6
112.6965860059562 2.0391941299653666e6 1.92596813655478e6
94.35885128776604 2.0164911481211623e6 1.9033597931643724e6
78.6757818906205 2.0732175503608491e6 1.959902266457101e6
65.38509021074925 1.9534379498067214e6 1.8460602689398595e6
45.19756406327612 1.7584671600486806e6 1.662965945889922e6
29.567505102387997 1.4281876529092556e6 1.3513178351601192e6
16.576039570906097 986511.4451780593 933864.4390319452
7.138735922996571 497980.4387968401 471591.8238321956
2.101602782575492 164805.60863361866 156092.89336940012
0.24173328540329064 24245.40660290985 22980.095616715458
7.638917292402884 531.9056414439144 495.3162486487063
722.3638772243414 270140.2803815224 251794.7150377535
322.22866916905366 1.0064753171252842e6 951302.9522556886
827.3167595168761 1.591470510124784e6 1.493912254065729e6
629.3281267540641 1.687981017001859e6 1.5839170001532158e6
427.24584230650004 1.9446859536486373e6 1.8309451667682629e6
300.5068413610164 2.0267961321886415e6 1.905994651717337e6
230.64068092090506 2.198422746687532e6 2.0693661963215242e6
190.2579946412362 2.4130598192984005e6 2.2746088743127333e6
142.04371511137987 2.0498487975886632e6 1.932219862075512e6
112.6965860059562 2.0391941299653666e6 1.92596813655478e6
94.35885128776604 2.0164911481211623e6 1.9033597931643724e6
78.6757818906205 2.0732175503608491e6 1.959902266457101e6
65.38509021074925 1.9534379498067214e6 1.8460602689398595e6
45.19756406327612 1.7584671600486806e6 1.662965945889922e6
29.567505102387997 1.4281876529092556e6 1.3513178351601192e6
16.576039570906097 986511.4451780593 933864.4390319452
7.138735922996571 497980.4387968401 471591.8238321956
2.101602782575492 164805.60863361866 156092.89336940012
0.24173328540329064 24245.40660290985 22980.095616715458

VECTORS S-cyl-mean float
-4.9760374774923896e-17 -8.58847277819592e-18 -4.5645790770271e-19
-4.947626468412611e-15 -8.114912654962314e-16 2.331200652954731e-17
-2.69686767504553e-15 -4.1850904118586e-16 2.797267531197904e-17
-1.058453045022225e-14 -1.7025987069897456e-15 6.476061188039303e-17
1.1310849176302318e-14 1.7944229553115026e-15 -5.926067107359003e-17
-6.9311949804860255e-15 -1.1039507673045952e-15 2.940640861731656e-17
-1.1444376735296834e-14 -1.808145524252013e-15 4.3958416731229347e-17
-2.5693324966729157e-14 -4.050416957739281e-15 8.911671131462973e-17
-8.379343770580699e-15 -1.2978915213514927e-15 2.934551937675276e-17
1.6671520852593774e-14 2.600934940833914e-15 -5.213759089959085e-17
6.077365676874441e-17 -1.5869316034384498e-18 -1.4241398312279199e-18
-2.4488340279803256e-15 -3.6863161957192773e-16 8.17707240749548e-18
-6.834908123621478e-15 -1.0460978688913396e-15 2.078558010322758e-17
7.24005556500478e-15 1.1125837552278735e-15 -2.106027298135444e-17
7.613032945091865e-15 1.1601264072972194e-15 -2.293767828714096e-17
5.179213585138759e-15 7.92529519231055e-16 -1.5112024424466678e-17
-4.184622889282009e-15 -6.552860745449191e-16 1.0697669235743299e-17
5.009867856378732e-15 7.76026352615509e-16 -1.3162973989764789e-17
1.8319901176615828e-16 2.8620348388862956e-17 -4.3797193593368e-19
-3.409374703043986e-16 -5.3005349514570494e-17 7.032688437646199e-19
-5.045456810134485e-17 2.04775977825622e-18 -4.5645790770271e-19
-5.0061667855354035e-15 -2.7535406355428276e-16 2.331200652954731e-17
-2.72069222982968e-15 -2.1465988168308214e-16 2.797267531197904e-17
-1.0662278535096725e-14 -1.1166663103813937e-15 6.476061188039303e-17
1.1376739727905779e-14 1.3134138704528624e-15 -5.926067107359003e-17
-6.964591800739396e-15 -8.6869569080357e-16 2.940640861731656e-17
-1.1490187848556718e-14 -1.4895409699486706e-15 4.3958416731229347e-17
-2.5780908479379828e-14 -3.4492873692013e-15 8.911671131462973e-17
-8.403603560632115e-15 -1.130208663255086e-15 2.934551937675276e-17
1.671411486173883e-14 2.3114572229485633e-15 -5.213759089959085e-17
6.074242811115655e-17 -2.51259549472997e-18 -1.4241398312279199e-18
-2.4535987885875087e-15 -3.354554399387394e-16 8.17707240749548e-18
-6.847113498759402e-15 -9.62977956524814e-16 2.078558010322758e-17
7.251871395818013e-15 1.0327673771329818e-15 -2.106027298135444e-17
7.624319152967471e-15 1.0834765145843599e-15 -2.293767828714096e-17
5.186215881057268e-15 7.453329688185497e-16 -1.5112024424466678e-17
-4.189741846488246e-15 -6.217168364944381e-16 1.0697669235743299e-17
5.014940866067425e-15 7.425368328759579e-16 -1.3162973989764789e-17
1.833443028482714e-16 2.7674335892268808e-17 -4.3797193593368e-19
-3.4113600747532353e-16 -5.171218559025007e-17 7.032688437646199e-19

VECTORS L-cart-variance float
0.09058038940895081 4965.354151602298 4674.927419083364
77.72315989047313 96163.30970318706 89828.45470919689
2.5807142507793706 179011.9325157025 168479.09346891093
632.5137425235521 309877.04682780075 291236.23801616934
1828.9124764112366 366053.3048438455 343731.7480951298
1947.7231447336467 441423.4498442809 415587.32899728423
2336.206470174242 481141.3030705131 452377.8999284366
2309.1187892571743 533064.2834765848 501668.80693543795
2067.361278695271 592425.8025884747 558296.6434923236
2485.311784030414 509808.50932930555 480491.23140855733
1722.1460186315333 509147.1380640524 480365.9310655709
1780.7146751563857 506166.73670837685 477756.09251370595
1081.9012360995098 521944.5940163653 493129.7750307746
490.39941258263866 494856.20232939726 467427.20943027566
93.45857802248615 445271.3233206776 420713.0558280784
5.079007223525511 367068.5373142062 346917.62556753535
4.501759348201459 252633.66781327093 238818.58243550587
11.285590795532263 132623.49644625996 125416.93259786764
2.521556093218054 45898.89192078176 43403.14724715226
0.46124319221134497 7912.487746477589 7483.631336502998
0.09058038940895081 4965.354151602298 4674.927419083364
77.72315989047313 96163.30970318706 89828.45470919689
2.5807142507793706 179011.9325157025 168479.09346891093
632.5137425235521 309877.04682780075 291236.23801616934
1828.9124764112366 366053.3048438455 343731.7480951298
1947.7231447336467 441423.4498442809 415587.32899728423
2336.206470174242 481141.3030705131 452377.8999284366
2309.1187892571743 533064.2834765848 501668.80693543795
2067.361278695271 592425.8025884747 558296.6434923236
2485.311784030414 509808.50932930555 480491.23140855733
1722.1460186315333 509147.1380640524 480365.9310655709
1780.7146751563857 506166.73670837685 477756.09251370595
1081.9012360995098 521944.5940163653 493129.7750307746
490.39941258263866 494856.20232939726 467427.20943027566
93.45857802248615 445271.3233206776 420713.0558280784
5.079007223525511 367068.5373142062 346917.62556753535
4.501759348201459 252633.66781327093 238818.58243550587
11.285590795532263 132623.49644625996 125416.93259786764
2.521556093218054 45898.89192078176 43403.14724715226
0.46124319221134497 7912.487746477589 7483.631336502998

VECTORS centroid-cell-mean float
-0.043463854073062545 -0.000137276109640898 0.011609336609336357
-0.04920694186713547 -0.00015300049144342182 0.026362019914650925
-0.04768612441769516 -0.00013445538404710102 0.04039893960946508
-0.03949176935756759 -9.580058176648657e-5 0.05372009569377882
-0.0325203527340723 -6.945377067683986e-5 0.06632548816759216
-0.026059865066004467 -4.688596446065065e-5 0.07821511703090497
-0.020397336123535698 -3.074335356066652e-5 0.0893889822837174
-0.015728055260341375 -1.9522534017556948e-5 0.09984708392602921
-0.011861351265889608 -1.1875841305021975e-5 0.10958942195784085
-0.008825370772832299 -7.012550798373211e-6 0.11861599637915204
-0.006621898931261721 -4.1962905226286315e-6 0.12692680718996266
-0.004962808773784465 -2.4940966324918306e-6 0.13452185439027278
-0.003589635707354711 -1.3303423132231e-6 0.14140113798008266
-0.0024576536401716698 -6.465471937893213e-7 0.147564657959392
-0.0015577101221786445 -4.867550995394947e-7 0.1530124143282009
-0.0008817456178149485 -3.579514468049044e-7 0.1577444070865092
-0.00043932306010800395 1.5336028971483798e-7 0.1617606362343171
-0.00020707453581434652 4.946891606137686e-7 0.16506110177162467
-0.00010247039907993961 3.1424409105748395e-7 0.1676458036984316
-6.15518021967676e-5 -1.0452136613796985e-7 0.16951474201473782
-0.016298945277398467 0.0005872827219615021 0.0029023341523340984
-0.018452603200175798 0.000673356872194913 0.006590504978662752
-0.01788229665663569 0.000727336625284149 0.010099734902366275
-0.014809413509087831 0.000717274116734901 0.013430023923444709
-0.012195132275277127 0.0006860195087769527 0.016581372041898048
-0.009772449399751687 0.0006505444203147311 0.019553779257726257
-0.007649001046325881 0.0006133193064170732 0.022347245570929344
-0.005898020722628016 0.0005782164567421805 0.024961770981507318
-0.004448006724708603 0.0005445529422390717 0.02739735548946024
-0.0033095140398121115 0.0005125284356710736 0.029653999094787976
-0.0024832120992231434 0.00048241910991862405 0.03173170179749063
-0.0018610532901691746 0.0004545713401621734 0.03363046359756814
-0.001346113390258017 0.0004291976027701783 0.03535028449502063
-0.000921620115064376 0.0004062174901953989 0.036891164489847965
-0.0005841412958169919 0.0003847444442648165 0.03825310358205023
-0.00033065460668060603 0.0003590440186785922 0.039436101771627353
-0.00016474614754050164 0.000324258073426166 0.04044015905857932
-7.765295093037998e-5 0.0002758336125560671 0.041265275442906216
-3.842639965497736e-5 0.00021641872728622694 0.041911450924607865
-2.3081925823787848e-5 0.00016066853351000976 0.04237868550368458

SCALARS mu-cart-variance float
LOOKUP_TABLE default
0.0009569883485615264
0.04307703763153186
0.012857560701340342
7.815052592432808e-5
2.169586667045367e-5
2.1024385983129096e-5
2.192088812893166e-5
1.0924190789844012e-5
1.1305411055707182e-5
6.635565548200892e-8
0.00033281483968720563
2.720314251330243e-5
5.97479650718322e-6
5.3734758351287575e-6
2.5485318603791706e-5
5.734358697850079e-5
9.092253834366894e-5
8.52958041668573e-5
8.777739131060489e-5
9.608807035808716e-5
0.0009569883485615264
0.04307703763153186
0.012857560701340342
7.815052592432808e-5
2.169586667045367e-5
2.1024385983129096e-5
2.192088812893166e-5
1.0924190789844012e-5
1.1305411055707182e-5
6.635565548200892e-8
0.00033281483968720563
2.720314251330243e-5
5.97479650718322e-6
5.3734758351287575e-6
2.5485318603791706e-5
5.734358697850079e-5
9.092253834366894e-5
8.52958041668573e-5
8.777739131060489e-5
9.608807035808716e-5
