# vtk DataFile Version 4.0
 
ASCII
DATASET UNSTRUCTURED_GRID
POINTS 704 float
0.7966769023958385 0.4588896866472801 -2.205179747657521
0.7514406829620165 0.45451006880596356 -2.212765468276416
0.6214809884732289 0.4440753431146761 -2.23083894333677
0.4048895179127021 0.436738098108564 -2.2435474244749374
0.10373121052662726 0.45076793668953596 -2.219247031230704
-0.2686568310691162 0.5043759149932832 -2.1263952891175637
-0.6774707864079444 0.6228844206846788 -1.9211325361310008
-1.0583407255216244 0.8262323309368531 -1.568923623961278
-1.3164537177473794 1.1198572723230886 -1.0603503071108842
-1.333201165686269 1.4858062763458135 -0.42650803916429647
-1.1135126432809705 1.7755545053700572 0.07535061490879758
-0.7954701316559406 1.973202459083359 0.41768691275225867
-0.47725425978612795 2.0895316981827623 0.6191750652782531
-0.224428864136694 2.150340954921322 0.7244997875199388
-0.06561513623718178 2.1756721899546623 0.7683747736161528
-0.014881417598192588 2.1827263372789267 0.7805929151858553
0.014881417598192588 2.1862463432392363 0.7866897443520566
0.06655948919937225 2.191304285024518 0.7954503565058901
0.231240844374164 2.2042323291572523 0.817842385786279
0.5117602850937687 2.2065009677378633 0.8217717830719079
0.9004875416594313 2.1737808340638383 0.7650988491180513
1.361922689788577 2.0683205362024912 0.5824362550408502
1.817949802003889 1.8584881836612697 0.2189959593677501
2.1308733031291305 1.5275674780394823 -0.3541755160457302
2.163205356935199 1.2072397630862284 -0.9089993934172079
2.004899400420978 0.9401243268660999 -1.3716569004363945
1.7455931929471284 0.7425982497711162 -1.713782101784674
1.4607009073813408 0.6112547111977691 -1.9412757838395942
1.2040274544113783 0.5312509454574088 -2.0798463708987365
1.0038139976038398 0.489293295708328 -2.152519152030324
0.8782765126492166 0.46951075249533086 -2.186783521978162
0.8339097891653807 0.4632931644236254 -2.19755270041889
0.876237549622453 2.841822283017055 -3.6687285106420826
0.9228362670027951 2.848355108849727 -3.6574133243828975
1.0546888239013228 2.8691398481209722 -3.6214130999430285
1.26497174663196 2.913219725102214 -3.545064513420132
1.5345488887072891 2.9972637093646064 -3.3994960626071484
1.833754809800062 3.1352331709284442 -3.16052594528566
2.1060732171117706 3.342715259500993 -2.8011564262174993
2.2722931583136785 3.623284430748652 -2.3151963665790607
2.2382681717898705 3.9597346610132 -1.7324474735426145
1.909525590147668 4.307296762701193 -1.13045225463359
1.4305008080546446 4.527668040940764 -0.7487580041937547
0.9458170945052086 4.638413267299244 -0.5569416454451495
0.5375159939190799 4.67276056029668 -0.49745038887113585
0.24287665792099117 4.67036339711564 -0.5016023972947308
0.06990846594542928 4.65677618869636 -0.5251361326099528
0.01563013603630352 4.651461008178053 -0.5343422953190591
-0.01563013603630352 4.647762297209484 -0.5407486506391346
-0.06891616971103644 4.640350477447983 -0.5535862990425953
-0.23571884446666472 4.613736044990298 -0.5996838482739166
-0.5012581535272688 4.549852950148475 -0.7103326142846955
-0.8354681204834217 4.427651852698395 -0.9219911238089107
-1.1694793853409482 4.2200387523331315 -1.2815875619584445
-1.4001670497463037 3.9156943978421057 -1.808727446933654
-1.3825018215519616 3.5313256677089444 -2.4744736163650214
-1.1113363369123976 3.2229338676281025 -3.0086238827426635
-0.7112531997581533 3.009369596484507 -3.3785280510447873
-0.28183677808235075 2.8849166735882914 -3.594086836651485
0.10930691703137008 2.8286292809354463 -3.6915794605517918
0.42562733761798066 2.8139086133877265 -3.7170764046657734
0.6531197593649893 2.821626253223617 -3.703709060355493
0.7896190342218844 2.8325928647161875 -3.6847143320634927
0.8371313904550017 2.837195247797549 -3.676742770730679
1.0260473632296185 7.428334094226966 -6.641642670044669
1.0588649062748245 7.441219962856753 -6.619323690878219
1.1518274957733692 7.47947137908871 -6.553070294503007
1.300646886622875 7.54920614619931 -6.432286134813462
1.493145138394513 7.661683980363743 -6.237468811315358
1.7102033272296484 7.826299242993725 -5.952346812738934
1.9133267558229226 8.05357803519422 -5.558688397164787
2.0448902407141545 8.346071233723503 -5.052075316443739
2.029490589895447 8.692329256211027 -4.45233882896702
1.7793171533824517 9.06205295360199 -3.8119586003236487
1.3848941885702803 9.319650185573934 -3.3657871066591354
0.9504531516252314 9.470790974522478 -3.104003581104214
0.5563898725939962 9.535537060995113 -2.991860069742361
0.2571288643790628 9.545573064758152 -2.974477201319827
0.07881623488849696 9.535128412201082 -2.992567870216072
0.022806765560467738 9.53056452196346 -3.0004727599878054
-0.023003927993888663 9.525079766050565 -3.0099726358960512
-0.07717799624656119 9.516409365455454 -3.0249902102487587
-0.2457926661461365 9.48502443510647 -3.0793505042052125
-0.5025819916192812 9.40721325661397 -3.214123418751031
-0.7957754368577424 9.25972181131199 -3.4695860956958238
-1.0498498481160023 9.026150465575604 -3.874143533703484
-1.1702949261086486 8.706257943665326 -4.428213634613424
-1.0439076686618416 8.322259280815393 -5.093318828708023
-0.7192293709757948 8.01699571599013 -5.622050832684971
-0.31608215765425474 7.792678248977494 -6.010580082576017
0.08114496007369232 7.638928070769827 -6.2768832029044646
0.4203804053823006 7.5397278397717145 -6.448703043115765
0.6784164094540799 7.478638274191043 -6.554513274513797
0.853639675621071 7.445454939815651 -6.611988495616525
0.9542320208740129 7.429096672728262 -6.640321845335663
0.988414118924369 7.423828396032729 -6.649446768240657
0.9820493720050042 11.831910992129073 -9.401744322004237
0.9854311756828062 11.853183230474043 -9.364899724400036
0.9953030033265851 11.913952642123487 -9.25964401587713
1.0123771897896892 12.014188743657456 -9.086029995267662
1.0378983918148172 12.153832170891159 -8.844160484355841
1.0728994381948294 12.332823148877948 -8.53413901638628
1.11585792788819 12.551224453321986 -8.155856860649887
1.1580191245126126 12.80942495666192 -7.708640470325264
1.175490539664926 13.107934840919675 -7.191606184229326
1.1167791320165223 13.447746926112355 -6.60303438764968
0.9621362939316549 13.725201294469842 -6.122469324872581
0.7298136567620059 13.929403806277431 -5.768780199388649
0.4705956068855415 14.05675155521794 -5.548207427994163
0.23460378896430636 14.108450871530717 -5.458661585423862
0.08118853214395548 14.115113552193472 -5.447121484001363
0.03243830004580166 14.114757358281292 -5.447738429954603
-0.0327769896250652 14.107840806352986 -5.459718249307617
-0.07819287093748278 14.098122193317693 -5.476551380863848
-0.21490718581037813 14.060466836925485 -5.54177237131227
-0.3947635322759889 13.965452904488252 -5.70634132972047
-0.5441075394586264 13.796820661460428 -5.9984209424389645
-0.6117980637331246 13.5612028538588 -6.406522956372972
-0.5276236445461557 13.272859307510057 -6.905948628683586
-0.2510614285217665 12.956674124943877 -7.453597429488654
0.0813876654817779 12.703866619242156 -7.891472873898795
0.3900478008356105 12.491513944202355 -8.259278496190893
0.6369595845514406 12.30663556328629 -8.57949724515859
0.8069986178893772 12.14560651342352 -8.858407741015451
0.9028107740330056 12.01199933903718 -9.089822155308307
0.9433433851640168 11.912199985271762 -9.26267970659255
0.9543458978341224 11.850710638954357 -9.369182378538495
0.9556408611379472 11.8291101790424 -9.406595472572857
0.8020369664097139 16.134313518375436 -11.807420054325096
0.8062956202887109 16.154473177548375 -11.772502500374292
0.8186643069178978 16.21206147817922 -11.672756637760118
0.8397521751957258 16.30704502097739 -11.508240315750793
0.8704741148925221 16.43937095534855 -11.279045074260923
0.9113493629769198 16.609006494991448 -10.985227700830059
0.9605694408661958 16.816058544040242 -10.626603032066303
1.010103456299582 17.060957658011066 -10.202425323940231
1.03875589433486 17.34433607686592 -9.711599504715094
1.00013116910579 17.66779900678656 -9.151345275727452
0.8710190128913723 17.93373387009997 -8.690732580964736
0.6691883518767417 18.133020393186065 -8.345558197715873
0.43947096110779166 18.26255958448958 -8.121189736806802
0.22256678811464048 18.32014391172188 -8.021450756320789
0.07769288071134949 18.330780988592515 -8.003026798736832
0.03138402102067128 18.33152971654828 -8.001729963876402
-0.031662256589925164 18.325868239907088 -8.01153592906481
-0.07519384522818609 18.31697423965319 -8.026940789387087
-0.20584615954187302 18.281527107562884 -8.088337023150109
-0.37722269848145057 18.190869145409035 -8.245361219711226
-0.5214245803093023 18.03056763032891 -8.523011588360273
-0.5954502566808526 17.80699912369465 -8.910243600823112
-0.5298223609715487 17.531650547987773 -9.387161323739146
-0.2841717262830426 17.227037410387375 -9.914766754716009
0.01417848222417839 16.980752347939728 -10.34134499602061
0.2912290113301247 16.772837638778643 -10.701463835928514
0.5117144624053227 16.59225168218814 -11.014247887876689
0.6613282810223545 16.435930693712475 -11.285003782205935
0.742403261164945 16.307081302688278 -11.508177473984153
0.7729650738886124 16.211373502714 -11.673948246220242
0.7780728637132528 16.152664030737725 -11.775636034568691
0.7773161705818656 16.132093621921033 -11.811265027771663
0.6637769571092984 20.22229201790613 -14.054824023510658
0.6671894307191958 20.24077299929643 -14.022814024768932
0.6772409701275841 20.29356247439883 -13.931379971786678
0.694369379187418 20.380639861100587 -13.780557513828914
0.718200598960882 20.50202268570732 -13.570316294443826
0.7467740797055163 20.657803256305 -13.300496431336576
0.776419157638673 20.848128502798087 -12.97084343444748
0.8017719851500207 21.07313797191735 -12.581115601748811
0.8129865112089941 21.33289518462494 -12.13120291170679
0.7816102731095446 21.629272862280637 -11.617861715777853
0.6811811661961129 21.874824445492752 -11.192553897775493
0.5236160028145531 22.063782579249768 -10.865268809604945
0.35214003005009414 22.19755694883271 -10.633564804736793
[...]
POINT_DATA 704

SCALARS Np-cyl-mean float
LOOKUP_TABLE default
-112.29092544000926
-112.29092544000926
-112.29092544000926
-112.29092544000926
-112.29092544000926
-112.29092544000926
-112.29092544000926
-112.29092544000926
-112.29092544000926
-112.29092544000926
-112.29092544000926
-112.29092544000926
-112.29092544000926
-112.29092544000926
-112.29092544000926
-112.29092544000926
-112.29092544000926
-112.29092544000926
-112.29092544000926
-112.29092544000926
-112.29092544000926
-112.29092544000926
-112.29092544000926
-112.29092544000926
-112.29092544000926
-112.29092544000926
-112.29092544000926
-112.29092544000926
-112.29092544000926
-112.29092544000926
-112.29092544000926
-112.29092544000926
-112.29092544000926
-112.29092544000926
-112.29092544000926
-112.29092544000926
-112.29092544000926
-112.29092544000926
-112.29092544000926
-112.29092544000926
-112.29092544000926
-112.29092544000926
-112.29092544000926
-112.29092544000926
-112.29092544000926
-112.29092544000926
-112.29092544000926
-112.29092544000926
-112.29092544000926
-112.29092544000926
-112.29092544000926
-112.29092544000926
-112.29092544000926
-112.29092544000926
-112.29092544000926
-112.29092544000926
-112.29092544000926
-112.29092544000926
-112.29092544000926
-112.29092544000926
-112.29092544000926
-112.29092544000926
-112.29092544000926
-112.29092544000926
-1117.3764156787734
-1117.3764156787734
-1117.3764156787734
-1117.3764156787734
-1117.3764156787734
-1117.3764156787734
-1117.3764156787734
-1117.3764156787734
-1117.3764156787734
-1117.3764156787734
-1117.3764156787734
-1117.3764156787734
-1117.3764156787734
-1117.3764156787734
-1117.3764156787734
-1117.3764156787734
-1117.3764156787734
-1117.3764156787734
-1117.3764156787734
-1117.3764156787734
-1117.3764156787734
-1117.3764156787734
-1117.3764156787734
-1117.3764156787734
-1117.3764156787734
-1117.3764156787734
-1117.3764156787734
-1117.3764156787734
-1117.3764156787734
-1117.3764156787734
-1117.3764156787734
-1117.3764156787734
-1892.4554478811428
-1892.4554478811428
-1892.4554478811428
-1892.4554478811428
-1892.4554478811428
-1892.4554478811428
-1892.4554478811428
-1892.4554478811428
-1892.4554478811428
-1892.4554478811428
-1892.4554478811428
-1892.4554478811428
-1892.4554478811428
-1892.4554478811428
-1892.4554478811428
-1892.4554478811428
-1892.4554478811428
-1892.4554478811428
-1892.4554478811428
-1892.4554478811428
-1892.4554478811428
-1892.4554478811428
-1892.4554478811428
-1892.4554478811428
-1892.4554478811428
-1892.4554478811428
-1892.4554478811428
-1892.4554478811428
-1892.4554478811428
-1892.4554478811428
-1892.4554478811428
-1892.4554478811428
-2760.131324633227
-2760.131324633227
-2760.131324633227
-2760.131324633227
-2760.131324633227
-2760.131324633227
-2760.131324633227
-2760.131324633227
-2760.131324633227
-2760.131324633227
-2760.131324633227
-2760.131324633227
-2760.131324633227
-2760.131324633227
-2760.131324633227
-2760.131324633227
-2760.131324633227
-2760.131324633227
-2760.131324633227
-2760.131324633227
-2760.131324633227
-2760.131324633227
-2760.131324633227
-2760.131324633227
-2760.131324633227
-2760.131324633227
-2760.131324633227
-2760.131324633227
-2760.131324633227
-2760.131324633227
-2760.131324633227
-2760.131324633227
-3381.287050689266
-3381.287050689266
-3381.287050689266
-3381.287050689266
-3381.287050689266
-3381.287050689266
-3381.287050689266
-3381.287050689266
-3381.287050689266
-3381.287050689266
-3381.287050689266
-3381.287050689266
-3381.287050689266
-3381.287050689266
-3381.287050689266
-3381.287050689266
-3381.287050689266
-3381.287050689266
-3381.287050689266
-3381.287050689266
-3381.287050689266
-3381.287050689266
-3381.287050689266
-3381.287050689266
-3381.287050689266
-3381.287050689266
-3381.287050689266
-3381.287050689266
-3381.287050689266
-3381.287050689266
-3381.287050689266
-3381.287050689266
-4189.071727316405
-4189.071727316405
-4189.071727316405
-4189.071727316405
-4189.071727316405
-4189.071727316405
-4189.071727316405
-4189.071727316405
-4189.071727316405
-4189.071727316405
-4189.071727316405
-4189.071727316405
-4189.071727316405
-4189.071727316405
-4189.071727316405
-4189.071727316405
-4189.071727316405
-4189.071727316405
-4189.071727316405
-4189.071727316405
-4189.071727316405
-4189.071727316405
-4189.071727316405
-4189.071727316405
-4189.071727316405
-4189.071727316405
-4189.071727316405
-4189.071727316405
-4189.071727316405
-4189.071727316405
-4189.071727316405
-4189.071727316405
-4878.280121478248
-4878.280121478248
-4878.280121478248
-4878.280121478248
-4878.280121478248
-4878.280121478248
-4878.280121478248
-4878.280121478248
-4878.280121478248
-4878.280121478248
-4878.280121478248
-4878.280121478248
-4878.280121478248
-4878.280121478248
-4878.280121478248
-4878.280121478248
-4878.280121478248
-4878.280121478248
-4878.280121478248
-4878.280121478248
-4878.280121478248
-4878.280121478248
-4878.280121478248
-4878.280121478248
-4878.280121478248
-4878.280121478248
-4878.280121478248
-4878.280121478248
-4878.280121478248
-4878.280121478248
-4878.280121478248
-4878.280121478248
-5656.560890441712
-5656.560890441712
-5656.560890441712
-5656.560890441712
-5656.560890441712
-5656.560890441712
-5656.560890441712
-5656.560890441712
-5656.560890441712
-5656.560890441712
-5656.560890441712
-5656.560890441712
-5656.560890441712
-5656.560890441712
-5656.560890441712
-5656.560890441712
-5656.560890441712
-5656.560890441712
-5656.560890441712
-5656.560890441712
-5656.560890441712
-5656.560890441712
-5656.560890441712
-5656.560890441712
-5656.560890441712
-5656.560890441712
-5656.560890441712
-5656.560890441712
-5656.560890441712
-5656.560890441712
-5656.560890441712
-5656.560890441712
-6481.289771327768
-6481.289771327768
-6481.289771327768
-6481.289771327768
-6481.289771327768
-6481.289771327768
-6481.289771327768
-6481.289771327768
-6481.289771327768
-6481.289771327768
-6481.289771327768
-6481.289771327768
-6481.289771327768
-6481.289771327768
-6481.289771327768
-6481.289771327768
-6481.289771327768
-6481.289771327768
-6481.289771327768
-6481.289771327768
-6481.289771327768
-6481.289771327768
-6481.289771327768
-6481.289771327768
-6481.289771327768
-6481.289771327768
-6481.289771327768
-6481.289771327768
-6481.289771327768
-6481.289771327768
-6481.289771327768
-6481.289771327768
-6447.459732725742
-6447.459732725742
-6447.459732725742
-6447.459732725742
-6447.459732725742
-6447.459732725742
-6447.459732725742
-6447.459732725742
-6447.459732725742
-6447.459732725742
-6447.459732725742
-6447.459732725742
-6447.459732725742
-6447.459732725742
-6447.459732725742
-6447.459732725742
-6447.459732725742
-6447.459732725742
-6447.459732725742
-6447.459732725742
-6447.459732725742
-6447.459732725742
-6447.459732725742
-6447.459732725742
-6447.459732725742
-6447.459732725742
-6447.459732725742
-6447.459732725742
-6447.459732725742
-6447.459732725742
-6447.459732725742
-6447.459732725742
-6835.3947401041605
-6835.3947401041605
-6835.3947401041605
-6835.3947401041605
-6835.3947401041605
-6835.3947401041605
-6835.3947401041605
-6835.3947401041605
-6835.3947401041605
-6835.3947401041605
-6835.3947401041605
-6835.3947401041605
-6835.3947401041605
-6835.3947401041605
-6835.3947401041605
-6835.3947401041605
-6835.3947401041605
-6835.3947401041605
-6835.3947401041605
-6835.3947401041605
-6835.3947401041605
-6835.3947401041605
-6835.3947401041605
-6835.3947401041605
-6835.3947401041605
-6835.3947401041605
-6835.3947401041605
-6835.3947401041605
-6835.3947401041605
-6835.3947401041605
-6835.3947401041605
-6835.3947401041605
-7141.871907689141
-7141.871907689141
-7141.871907689141
-7141.871907689141
-7141.871907689141
-7141.871907689141
-7141.871907689141
-7141.871907689141
-7141.871907689141
-7141.871907689141
-7141.871907689141
-7141.871907689141
-7141.871907689141
-7141.871907689141
-7141.871907689141
-7141.871907689141
-7141.871907689141
-7141.871907689141
-7141.871907689141
-7141.871907689141
-7141.871907689141
-7141.871907689141
-7141.871907689141
-7141.871907689141
-7141.871907689141
-7141.871907689141
-7141.871907689141
-7141.871907689141
-7141.871907689141
-7141.871907689141
-7141.871907689141
-7141.871907689141
-7488.907396384496
-7488.907396384496
-7488.907396384496
-7488.907396384496
-7488.907396384496
-7488.907396384496
-7488.907396384496
-7488.907396384496
-7488.907396384496
-7488.907396384496
-7488.907396384496
-7488.907396384496
-7488.907396384496
-7488.907396384496
-7488.907396384496
-7488.907396384496
-7488.907396384496
-7488.907396384496
-7488.907396384496
-7488.907396384496
-7488.907396384496
-7488.907396384496
-7488.907396384496
-7488.907396384496
-7488.907396384496
-7488.907396384496
-7488.907396384496
-7488.907396384496
-7488.907396384496
-7488.907396384496
-7488.907396384496
-7488.907396384496
-7416.9263539757785
-7416.9263539757785
-7416.9263539757785
-7416.9263539757785
-7416.9263539757785
-7416.9263539757785
-7416.9263539757785
-7416.9263539757785
-7416.9263539757785
-7416.9263539757785
-7416.9263539757785
-7416.9263539757785
-7416.9263539757785
-7416.9263539757785
-7416.9263539757785
-7416.9263539757785
-7416.9263539757785
-7416.9263539757785
-7416.9263539757785
-7416.9263539757785
-7416.9263539757785
-7416.9263539757785
-7416.9263539757785
-7416.9263539757785
-7416.9263539757785
-7416.9263539757785
-7416.9263539757785
-7416.9263539757785
-7416.9263539757785
-7416.9263539757785
-7416.9263539757785
-7416.9263539757785
-7072.567215414651
-7072.567215414651
-7072.567215414651
-7072.567215414651
-7072.567215414651
-7072.567215414651
-7072.567215414651
-7072.567215414651
-7072.567215414651
-7072.567215414651
-7072.567215414651
-7072.567215414651
-7072.567215414651
-7072.567215414651
-7072.567215414651
-7072.567215414651
-7072.567215414651
-7072.567215414651
-7072.567215414651
-7072.567215414651
-7072.567215414651
-7072.567215414651
-7072.567215414651
-7072.567215414651
-7072.567215414651
-7072.567215414651
-7072.567215414651
-7072.567215414651
-7072.567215414651
-7072.567215414651
-7072.567215414651
-7072.567215414651
-6408.140474302257
-6408.140474302257
-6408.140474302257
-6408.140474302257
-6408.140474302257
-6408.140474302257
-6408.140474302257
-6408.140474302257
-6408.140474302257
-6408.140474302257
-6408.140474302257
-6408.140474302257
-6408.140474302257
-6408.140474302257
-6408.140474302257
-6408.140474302257
-6408.140474302257
-6408.140474302257
-6408.140474302257
-6408.140474302257
-6408.140474302257
-6408.140474302257
-6408.140474302257
-6408.140474302257
-6408.140474302257
-6408.140474302257
-6408.140474302257
-6408.140474302257
-6408.140474302257
-6408.140474302257
-6408.140474302257
-6408.140474302257
-5293.877923531467
-5293.877923531467
-5293.877923531467
-5293.877923531467
-5293.877923531467
-5293.877923531467
-5293.877923531467
-5293.877923531467
-5293.877923531467
-5293.877923531467
-5293.877923531467
-5293.877923531467
-5293.877923531467
-5293.877923531467
-5293.877923531467
-5293.877923531467
-5293.877923531467
-5293.877923531467
-5293.877923531467
-5293.877923531467
-5293.877923531467
-5293.877923531467
-5293.877923531467
-5293.877923531467
-5293.877923531467
-5293.877923531467
-5293.877923531467
-5293.877923531467
-5293.877923531467
-5293.877923531467
-5293.877923531467
-5293.877923531467
-3817.7836178820103
-3817.7836178820103
-3817.7836178820103
-3817.7836178820103
-3817.7836178820103
-3817.7836178820103
-3817.7836178820103
-3817.7836178820103
-3817.7836178820103
-3817.7836178820103
-3817.7836178820103
-3817.7836178820103
-3817.7836178820103
-3817.7836178820103
-3817.7836178820103
-3817.7836178820103
-3817.7836178820103
-3817.7836178820103
-3817.7836178820103
-3817.7836178820103
-3817.7836178820103
-3817.7836178820103
-3817.7836178820103
-3817.7836178820103
-3817.7836178820103
-3817.7836178820103
-3817.7836178820103
-3817.7836178820103
-3817.7836178820103
-3817.7836178820103
-3817.7836178820103
-3817.7836178820103
-2237.828224944752
-2237.828224944752
-2237.828224944752
-2237.828224944752
-2237.828224944752
-2237.828224944752
-2237.828224944752
-2237.828224944752
-2237.828224944752
-2237.828224944752
-2237.828224944752
-2237.828224944752
-2237.828224944752
-2237.828224944752
-2237.828224944752
-2237.828224944752
-2237.828224944752
-2237.828224944752
-2237.828224944752
-2237.828224944752
-2237.828224944752
-2237.828224944752
-2237.828224944752
-2237.828224944752
-2237.828224944752
-2237.828224944752
-2237.828224944752
-2237.828224944752
-2237.828224944752
-2237.828224944752
-2237.828224944752
-2237.828224944752
-925.2681318876798
-925.2681318876798
-925.2681318876798
-925.2681318876798
-925.2681318876798
-925.2681318876798
-925.2681318876798
-925.2681318876798
-925.2681318876798
-925.2681318876798
-925.2681318876798
-925.2681318876798
-925.2681318876798
-925.2681318876798
-925.2681318876798
-925.2681318876798
-925.2681318876798
-925.2681318876798
-925.2681318876798
-925.2681318876798
-925.2681318876798
-925.2681318876798
-925.2681318876798
-925.2681318876798
-925.2681318876798
-925.2681318876798
-925.2681318876798
-925.2681318876798
-925.2681318876798
-925.2681318876798
-925.2681318876798
-925.2681318876798
-925.2681318876798
-925.2681318876798
-925.2681318876798
-925.2681318876798
-925.2681318876798
-925.2681318876798
-925.2681318876798
-925.2681318876798
-925.2681318876798
-925.2681318876798
-925.2681318876798
-925.2681318876798
-925.2681318876798
-925.2681318876798
-925.2681318876798
-925.2681318876798
-925.2681318876798
-925.2681318876798
-925.2681318876798
-925.2681318876798
-925.2681318876798
-925.2681318876798
-925.2681318876798
-925.2681318876798
-925.2681318876798
-925.2681318876798
-925.2681318876798
-925.2681318876798
-925.2681318876798
-925.2681318876798
-925.2681318876798
-925.2681318876798

VECTORS centroid-point-cyl-variance float
8.46e-30 9.999999999999999e-33 1.9999999999999997e-31
6.63e-30 0.0 0.0
6.91e-30 9.999999999999999e-33 1.9999999999999997e-31
6.849999999999999e-30 9.999999999999999e-33 3.0e-32
6.1399999999999995e-30 0.0 9.999999999999999e-33
7.189999999999999e-30 9.999999999999999e-33 7.999999999999999e-32
4.1999999999999996e-30 0.0 0.0
3.04e-30 0.0 0.0
1.64e-30 0.0 4.999999999999999e-32
2.3199999999999997e-30 0.0 0.0
5.0e-30 0.0 1.9999999999999997e-31
8.12e-30 0.0 1.9999999999999997e-31
1.065e-29 0.0 7.999999999999999e-32
1.2529999999999999e-29 9.999999999999999e-33 9.999999999999999e-33
1.536e-29 0.0 0.0
1.385e-29 0.0 0.0
1.3409999999999999e-29 9.999999999999999e-33 0.0
1.387e-29 0.0 0.0
1.384e-29 0.0 0.0
1.661e-29 9.999999999999999e-33 1.9999999999999997e-31
1.446e-29 0.0 1.1e-31
9.979999999999999e-30 0.0 1.9999999999999997e-31
6.28e-30 0.0 1.9999999999999997e-31
3.1299999999999997e-30 0.0 1.9999999999999997e-31
1.39e-30 0.0 0.0
2.03e-30 0.0 4.93e-30
2.9299999999999997e-30 0.0 4.4e-31
5.0e-30 0.0 1.77e-30
6.0e-30 0.0 4.4e-31
6.2e-30 9.999999999999999e-33 0.0
5.9899999999999995e-30 0.0 1.9999999999999997e-31
5.7899999999999995e-30 0.0 3.1e-31
1.514e-29 1.9999999999999998e-32 3.1e-31
1.401e-29 3.0e-32 7.9e-31
1.4199999999999998e-29 3.0e-32 0.0
1.335e-29 3.0e-32 4.4e-31
1.793e-29 3.9999999999999997e-32 7.9e-31
1.942e-29 3.0e-32 4.999999999999999e-32
1.582e-29 1.9999999999999998e-32 0.0
1.6099999999999999e-29 9.999999999999999e-33 7.9e-31
1.443e-29 1.9999999999999998e-32 7.9e-31
2.164e-29 3.0e-32 1.77e-30
3.324e-29 1.9999999999999998e-32 1.9999999999999997e-31
3.889e-29 3.0e-32 9.999999999999999e-33
2.804e-29 1.9999999999999998e-32 1.1e-31
2.915e-29 1.9999999999999998e-32 9.999999999999999e-33
3.0999999999999997e-29 9.999999999999999e-33 0.0
2.9289999999999997e-29 3.0e-32 0.0
2.748e-29 3.0e-32 0.0
2.637e-29 1.9999999999999998e-32 0.0
3.526e-29 1.9999999999999998e-32 9.999999999999999e-33
2.4749999999999998e-29 1.9999999999999998e-32 0.0
3.025e-29 3.0e-32 1.9999999999999997e-31
2.311e-29 1.9999999999999998e-32 1.9999999999999997e-31
1.8169999999999998e-29 1.9999999999999998e-32 4.4e-31
1.13e-29 1.9999999999999998e-32 4.999999999999999e-32
2.0869999999999998e-29 3.0e-32 1.9999999999999997e-31
1.239e-29 1.9999999999999998e-32 3.1e-31
1.5989999999999998e-29 1.9999999999999998e-32 0.0
1.5799999999999999e-29 1.9999999999999998e-32 0.0
1.704e-29 1.9999999999999998e-32 7.999999999999999e-32
1.563e-29 3.9999999999999997e-32 4.999999999999999e-32
1.294e-29 3.0e-32 1.9999999999999997e-31
2.4159999999999998e-29 3.9999999999999997e-32 1.1e-31
7.947999999999999e-29 1.5e-31 4.999999999999999e-32
8.152999999999999e-29 1.2e-31 4.999999999999999e-32
8.025e-29 8.999999999999999e-32 1.9999999999999997e-31
8.263999999999999e-29 7.999999999999999e-32 1.77e-30
7.436999999999999e-29 1.7999999999999998e-31 4.4e-31
7.394e-29 1.3e-31 4.4e-31
6.038e-29 8.999999999999999e-32 0.0
1.3679e-28 1.5e-31 7.9e-31
6.831e-29 8.999999999999999e-32 1.77e-30
1.1368e-28 1.2e-31 4.4e-31
1.1436e-28 1.9e-31 1.2299999999999999e-30
9.107999999999999e-29 8.999999999999999e-32 4.4e-31
1.1291e-28 1.2e-31 9.999999999999999e-33
1.246e-28 1.5999999999999999e-31 7.999999999999999e-32
1.078e-28 8.999999999999999e-32 0.0
9.397999999999999e-29 1.6999999999999998e-31 0.0
9.577e-29 7.999999999999999e-32 0.0
9.286999999999999e-29 3.0e-32 0.0
1.0234e-28 6.0e-32 0.0
8.716e-29 1.3e-31 9.999999999999999e-33
8.570999999999999e-29 1.2e-31 1.1e-31
9.236e-29 7.999999999999999e-32 1.2299999999999999e-30
8.741e-29 1.3e-31 4.999999999999999e-32
6.149e-29 1.2e-31 1.9999999999999997e-31
6.226e-29 1.2e-31 1.1e-31
6.097999999999999e-29 9.999999999999999e-32 4.999999999999999e-32
7.333999999999999e-29 1.4e-31 0.0
1.1598e-28 1.2e-31 4.999999999999999e-32
9.517999999999999e-29 1.1e-31 0.0
7.999e-29 7.999999999999999e-32 4.999999999999999e-32
6.173999999999999e-29 1.7999999999999998e-31 9.999999999999999e-33
7.471e-29 1.3e-31 1.9999999999999997e-31
2.1124e-28 9.999999999999999e-32 9.999999999999999e-33
1.6868999999999999e-28 1.5999999999999999e-31 4.4e-31
1.4319e-28 1.7999999999999998e-31 9.999999999999999e-31
1.5487e-28 1.7999999999999998e-31 4.999999999999999e-32
1.5469999999999998e-28 2.1e-31 1.9999999999999997e-31
1.4037e-28 1.6999999999999998e-31 1.2299999999999999e-30
2.567e-28 2.4e-31 1.9999999999999997e-31
1.6143999999999999e-28 1.4e-31 4.999999999999999e-32
1.7252999999999998e-28 1.5999999999999999e-31 1.2299999999999999e-30
1.6561999999999999e-28 1.7999999999999998e-31 4.999999999999999e-32
1.8898999999999998e-28 1.6999999999999998e-31 1.9999999999999997e-31
2.5201e-28 2.4999999999999998e-31 1.1e-31
1.8609e-28 2.6e-31 7.999999999999999e-32
2.3009e-28 1.6999999999999998e-31 0.0
1.8898999999999998e-28 2.1e-31 0.0
2.6514e-28 2.4e-31 0.0
2.5805999999999997e-28 1.9e-31 0.0
2.2360999999999997e-28 1.9e-31 0.0
1.8880999999999998e-28 2.6e-31 1.9999999999999998e-32
1.8813e-28 2.1e-31 7.999999999999999e-32
2.0809e-28 3.1999999999999997e-31 1.9999999999999997e-31
2.1193e-28 2.1e-31 9.999999999999999e-33
1.5580999999999998e-28 1.9999999999999997e-31 0.0
1.8710999999999998e-28 3.1e-31 9.999999999999999e-33
2.2736e-28 1.9999999999999997e-31 0.0
1.5547e-28 1.5999999999999999e-31 3.0e-32
1.5905e-28 2.3e-31 1.1e-31
1.6622e-28 1.6999999999999998e-31 0.0
1.6357e-28 2.4999999999999998e-31 6.0e-31
2.231e-28 1.9999999999999997e-31 1.1e-31
1.6876999999999999e-28 2.1e-31 3.1e-31
1.9810999999999999e-28 2.2e-31 4.999999999999999e-32
3.0906e-28 1.9e-31 3.1e-31
2.6164999999999998e-28 2.8e-31 1.1e-31
2.5926e-28 5.2e-31 1.9999999999999997e-31
2.654e-28 6.2e-31 1.9999999999999997e-31
4.451699999999999e-28 5.7e-31 3.1e-31
3.5442999999999997e-28 3.1999999999999997e-31 1.1e-31
2.6164999999999998e-28 4.7e-31 3.1e-31
3.4146999999999996e-28 7.9e-31 0.0
2.6438e-28 3.1e-31 0.0
3.8479e-28 3.8e-31 0.0
3.7251e-28 4.1e-31 1.9999999999999997e-31
3.9706999999999998e-28 3.3999999999999997e-31 4.999999999999999e-32
3.8479e-28 7.199999999999999e-31 1.5e-31
3.0837999999999997e-28 2.6e-31 3.0e-32
3.2237e-28 5.5e-31 0.0
4.8645e-28 4.8e-31 0.0
3.1043e-28 3.9999999999999995e-31 0.0
4.0049e-28 4.1e-31 0.0
3.3806e-28 5.2e-31 1.9999999999999998e-32
3.0837999999999997e-28 1.9e-31 4.999999999999999e-32
2.9337e-28 1.5e-31 9.999999999999999e-33
4.1618e-28 3.7e-31 1.1e-31