# vtk DataFile Version 4.0
 
ASCII
DATASET UNSTRUCTURED_GRID
POINTS 152 float
0.0 -0.41360273670661013 -2.283619045874589
0.0 -2.323243118792109 -3.4487521526445004
0.0 -4.165812669412645 -4.647903213636911
0.0 -5.9691036508333015 -5.8329346185514215
0.0 -7.733364897165393 -7.003415374064577
0.0 -9.47673062033964 -8.127936103757138
0.0 -11.214681824296022 -9.179682922252905
0.0 -12.95114115951277 -10.151861599623235
0.0 -14.66190608675873 -11.086392163488672
0.0 -16.337185278753495 -12.000233690172404
0.0 -17.977070214885615 -12.893227732725626
0.0 -19.581759117999244 -13.76503095911104
0.0 -21.151457022327016 -14.615288239620442
0.0 -22.68782195604812 -15.441127785207096
0.0 -24.189754613995134 -16.24445364827398
0.0 -25.654847376311107 -17.02943594873866
0.0 -27.082742516543664 -17.79669428699185
0.0 -28.474025075843986 -18.54521534203521
0.0 -29.82911661088537 -19.2742689562923
0.0 -31.148017247656664 -19.98385491154403
0.0 -32.43072710878205 -20.673972995399104
0.0 -33.67724631352099 -21.344623001294053
0.0 -34.88757497776829 -21.99580472849321
0.0 -36.06171321405404 -22.627517982088712
0.0 -37.19966113154367 -23.239762573000515
0.0 -38.3014188360379 -23.83253831797638
0.0 -39.36698642997278 -24.405845039591874
0.0 -40.39636401241966 -24.959682566250383
0.0 -41.38955153056064 -25.494050989435202
0.0 -42.34654703667295 -26.00895368270111
0.0 -43.267350217723035 -26.504391188238124
0.0 -44.15196146909832 -26.980362821215166
0.0 -45.000381170646946 -27.436867923715912
0.0 -45.81260968667787 -27.873905864738788
0.0 -46.58864736596074 -28.291476040197
0.0 -47.328494541726016 -28.68957787291849
0.0 -48.032359280630544 -29.06785098088222
0.0 -48.70090149051907 -29.42515237017279
0.0 -49.33513105952545 -29.75973286323242
0.0 -49.93557484180008 -30.070679921904404
0.0 -50.50193139357153 -30.35851566211652
0.0 -51.03435747221649 -30.622968572127853
0.0 -51.53879424840346 -30.85374824248412
0.0 -52.01510858407404 -31.05108527506693
0.0 -52.45881617409719 -31.222746714199857
0.0 -52.8668589515451 -31.37402928717478
0.0 -53.238457099040716 -31.506283677309433
0.0 -53.5743413461828 -31.61824422381217
0.0 -53.873858413293256 -31.71104244027695
0.0 -54.13572114199329 -31.786907750413334
0.0 -54.358815275775775 -31.847770103104207
-0.8152906147965383 -2.136991949377832 0.7013786316880779
-0.840508508576773 -4.099766353426794 -0.3717236494306351
-0.8937965186568912 -6.055510150833866 -1.3748511648804282
-0.9506477078523391 -7.979809380113028 -2.3502901363691215
-1.020681877210228 -9.872160195565254 -3.298913250246597
-1.048954977401727 -11.717095312722162 -4.247510629067215
-0.9930987765444168 -13.50372285065846 -5.21494756398357
-0.9074282632528687 -15.222355108054474 -6.218003645889894
-0.838943182597301 -16.89339065406306 -7.221347516611736
-0.780438039247949 -18.526543938414235 -8.208153255649119
-0.7250391551380654 -20.123811024953177 -9.17496357900706
-0.6716005320170477 -21.68504093709939 -10.122039985793714
-0.6190912009117757 -23.20987017692523 -11.050012072888228
-0.5668551203523576 -24.69653392565066 -11.961936596083763
-0.5160737545272154 -26.14607347244151 -12.85600998963972
-0.46824322159258064 -27.560989295575105 -13.727901298136572
-0.4244759216876314 -28.941638939467097 -14.576991236480431
-0.3845740908079094 -30.28744073248865 -15.404287289485785
-0.34771109645469384 -31.59801880258612 -16.21044048664666
-0.3130568676883623 -32.87343525868198 -16.99534325215376
-0.28047282351476527 -34.11371085159615 -17.75895964453266
-0.25028172479700606 -35.318846914507326 -18.501287354650135
-0.22269967179244904 -36.48885304901796 -19.222309752042886
-0.19756508903558764 -37.6237533064655 -19.92198517857248
-0.17527331282135344 -38.723553202575395 -20.60030408072222
-0.15618952887338375 -39.7882625022197 -21.257249545237528
-0.13996799493970205 -40.81790968871218 -21.892772237571847
-0.12575834684109707 -41.812529269747486 -22.50681238864475
-0.11252036551224441 -42.772151719920835 -23.099317214908996
-0.10008619772204906 -43.69678195700783 -23.67027819852739
-0.0884564051429673 -44.58642219917469 -24.21969149752331
-0.07764813403823374 -45.441075033489454 -24.747552630963522
-0.06766754153321136 -46.26074333598614 -25.25385661741091
-0.05846867713071129 -47.045430638636134 -25.73859733931165
-0.05000632361003568 -47.795140163091126 -26.201769216601292
-0.0422455662862189 -48.50987474859092 -26.64336733157226
-0.03513713503927796 -49.18948417627056 -27.063651870930887
-0.028610254341892315 -49.83348347409002 -27.463462830890762
-0.02259956362415257 -50.44037124845267 -27.84540070144346
-0.017476911002663225 -51.00937018892353 -28.210811823755538
-0.013355710955940858 -51.5418861024089 -28.557261268839692
-0.010110762084772787 -52.037879840033185 -28.88481684453752
-0.007505342360435571 -52.49009439386662 -29.20604805729428
-0.005475063785670375 -52.898465808058425 -29.521065681892953
-0.003985447751437076 -53.26845902422576 -29.82040416179228
-0.0029419419370193198 -53.60366746528687 -30.097839505924743
-0.00222865752783443 -53.90466500227691 -30.352377740500426
-0.0017402354220029323 -54.16997588867941 -30.586574933465
-0.0014049497009942318 -54.400095581930884 -30.799572927365386
-0.0011720086804816246 -54.59644879875382 -30.98890404045194
-0.0010052173229800666 -54.76026885707009 -31.152432103421976
-0.6209246712649916 -2.680890095489075 -0.592925781468345
-0.6503643852126241 -4.619360662623342 -1.6670474761518255
-0.6916665849409614 -6.5301093641358285 -2.707032716992123
-0.7392485943984627 -8.407297159379192 -3.7229950190578935
-0.7761138204794831 -10.24723275529591 -4.721327889470394
-0.765770157729804 -12.044233366847193 -5.7118742006453
-0.7126976399239822 -13.79300710749345 -6.703799768937065
-0.6548892921938138 -15.495035566578013 -7.694538406327099
-0.6072679581919687 -17.157361892868018 -8.671891021305456
-0.5645539478947554 -18.78316504796767 -9.630351490858322
-0.5237398826831674 -20.37317315238032 -10.568658673279874
-0.4840093998483088 -21.927243685300017 -11.487059421847164
-0.44472987047405005 -23.444811410762846 -12.386532753967938
-0.40609832807983987 -24.925674845539973 -13.26742764883144
-0.3691188660449235 -26.370723786794514 -14.12820293254269
-0.33476967873007946 -27.780684324747675 -14.967600979947692
-0.3033937546858278 -29.155500826031865 -15.785718150865712
-0.27460694522347623 -30.49494003649421 -16.582958453340606
-0.24778798655364606 -31.798937005293297 -17.359434385529696
-0.22257363420117282 -33.06752283590914 -18.115092074625295
-0.19903295561691423 -34.30070584007669 -18.849917124280193
-0.17736802372104568 -35.49849014773314 -19.56390238123329
-0.15759928531051376 -36.66088840728409 -20.257025937803505
-0.1398144006963529 -37.78791173409005 -20.929268541621667
-0.12429856563552642 -38.87956588524585 -21.580620221107015
-0.11105907142990716 -39.93586522985078 -22.211056088249546
-0.09964737816779967 -40.95683341472142 -22.820535185561507
-0.08935451713250306 -41.94249481399816 -23.409015295793353
-0.07972746121286005 -42.89286244975245 -23.97647386405568
-0.07070347607438114 -43.80793871536794 -24.522906744886416
-0.062289202192950394 -44.68772542310172 -25.048310799364224
-0.054493378339291916 -45.532224718521505 -25.552682311256795
-0.047301081998971 -46.34143909764895 -26.036016957327803
-0.040678125277780114 -47.11537118222755 -26.498310196584324
-0.03459445871109547 -47.85402333034161 -26.939557944704518
-0.029018512997061326 -48.557366324617625 -27.35981080766377
-0.023905271017938854 -49.22527046527892 -27.759293432064993
-0.01920368173726683 -49.857199589709076 -28.13893447880099
-0.015028677985055923 -50.45249127668177 -28.499881295091726
-0.01156223323447653 -51.01140938867112 -28.841676857725826
-0.008799927390267616 -51.534448336639294 -29.163464821797007
-0.006606039166953134 -52.01963430278993 -29.468663940013425
-0.00486765230478973 -52.46494792978158 -29.760771841889095
-0.003547691826415294 -52.87183740687797 -30.03728019004031
-0.0025977711331711486 -53.24275682427252 -30.29393837556571
-0.001938974799320156 -53.57878918165965 -30.528870587969966
-0.0014883348561890108 -53.87959013976155 -30.742673240377233
-0.0011794444211239365 -54.14480177141336 -30.935966280822537
-0.0009663593930534462 -54.374901587167585 -31.107922636767782
-0.0008164597512981341 -54.57058617315509 -31.257335785642407

CELLS 100 350
4 0 51 52 1
4 1 52 53 2
4 2 53 54 3
4 3 54 55 4
4 4 55 56 5
4 5 56 57 6
4 6 57 58 7
4 7 58 59 8
4 8 59 60 9
4 9 60 61 10
4 10 61 62 11
4 11 62 63 12
4 12 63 64 13
4 13 64 65 14
4 14 65 66 15
4 15 66 67 16
4 16 67 68 17
4 17 68 69 18
4 18 69 70 19
4 19 70 71 20
4 20 71 72 21
4 21 72 73 22
4 22 73 74 23
4 23 74 75 24
4 24 75 76 25
4 25 76 77 26
4 26 77 78 27
4 27 78 79 28
4 28 79 80 29
4 29 80 81 30
4 30 81 82 31
4 31 82 83 32
4 32 83 84 33
4 33 84 85 34
4 34 85 86 35
4 35 86 87 36
4 36 87 88 37
4 37 88 89 38
4 38 89 90 39
4 39 90 91 40
4 40 91 92 41
4 41 92 93 42
4 42 93 94 43
4 43 94 95 44
4 44 95 96 45
4 45 96 97 46
4 46 97 98 47
4 47 98 99 48
4 48 99 100 49
4 49 100 101 50
1 102
1 103
1 104
1 105
1 106
1 107
1 108
1 109
1 110
1 111
1 112
1 113
1 114
1 115
1 116
1 117
1 118
1 119
1 120
1 121
1 122
1 123
1 124
1 125
1 126
1 127
1 128
1 129
1 130
1 131
1 132
1 133
1 134
1 135
1 136
1 137
1 138
1 139
1 140
1 141
1 142
1 143
1 144
1 145
1 146
1 147
1 148
1 149
1 150
1 151

CELL_TYPES 100
7
7
7
7
7
7
7
7
7
7
7
7
7
7
7
7
7
7
7
7
7
7
7
7
7
7
7
7
7
7
7
7
7
7
7
7
7
7
7
7
7
7
7
7
7
7
7
7
7
7
7
7
7
7
7
7
7
7
7
7
7
7
7
7
7
7
7
7
7
7
7
7
7
7
7
7
7
7
7
7
7
7
7
7
7
7
7
7
7
7
7
7
7
7
7
7
7
7
7
7

POINT_DATA 152

VECTORS centroid-point-cyl-mean float
2.320772106539629 1.50030138462859e-17 0.0
4.158286906814515 -1.200241107702872e-17 0.0
6.241554251945217 -1.275256176934302e-17 0.0
8.345856736050967 2.100421938480026e-17 0.0
10.433252586532848 -1.950391800017167e-17 0.0
12.484861575413737 4.800964430811488e-17 0.0
14.492607321434548 9.601928861622976e-17 0.0
16.455769543583536 -1.200241107702872e-17 0.0
18.38150106219829 -1.770355633861736e-16 0.0
20.270896167931745 1.200241107702872e-17 0.0
22.1226213383237 -1.200241107702872e-17 0.0
23.935775890090436 4.800964430811488e-17 0.0
25.709741042930336 9.601928861622976e-17 0.0
27.443864385112317 -1.200241107702872e-17 0.0
29.138059348834876 -6.00120553851436e-17 0.0
30.792415992156442 1.8603737169394515e-16 0.0
32.406747287595124 -4.440892098500626e-16 0.0
33.98080511262578 2.0404098830948824e-16 0.0
35.514414560644155 6.481301981595508e-16 0.0
37.007478103566655 -6.601326092365796e-17 0.0
38.4599170594372 3.66073537849376e-16 0.0
39.871667262969346 2.220446049250313e-16 0.0
41.242675876856154 -3.00060276925718e-17 0.0
42.572899008200466 2.1604339938651696e-16 0.0
43.8622999026627 -6.00120553851436e-17 0.0
45.110847559444245 4.620928264656057e-16 0.0
46.31851565707002 3.060614824642323e-16 0.0
47.48528171161989 -4.800964430811488e-17 0.0
48.61112641929687 -2.6405304369463184e-16 0.0
49.696033217934534 -2.0404098830948824e-16 0.0
50.73998765394276 -7.801567200068668e-17 0.0
51.74297710349839 2.880578658486893e-16 0.0
52.70499053189322 1.800361661554308e-17 0.0
53.62601826035772 -2.4604942707908875e-16 0.0
54.506051773384655 -2.820566603101749e-16 0.0
55.34508355863644 -9.601928861622976e-17 0.0
56.14309840675311 9.601928861622976e-17 0.0
56.900065008725065 -5.281060873892637e-16 0.0
57.615942730736606 -4.800964430811488e-17 0.0
58.29071474726188 -1.8603737169394515e-16 0.0
58.92439688013774 9.601928861622976e-17 0.0
59.51698788389346 -2.820566603101749e-16 0.0
60.068303565107236 4.380880043115483e-16 0.0
60.57839068325029 2.370476187713172e-16 0.0
61.04741851025983 -1.83036768924688e-16 0.0
61.47547876279675 -4.770958403118916e-16 0.0
61.86258340419924 -1.4402893292434464e-16 0.0
62.208708542084004 -3.3606751015680416e-16 0.0
62.51386112683032 -2.4304882430983155e-16 0.0
62.7780519600358 -1.8903797446320232e-16 0.0
63.00127981816012 -1.3802772738583027e-16 0.0
2.249147966829731 -7.50150692314295e-18 0.8152906147965383
4.116583853662705 7.50150692314295e-18 0.8405085085767725
6.209623089401251 6.00120553851436e-18 0.8937965186568915
8.31872715432199 2.700542492331462e-17 0.9506477078523395
10.408764362764487 3.450693184645757e-17 1.0206818772102288
12.463212632040552 7.201446646217232e-17 1.0489549774017275
14.475710998859235 -7.201446646217232e-17 0.9930987765444168
16.44334711596191 0.0 0.9074282632528681
18.37211222876839 1.6803375507840208e-16 0.8389431825973012
20.263430365321128 -1.2602531630880155e-16 0.7804380392479483
22.116684354670657 4.200843876960052e-17 0.7250391551380657
23.931082171888622 1.200241107702872e-17 0.671600532017048
25.70604676804079 2.6405304369463184e-16 0.6190912009117754
27.440967823120683 1.800361661554308e-17 0.5668551203523576
29.135788145853 -6.00120553851436e-17 0.5160737545272159
30.79063826883407 -1.200241107702872e-17 0.46824322159258047
32.405356625269654 1.1402290523177283e-16 0.4244759216876317
33.97971649412379 6.601326092365796e-17 0.3845740908079094
35.51356322617745 -1.0802169969325848e-16 0.3477110964546936
37.00681610143308 7.801567200068668e-17 0.31305686768836216
38.459406076049234 -9.601928861622976e-17 0.28047282351476527
39.87127513824638 -6.18124170466979e-16 0.2502817247970059
41.24237613227827 3.060614824642323e-16 0.222699671792449
42.57267088545231 -1.200241107702872e-17 0.19756508903558773
43.862126041163506 -1.5603134400137336e-16 0.17527331282135347
45.11071370721204 -8.401687753920104e-17 0.1561895288733837
46.31841132424627 -1.3202652184731592e-16 0.139967994939702
47.48519988197534 -3.120626880027467e-16 0.12575834684109707
48.61106271772841 1.620325495398877e-16 0.1125203655122444
49.69598397651436 2.400482215405744e-16 0.10008619772204906
50.73994975123908 -3.600723323108616e-16 0.08845640514296735
51.74294793903352 -4.800964430811488e-16 0.07764813403823377
52.704967963662995 -1.620325495398877e-16 0.06766754153321132
53.62600056847379 2.520506326176031e-16 0.05846867713071127
54.50603758566173 8.281663643149818e-16 0.05000632361003566
55.34507178502057 -4.200843876960052e-17 0.0422455662862189
56.14309045749548 9.601928861622976e-17 0.03513713503927796
56.90006911969553 1.3202652184731592e-16 0.02861025434189232
57.615947374886474 -4.800964430811488e-16 0.02259956362415258
58.29070038030074 -1.50030138462859e-16 0.017476911002663232
58.92438539493198 -4.200843876960052e-16 0.013355710955940852
59.517002464742966 -4.800964430811488e-16 0.01011076208477279
60.06832153974356 -4.800964430811488e-17 0.007505342360435571
60.578387266755286 1.4402893292434464e-16 0.005475063785670372
61.047401510533334 -1.4402893292434464e-16 0.00398544775143708
61.475467535053895 2.370476187713172e-16 0.0029419419370193224
61.86258759144926 -4.800964430811488e-16 0.002228657527834429
62.20872007958843 -4.320867987730339e-16 0.0017402354220029325
62.5138711953701 -3.8107655169566184e-16 0.0014049497009942311
62.778056636561345 -1.4552923430897321e-16 0.0011720086804816246
63.00127833033964 9.451898723160116e-17 0.0010052173229800666
2.745675269659775 2.3254671461743137e-17 0.6209246712649911
4.910961231687357 -3.00060276925718e-18 0.6503643852126235
7.068971243288536 -3.00060276925718e-18 0.6916665849409612
9.194745099133288 2.100421938480026e-17 0.739248594398462
11.282584640989873 3.300663046182898e-17 0.7761138204794836
13.330006162004324 -3.600723323108616e-17 0.7657701577298041
15.335839605622052 7.201446646217232e-17 0.7126976399239818
17.300348218922107 -3.00060276925718e-17 0.6548892921938139
19.22437934000051 1.0202049415474412e-16 0.6072679581919687
21.108078052174065 -1.5603134400137336e-16 0.5645539478947551
22.951312172709557 9.00180830777154e-17 0.5237398826831668
24.753919887475973 3.060614824642323e-16 0.484009399848309
26.515757121971056 2.4905002984834595e-16 0.4447298704740503
28.236747385677457 -1.800361661554308e-17 0.40609832807984025
29.91690477209366 -1.50030138462859e-17 0.36911886604492333
31.556227604804338 1.800361661554308e-17 0.3347696787300796
33.15466974583397 -4.200843876960052e-17 0.3033937546858278
34.712186316834064 -2.700542492331462e-17 0.2746069452234762
36.22875041803297 6.901386369291513e-17 0.24778798655364595
37.70434494027882 7.201446646217232e-17 0.22257363420117296
39.138954977358665 -3.3006630461828976e-16 0.1990329556169143
40.53256812923573 -6.901386369291513e-17 0.17736802372104576
41.88517444939422 9.901989138548693e-17 0.15759928531051387
43.19676556075349 -1.3802772738583027e-16 0.1398144006963529
44.467334219096536 -2.100421938480026e-17 0.12429856563552641
45.69687455627768 1.2302471353954437e-16 0.11105907142990722
46.88538183183216 -1.200241107702872e-16 0.09964737816779974
48.032851969677544 -1.6503315230914488e-16 0.08935451713250309
49.13928111080924 6.00120553851436e-18 0.07972746121286002
50.20466561693081 -3.600723323108616e-16 0.07070347607438117
51.22900230720962 1.9503918000171672e-16 0.062289202192950394
52.212288411043325 -1.4402893292434464e-16 0.05449337833929196
53.154521507049395 -4.800964430811488e-16 0.04730108199897099
54.0556994674335 -1.9203857723245952e-16 0.040678125277780135
54.91582040866711 4.50090415388577e-17 0.03459445871109548
55.734882002335596 1.50030138462859e-16 0.029018512997061336
56.51288016220157 5.101024707737206e-17 0.023905271017938847
57.24980335800597 2.370476187713172e-16 0.01920368173726683
57.94563926524564 5.761157316973786e-16 0.01502867798505592
58.60039429717251 6.271259787747505e-16 0.011562233234476528
59.21407810456855 4.800964430811488e-16 0.008799927390267618
59.78665827260673 2.41548522925203e-16 0.006606039166953131
60.31810923677633 -2.400482215405744e-16 0.004867652304789729
60.8084648054392 2.385479201559458e-16 0.0035476918264152916
61.25776568363562 1.4852983707823041e-16 0.0025977711331711495
61.66602459661044 5.101024707737206e-17 0.001938974799320156
62.03323457303599 -4.800964430811488e-16 0.0014883348561890101
62.3593903802294 -6.241253760054934e-16 0.0011794444211239363
62.64449515631281 -1.4327878223203034e-16 0.0009663593930534463
62.888551547147 -9.376883653928687e-17 0.0008164597512981336

VECTORS centroid-point-mean float
0.0 -0.011178452343421208 -0.061719433672285356
0.0 -0.06279035456194756 -0.09320951763903954
0.0 -0.112589531605745 -0.1256190057739696
0.0 -0.16132712569819538 -0.15764688158246976
0.0 -0.20900986208554795 -0.18928149659633836
0.0 -0.25612785460376997 -0.21967394875019172
0.0 -0.3030995087647526 -0.24809953843926644
0.0 -0.35003084214898883 -0.2743746378276546
0.0 -0.3962677320745552 -0.29963222063482964
0.0 -0.44154554807441276 -0.32433064027492736
0.0 -0.4858667625644708 -0.3484656143979884
0.0 -0.5292367329188915 -0.3720278637597562
0.0 -0.5716610006034251 -0.39500779026000943
0.0 -0.6131843771904828 -0.41732777797856785
0.0 -0.6537771517295914 -0.43903928779118795
0.0 -0.6933742534138034 -0.4602550256415863
0.0 -0.7319660139606279 -0.4809917374862645
0.0 -0.7695682452930686 -0.501222036271221
0.0 -0.8061923408347311 -0.5209261880079018
0.0 -0.8418383039907096 -0.5401041867984874
0.0 -0.8765061380751771 -0.5587560269026804
0.0 -0.9101958463113657 -0.5768817027376767
0.0 -0.9429074318315654 -0.5944812088781911
0.0 -0.9746408976771238 -0.6115545400564512
0.0 -1.0053962467984645 -0.628101691162175
0.0 -1.0351734820550655 -0.6441226572426045
0.0 -1.0639726062154673 -0.6596174335024844
0.0 -1.091793621957275 -0.6745860153040636
0.0 -1.1186365278529755 -0.6890284051198665
0.0 -1.1445012712614173 -0.7029446941270603
0.0 -1.1693878437222303 -0.7163348969794022
0.0 -1.1932962559215599 -0.729198995167969
0.0 -1.2162265181255774 -0.7415369709112359
0.0 -1.2381786401804669 -0.7533488071551051
0.0 -1.2591526315124377 -0.7646344875728895
0.0 -1.2791485011277157 -0.7753939965653612
0.0 -1.2981718724494564 -0.7856175940778962
0.0 -1.3162405808248243 -0.7952743883830505
0.0 -1.3333819205276987 -0.8043171044116838
0.0 -1.3496101308594468 -0.8127210789703854
0.0 -1.3649170646911084 -0.8205004233004519
0.0 -1.3793069587085343 -0.8276477992466996
0.0 -1.3929403850919675 -0.8338850876347044
0.0 -1.4058137455154966 -0.8392185209477502
0.0 -1.417805842543152 -0.8438580193027008
0.0 -1.4288340257174212 -0.8479467374912135
0.0 -1.4388772188929724 -0.8515211804678292
0.0 -1.4479551715184336 -0.8545471411841128
0.0 -1.4560502273862859 -0.8570552010885648
0.0 -1.4631275984322334 -0.85910561487604
0.0 -1.469157169615546 -0.8607505433271403
-0.8152906147965383 -0.05775653917237373 0.018956179234811986
-0.8405085085767725 -0.11080449603856113 -0.010046585119748147
-0.8937965186568915 -0.16366243650902193 -0.03715813959136332
-0.9506477078523395 -0.21567052378683677 -0.063521355037004
-1.0206818772102288 -0.2668151404206803 -0.08915981757423296
-1.0489549774017275 -0.3166782516951905 -0.11479758456938556
-0.9930987765444168 -0.3649654824502247 -0.1409445287563146
-0.9074282632528681 -0.4114150029203869 -0.16805415259162035
-0.8389431825973012 -0.4565781257854826 -0.1951715545030219
-0.7804380392479483 -0.5007174037409196 -0.2218419798824089
-0.7250391551380657 -0.5438867844581887 -0.24797198862181355
-0.671600532017048 -0.5860821874891646 -0.2735686482646963
-0.6190912009117754 -0.6272937885655405 -0.29864897494292725
-0.5668551203523576 -0.6674738898824423 -0.32329558367793976
-0.5160737545272159 -0.7066506343903025 -0.3474597294497264
-0.46824322159258047 -0.7448916025831026 -0.3710243594090998
-0.4244759216876317 -0.7822064578234244 -0.39397273612109496
-0.3845740908079094 -0.8185794792564417 -0.4163320889050227
-0.3477110964546936 -0.8540005081779939 -0.4381200131526142
-0.31305686768836216 -0.8884712232076099 -0.4593336014095607
-0.28047282351476527 -0.9219921851782633 -0.4799718822846681
-0.2502817247970059 -0.9545634301218094 -0.5000347933689224
-0.222699671792449 -0.9861852175410167 -0.5195218851903478
-0.19756508903558773 -1.016858197472026 -0.5384320318533081
-0.17527331282135347 -1.0465825189885125 -0.5567649751546561
-0.1561895288733837 -1.0753584460059262 -0.574520257979398
-0.139967994939702 -1.1031867483435576 -0.5916965469613992
-0.12575834684109707 -1.1300683586418137 -0.6082922267201301
-0.1125203655122444 -1.1560041005383888 -0.6243058706732164
-0.10008619772204906 -1.1809941069461425 -0.6397372486088494
-0.08845640514296735 -1.2050384378155181 -0.6545862566898202
-0.07764813403823377 -1.2281371630672708 -0.6688527738098269
-0.06766754153321132 -1.2502903604320421 -0.6825366653354275
-0.05846867713071127 -1.2714981253685287 -0.6956377659273416
-0.05000632361003566 -1.2917605449483909 -0.7081559247730147
-0.0422455662862189 -1.3110776959078485 -0.720091008961416
-0.03513713503927796 -1.3294455182775646 -0.7314500505657021
-0.02861025434189232 -1.3468509047051191 -0.7422557521862383
-0.02259956362415258 -1.3632532769851928 -0.7525783973363123
-0.017476911002663232 -1.3786316267276473 -0.7624543736150141
-0.013355710955940852 -1.3930239487137361 -0.7718178721308053
-0.01011076208477279 -1.4064291848657473 -0.7806707255280395
-0.007505342360435571 -1.4186511998342168 -0.7893526501971443
-0.005475063785670372 -1.4296882650826441 -0.7978666400511646
-0.00398544775143708 -1.4396880817358155 -0.8059568692376248
-0.0029419419370193224 -1.4487477693320605 -0.8134551217817534
-0.002228657527834429 -1.4568828378993592 -0.8203345335270401
-0.0017402354220029325 -1.4640534023967233 -0.8266641873909503
-0.0014049497009942311 -1.470272853565682 -0.832420889928797
-0.0011720086804816246 -1.4755796972635997 -0.8375379470392398
-0.0010052173229800666 -1.48000726640728 -0.8419576244168094
-0.6209246712649911 -0.0724564890672718 -0.01602502112076653
-0.6503643852126235 -0.1248475854763052 -0.045055337193293195
-0.6916665849409612 -0.17648944227393965 -0.07316304640519253
-0.739248594398462 -0.22722424755078707 -0.10062148700156529
-0.7761138204794836 -0.27695223662961654 -0.12760345647217305
-0.7657701577298041 -0.32551982072559665 -0.15437497839581968
-0.7126976399239818 -0.3727839758781967 -0.18118377753883969
-0.6548892921938139 -0.4187847450426439 -0.20796049746829942
-0.6072679581919687 -0.46371248359102224 -0.23437543300825497
-0.5645539478947551 -0.5076531094045263 -0.2602797700231993
-0.5237398826831668 -0.5506263014156785 -0.285639423602159
-0.484009399848309 -0.5926282077108046 -0.31046106545532703
-0.4447298704740503 -0.6336435516422333 -0.3347711555126492
-0.40609832807984025 -0.6736668877172881 -0.35857912564409317
-0.36911886604492333 -0.7127222645079518 -0.38184332250115277
-0.3347696787300796 -0.7508293060742525 -0.40452975621480597
-0.3033937546858278 -0.7879865088116621 -0.42664103110447993
-0.2746069452234762 -0.8241875685538859 -0.4481880663065085
-0.24778798655364595 -0.8594307298727809 -0.46917390231161993
-0.22257363420117296 -0.8937168334029388 -0.48959708309798594
-0.1990329556169143 -0.9270461037858455 -0.5094572195751421
-0.17736802372104576 -0.9594186526414236 -0.528754118411708
-0.15759928531051387 -0.9908348218184784 -0.5474871875082032
-0.1398144006963529 -1.0212949117321528 -0.5656559065303145
-0.12429856563552641 -1.0507990779796048 -0.5832600059758637
-0.11105907142990722 -1.0793477089148726 -0.6002988131959347
-0.09964737816779974 -1.106941443641109 -0.6167712212313934
-0.08935451713250309 -1.1335809409188544 -0.6326760890754991
-0.07972746121286002 -1.159266552695998 -0.648012807136644
-0.07070347607438117 -1.1839983436585773 -0.6627812633753071
-0.062289202192950394 -1.2077763627865143 -0.6769813729557871
-0.05449337833929196 -1.230600668068133 -0.6906130354393741
-0.04730108199897099 -1.2524713269634724 -0.7036761339818375
-0.040678125277780135 -1.2733884103304598 -0.7161705458536349
-0.03459445871109548 -1.2933519819011081 -0.7280961606676907
-0.029018512997061336 -1.312361252016676 -0.7394543461530807
-0.023905271017938847 -1.3304127152777903 -0.7502511738395915
-0.01920368173726683 -1.3474918808029344 -0.7605117426702998
-0.01502867798505592 -1.363580845315705 -0.770267062029503
-0.011562233234476528 -1.3786867402343417 -0.7795047799385385
-0.008799927390267618 -1.3928229280172644 -0.788201751940459
-0.006606039166953131 -1.4059360622375474 -0.7964503767571226
-0.004867652304789729 -1.4179715656697547 -0.8043451849159184
-0.0035476918264152916 -1.4289685785642503 -0.811818383514607
-0.0025977711331711495 -1.4389934276830236 -0.8187550912315047
-0.001938974799320156 -1.448075383288085 -0.8251046104856711
-0.0014883348561890101 -1.4562051389124568 -0.8308830605507364
-0.0011794444211239363 -1.46337302084899 -0.8361071967789864
-0.0009663593930534463 -1.4695919347882933 -0.8407546658585894
-0.0008164597512981336 -1.4748807073825536 -0.8447928590714182

VECTORS centroid-point-cyl-variance float
9.06e-30 0.0 0.0
1.774e-29 9.999999999999999e-33 0.0
3.341e-29 3.0e-32 0.0
4.887e-29 7.0e-32 0.0
7.42e-29 9.999999999999999e-32 0.0
1.1232e-28 2.1e-31 0.0
2.6207e-28 2.4999999999999998e-31 0.0
1.3235999999999999e-28 3.5e-31 0.0
1.9409999999999998e-28 5.5e-31 0.0
2.7154e-28 4.1e-31 0.0
5.0726e-28 3.5999999999999996e-31 0.0
4.5029e-28 7.999999999999999e-31 0.0
3.8786e-28 3.8999999999999997e-31 0.0
3.7933999999999997e-28 5.8999999999999994e-31 0.0
4.5677e-28 6.799999999999999e-31 0.0
6.2017e-28 6.1e-31 0.0
6.113e-28 1.09e-30 0.0
7.0273e-28 2.69e-30 0.0
8.4464e-28 1.9499999999999998e-30 0.0
1.1216299999999999e-27 9.1e-31 0.0
1.2771899999999999e-27 1.5099999999999999e-30 0.0
1.45185e-27 1.76e-30 0.0
1.0820599999999999e-27 1.98e-30 0.0
1.93625e-27 2.15e-30 0.0
1.28401e-27 1.92e-30 0.0
1.0847899999999999e-27 2.63e-30 0.0
1.60058e-27 2.53e-30 0.0
1.7356599999999998e-27 2.09e-30 0.0
1.48323e-27 2.55e-30 0.0
1.43956e-27 2.4599999999999998e-30 0.0
2.44385e-27 1.6999999999999998e-30 0.0
1.63469e-27 2.8199999999999997e-30 0.0
2.14911e-27 2.69e-30 0.0
1.5896599999999999e-27 2.4099999999999998e-30 0.0
2.0031099999999998e-27 2.3099999999999998e-30 0.0
3.23117e-27 3.74e-30 0.0
2.1013499999999998e-27 3.3999999999999996e-30 0.0
1.65379e-27 5.0899999999999994e-30 0.0
1.81071e-27 3.32e-30 0.0
1.77524e-27 3.5499999999999996e-30 0.0
2.60213e-27 3.57e-30 0.0
1.93352e-27 2.14e-30 0.0
3.68965e-27 2.28e-30 0.0
2.50252e-27 3.44e-30 0.0
3.6841899999999996e-27 5.08e-30 0.0
2.6130499999999998e-27 3.01e-30 0.0
2.1163599999999997e-27 4.5e-30 0.0
1.89531e-27 2.8699999999999997e-30 0.0
2.1395599999999998e-27 2.07e-30 0.0
2.32241e-27 3.0299999999999997e-30 0.0
4.4756099999999995e-27 3.48e-30 0.0
4.96e-30 0.0 0.0
1.145e-29 9.999999999999999e-33 1.9999999999999997e-31
1.8569999999999998e-29 3.0e-32 4.999999999999999e-32
3.548e-29 4.999999999999999e-32 1.9999999999999997e-31
1.0379e-28 1.3e-31 7.9e-31
1.0804999999999999e-28 1.3e-31 1.9999999999999997e-31
1.0225e-28 1.5e-31 0.0
1.5725999999999999e-28 1.2e-31 4.4e-31
3.0769999999999997e-28 4.9999999999999995e-31 9.999999999999999e-33
4.0356e-28 4.4e-31 4.4e-31
5.0487e-28 8.6e-31 1.1e-31
3.6670999999999996e-28 4.7e-31 4.999999999999999e-32
3.4658999999999997e-28 4.2e-31 1.1e-31
4.462e-28 8.499999999999999e-31 0.0
4.039e-28 1.09e-30 3.1e-31
7.556e-28 7.0e-31 4.999999999999999e-32
7.9005e-28 1.11e-30 1.1e-31
7.354699999999999e-28 1.32e-30 0.0
6.6998e-28 1.7999999999999998e-30 4.999999999999999e-32
1.0847899999999999e-27 1.3e-30 9.999999999999999e-33
8.0779e-28 1.6499999999999998e-30 0.0
1.07115e-27 1.99e-30 3.0e-32
8.801099999999999e-28 1.74e-30 0.0
1.72884e-27 1.52e-30 9.999999999999999e-33
9.7154e-28 1.73e-30 0.0
1.38908e-27 2.04e-30 0.0
1.19259e-27 1.84e-30 0.0
1.32495e-27 1.55e-30 0.0
1.1311799999999999e-27 2.4699999999999997e-30 0.0
1.3631499999999999e-27 3.23e-30 0.0
1.66335e-27 2.3699999999999997e-30 0.0
1.8816699999999997e-27 1.35e-30 0.0
1.44229e-27 1.79e-30 0.0
1.63469e-27 2.75e-30 0.0
1.57192e-27 2.4699999999999997e-30 0.0
1.63196e-27 2.9799999999999997e-30 0.0
1.96627e-27 2.2099999999999998e-30 0.0
2.2582699999999997e-27 1.09e-30 0.0
1.61286e-27 2.6699999999999997e-30 0.0
2.538e-27 1.77e-30 0.0
1.77524e-27 2.64e-30 0.0
1.91442e-27 3.52e-30 0.0
2.4916099999999997e-27 3.84e-30 0.0
2.2664599999999998e-27 4.5e-30 0.0
1.7547699999999998e-27 3.1299999999999997e-30 0.0
2.39063e-27 3.44e-30 0.0
2.2569099999999998e-27 2.84e-30 0.0
1.93352e-27 3.14e-30 0.0
3.1356599999999997e-27 2.75e-30 0.0
4.34598e-27 2.79e-30 0.0
3.21753e-27 2.89e-30 0.0