# vtk DataFile Version 4.0
 
ASCII
DATASET UNSTRUCTURED_GRID
POINTS 152 float
0.0 -1.7708707379400626 1.4999999999999762
0.0 -1.8250854161503418 3.7363636363635804
0.0 -1.9422959226345637 5.9316512059368325
0.0 -2.0669177328625636 8.085862708719732
0.0 -2.198453178611712 10.19899814471228
0.0 -2.3006338360205594 12.271057513914478
0.0 -2.3424976972091627 14.302040816326326
0.0 -2.3161994612210486 16.291948051947816
0.0 -2.270144206518535 18.240779220778958
0.0 -2.2239145876624176 20.148534322819746
0.0 -2.1773276458756103 22.015213358070184
0.0 -2.1299869354698013 23.84081632653027
0.0 -2.0814823879797277 25.6253432282
0.0 -2.028497947047014 27.36879406307938
0.0 -1.9732322230064856 29.071168831168418
0.0 -1.9205004555720606 30.73246753246709
0.0 -1.8710180976484807 32.352690166975414
0.0 -1.8236150669333975 33.93183673469339
0.0 -1.7774482500802078 35.469907235621015
0.0 -1.7325173951112025 36.966901669758286
0.0 -1.6888222567780482 38.422820037105204
0.0 -1.6463625965617874 39.83766233766177
0.0 -1.6051381826728361 41.21142857142799
0.0 -1.5651487900509853 42.544118738403846
0.0 -1.5263942003654025 43.83573283858935
0.0 -1.4888742020146302 45.08627087198451
0.0 -1.4525885901265831 46.29573283858931
0.0 -1.4175371665585546 47.46411873840377
0.0 -1.3837200369463483 48.591428571427876
0.0 -1.3511410967354964 49.67766233766163
0.0 -1.3198009719931019 50.72282003710503
0.0 -1.289698871944344 51.72690166975808
0.0 -1.260834036892889 52.68990723562078
0.0 -1.2332057382208905 53.611836734693114
0.0 -1.2068132783889876 54.49269016697511
0.0 -1.1816559909363054 55.33246753246674
0.0 -1.1573177425491237 56.131168831168026
0.0 -1.1324787175379696 56.888794063078954
0.0 -1.1051191396351372 57.605343228199544
0.0 -1.0741853005398057 58.280816326529774
0.0 -1.0402800877948748 58.91521335806966
0.0 -1.0030899866469303 59.50853432281919
0.0 -0.9507326557589734 60.060779220778365
0.0 -0.8834743712478346 60.57194805194719
0.0 -0.8102837433755775 61.04204081632565
0.0 -0.7372769059977664 61.47105751391378
0.0 -0.6660134938685938 61.85899814471155
0.0 -0.5950320477905139 62.20586270871896
0.0 -0.5256391271196665 62.51165120593602
0.0 -0.4604090486137486 62.77636363636273
0.0 -0.4015703252868884 62.99999999999909
-0.8152906147965383 1.675907687402354 1.499999999999981
-0.840508508576773 1.7279610531190002 3.736363636363585
-0.8937965186568912 1.8370990402078484 5.931651205936838
-0.9506477078523391 1.9544937256968562 8.08586270871974
-1.020681877210228 2.079137418187977 10.198998144712288
-1.048954977401727 2.1800955487444447 12.271057513914485
-0.9930987765444168 2.2355843555156794 14.30204081632633
-0.9074282632528687 2.226228435862326 16.291948051947823
-0.838943182597301 2.1928249280900944 18.240779220778965
-0.780438039247949 2.1548027316590326 20.148534322819753
-0.7250391551380654 2.1161539742594786 22.01521335807019
-0.6716005320170477 2.0765767027304594 23.840816326530277
-0.6190912009117757 2.0353439212166635 25.625343228200006
-0.5668551203523576 1.9889259921580342 27.368794063079395
-0.5160737545272154 1.9394054938862426 29.07116883116842
-0.46824322159258064 1.8917833829559088 30.732467532467094
-0.4244759216876314 1.8467747481983632 32.352690166975414
-0.3845740908079094 1.8032162463559047 33.93183673469339
-0.34771109645469384 1.7603561333212767 35.469907235621015
-0.3130568676883623 1.718318626939401 36.966901669758286
-0.28047282351476527 1.6771452288501334 38.422820037105204
-0.25028172479700606 1.636838605410856 39.83766233766177
-0.22269967179244904 1.5974179598264926 41.21142857142799
-0.19756508903558764 1.558931394771923 42.544118738403846
-0.17527331282135344 1.5213899416980223 43.83573283858935
-0.15618952887338375 1.4848131303489531 45.08627087198451
-0.13996799493970205 1.449257927352186 46.29573283858931
-0.12575834684109707 1.4147933480970736 47.46411873840377
-0.11252036551224441 1.3814803417740287 48.591428571427876
-0.10008619772204906 1.3493287439342418 49.67766233766163
-0.0884564051429673 1.3183429909101934 50.72282003710503
-0.07764813403823374 1.2885282568379035 51.72690166975808
-0.06766754153321136 1.2598902937854775 52.68990723562078
-0.05846867713071129 1.232436165695625 53.611836734693114
-0.05000632361003568 1.2061723158717654 54.49269016697511
-0.0422455662862189 1.1811044227934822 55.33246753246674
-0.03513713503927796 1.1569320487308905 56.131168831168026
-0.028610254341892315 1.1326852496039244 56.888794063078954
-0.02259956362415257 1.1053612382192817 57.605343228199544
-0.017476911002663225 1.0734053937070749 58.280816326529774
-0.013355710955940858 1.039629329879858 58.91521335806966
-0.010110762084772787 1.0039547489864427 59.50853432281919
-0.007505342360435571 0.9518676351673242 60.060779220778365
-0.005475063785670375 0.8832400767209474 60.57194805194719
-0.003985447751437076 0.8090019568815826 61.04204081632565
-0.0029419419370193198 0.7363401214857432 61.47105751391378
-0.00222865752783443 0.6664023126037744 61.85899814471155
-0.0017402354220029323 0.5962370372027042 62.20586270871896
-0.0014049497009942318 0.52683521015559 62.51165120593602
-0.0011720086804816246 0.4610462649073075 62.77636363636273
-0.0010052173229800666 0.4013368373017363 62.99999999999909
-0.6209246712649916 0.8269562584342074 2.618181818181782
-0.6503643852126241 0.865974867649455 4.83400742115021
-0.6916665849409614 0.9206955802771228 7.008756957328288
-0.7392485943984627 0.9794403150225284 9.142430426716013
-0.7761138204794831 1.0348264857706244 11.235027829313385
-0.765770157729804 1.0754885224438313 13.286549165120409
-0.7126976399239822 1.0908426519629761 15.296994434137074
-0.6548892921938138 1.0838520530147095 17.26636363636339
-0.6072679581919687 1.0686030231333037 19.194656771799355
-0.5645539478947554 1.051453485527188 21.08187384044497
-0.5237398826831674 1.0338596812030507 22.92801484230023
-0.4840093998483088 1.01553656854898 24.733079777365138
-0.44472987047405005 0.9953536756371688 26.497068645639693
-0.40609832807983987 0.9729080360099165 28.219981447123907
-0.3691188660449235 0.9499792439934889 29.90181818181775
-0.33476967873007946 0.9280194800302847 31.542578849721256
-0.3033937546858278 0.9069174773851153 33.142263450834406
-0.27460694522347623 0.8862067277522423 34.70087198515721
-0.24778798655364606 0.865757329448828 36.218404452689654
-0.22257363420117282 0.8456314894349193 37.69486085343175
-0.19903295561691423 0.8258458311803918 39.13024118738349
-0.17736802372104568 0.8064086145596776 40.52454545454488
-0.15759928531051376 0.7873451363839284 41.87777365491591
-0.1398144006963529 0.7686776273741813 43.1899257884966
-0.12429856563552642 0.7504176017201118 44.46100185528693
-0.11105907142990716 0.7325937976202753 45.69100185528691
-0.09964737816779967 0.7152535087078298 46.879925788496536
-0.08935451713250306 0.6984454832635505 48.02777365491582
-0.07972746121286005 0.682195765430371 49.13454545454475
-0.07070347607438114 0.6665091419755884 50.20024118738333
-0.062289202192950394 0.6513892374133554 51.22486085343155
-0.054493378339291916 0.6368403428791137 52.20840445268943
-0.047301081998971 0.622867450416191 53.15087198515693
-0.040678125277780114 0.6094758035115365 54.0522634508341
-0.03459445871109547 0.5966701183338061 54.91257884972092
-0.029018512997061326 0.5843919601359612 55.731818181817374
-0.023905271017938854 0.5723819293646691 56.50998144712349
-0.01920368173726683 0.5595677007870637 57.24706864563925
-0.015028677985055923 0.5446244319505157 57.94307977736466
-0.01156223323447653 0.5280798478032648 58.59801484229971
-0.008799927390267616 0.510922770269637 59.211873840444426
-0.006606039166953134 0.4892055637569247 59.78465677179878
-0.00486765230478973 0.45888951358225094 60.31636363636277
-0.003547691826415294 0.4228709982730223 60.80699443413642
-0.0025977711331711486 0.3860581982160791 61.256549165119715
-0.001938974799320156 0.3506171128002741 61.66502782931267
-0.0014883348561890108 0.31585906347004106 62.03243042671525
-0.0011794444211239365 0.28106819589558774 62.358756957327486
-0.0009663593930534462 0.24719953118190965 62.64400742114937
-0.0008164597512981341 0.21564624159081178 62.88818181818091

CELLS 100 350
4 0 51 52 1
4 1 52 53 2
4 2 53 54 3
4 3 54 55 4
4 4 55 56 5
4 5 56 57 6
4 6 57 58 7
4 7 58 59 8
4 8 59 60 9
4 9 60 61 10
4 10 61 62 11
4 11 62 63 12
4 12 63 64 13
4 13 64 65 14
4 14 65 66 15
4 15 66 67 16
4 16 67 68 17
4 17 68 69 18
4 18 69 70 19
4 19 70 71 20
4 20 71 72 21
4 21 72 73 22
4 22 73 74 23
4 23 74 75 24
4 24 75 76 25
4 25 76 77 26
4 26 77 78 27
4 27 78 79 28
4 28 79 80 29
4 29 80 81 30
4 30 81 82 31
4 31 82 83 32
4 32 83 84 33
4 33 84 85 34
4 34 85 86 35
4 35 86 87 36
4 36 87 88 37
4 37 88 89 38
4 38 89 90 39
4 39 90 91 40
4 40 91 92 41
4 41 92 93 42
4 42 93 94 43
4 43 94 95 44
4 44 95 96 45
4 45 96 97 46
4 46 97 98 47
4 47 98 99 48
4 48 99 100 49
4 49 100 101 50
1 102
1 103
1 104
1 105
1 106
1 107
1 108
1 109
1 110
1 111
1 112
1 113
1 114
1 115
1 116
1 117
1 118
1 119
1 120
1 121
1 122
1 123
1 124
1 125
1 126
1 127
1 128
1 129
1 130
1 131
1 132
1 133
1 134
1 135
1 136
1 137
1 138
1 139
1 140
1 141
1 142
1 143
1 144
1 145
1 146
1 147
1 148
1 149
1 150
1 151

CELL_TYPES 100
7
7
7
7
7
7
7
7
7
7
7
7
7
7
7
7
7
7
7
7
7
7
7
7
7
7
7
7
7
7
7
7
7
7
7
7
7
7
7
7
7
7
7
7
7
7
7
7
7
7
7
7
7
7
7
7
7
7
7
7
7
7
7
7
7
7
7
7
7
7
7
7
7
7
7
7
7
7
7
7
7
7
7
7
7
7
7
7
7
7
7
7
7
7
7
7
7
7
7
7

POINT_DATA 152

VECTORS centroid-point-cyl-mean float
2.3207721065396196 -3.155321349547004e-17 0.0
4.158286906814494 1.200241107702872e-17 0.0
6.241554251945182 -1.350271246165731e-17 0.0
8.345856736050925 -1.200241107702872e-17 0.0
10.433252586532792 -8.251657615457244e-17 0.0
12.48486157541367 -8.401687753920104e-17 0.0
14.492607321434468 3.600723323108616e-17 0.0
16.455769543583454 -1.200241107702872e-16 0.0
18.38150106219819 6.301265815440077e-17 0.0
20.27089616793164 8.401687753920104e-17 0.0
22.12262133832357 5.401084984662924e-17 0.0
23.935775890090294 1.800361661554308e-16 0.0
25.7097410429302 9.601928861622976e-17 0.0
27.44386438511217 1.200241107702872e-17 0.0
29.13805934883472 -3.600723323108616e-17 0.0
30.792415992156297 -6.00120553851436e-17 0.0
32.40674728759496 -1.6803375507840208e-16 0.0
33.9808051126256 -3.3606751015680416e-16 0.0
35.514414560643985 1.200241107702872e-16 0.0
37.007478103566456 2.4604942707908875e-16 0.0
38.45991705943698 2.400482215405744e-16 0.0
39.87166726296911 1.0802169969325848e-16 0.0
41.242675876855955 1.0202049415474412e-16 0.0
42.57289900820021 1.5603134400137336e-16 0.0
43.86229990266244 -1.800361661554308e-17 0.0
45.11084755944404 -2.820566603101749e-16 0.0
46.31851565706977 -3.060614824642323e-16 0.0
47.485281711619685 9.601928861622976e-17 0.0
48.61112641929663 -7.201446646217232e-17 0.0
49.6960332179343 -2.400482215405744e-16 0.0
50.73998765394247 -1.800361661554308e-17 0.0
51.74297710349813 1.4402893292434464e-16 0.0
52.70499053189297 -4.200843876960052e-17 0.0
53.626018260357455 -1.800361661554308e-17 0.0
54.506051773384385 9.601928861622976e-17 0.0
55.34508355863616 -2.4604942707908875e-16 0.0
56.1430984067528 -5.161036763122349e-16 0.0
56.900065008724766 2.880578658486893e-16 0.0
57.61594273073631 -1.9203857723245952e-16 0.0
58.29071474726157 -2.880578658486893e-16 0.0
58.92439688013748 6.00120553851436e-18 0.0
59.51698788389314 -3.720747433878903e-16 0.0
60.06830356510689 2.400482215405744e-16 0.0
60.57839068324997 3.3306690738754696e-16 0.0
61.0474185102595 9.901989138548693e-17 0.0
61.475478762796435 9.301868584697257e-17 0.0
61.86258340419889 2.400482215405744e-16 0.0
62.208708542083684 -9.601928861622976e-17 0.0
62.51386112683 -4.800964430811488e-17 0.0
62.77805196003547 -3.3606751015680416e-16 0.0
63.00127981815979 2.4754972846371735e-16 0.0
2.249147966829723 -6.00120553851436e-18 0.8152906147965383
4.116583853662688 2.850572630794321e-17 0.8405085085767725
6.209623089401222 7.50150692314295e-18 0.8937965186568915
8.31872715432195 -1.200241107702872e-17 0.9506477078523395
10.408764362764424 2.850572630794321e-17 1.0206818772102288
12.46321263204048 6.00120553851436e-17 1.0489549774017275
14.475710998859162 1.200241107702872e-17 0.9930987765444168
16.443347115961824 -6.00120553851436e-18 0.9074282632528681
18.372112228768284 -1.4402893292434464e-16 0.8389431825973012
20.263430365321007 -1.9203857723245952e-16 0.7804380392479483
22.11668435467056 -7.201446646217232e-17 0.7250391551380657
23.931082171888495 -1.200241107702872e-17 0.671600532017048
25.70604676804066 1.200241107702872e-17 0.6190912009117754
27.440967823120534 -1.200241107702872e-17 0.5668551203523576
29.135788145852857 4.200843876960052e-17 0.5160737545272159
30.790638268833916 1.1402290523177283e-16 0.46824322159258047
32.4053566252695 -1.0202049415474412e-16 0.4244759216876317
33.97971649412363 -1.620325495398877e-16 0.3845740908079094
35.51356322617728 -1.5603134400137336e-16 0.3477110964546936
37.00681610143291 -9.601928861622976e-17 0.31305686768836216
38.45940607604902 -7.201446646217232e-17 0.28047282351476527
39.87127513824619 9.601928861622976e-17 0.2502817247970059
41.24237613227804 4.740952375426344e-16 0.222699671792449
42.57267088545211 -1.50030138462859e-16 0.19756508903558773
43.86212604116328 -6.00120553851436e-18 0.17527331282135347
45.110713707211815 3.600723323108616e-17 0.1561895288733837
46.318411324246036 8.401687753920104e-17 0.139967994939702
47.48519988197509 5.401084984662924e-17 0.12575834684109707
48.61106271772817 0.0 0.1125203655122444
49.69598397651412 1.3202652184731592e-16 0.10008619772204906
50.73994975123884 3.9007836000343344e-16 0.08845640514296735
51.74294793903327 -1.5603134400137336e-16 0.07764813403823377
52.70496796366273 -3.240650990797754e-16 0.06766754153321132
53.626000568473515 -5.581121150818355e-16 0.05846867713071127
54.50603758566145 6.601326092365796e-17 0.05000632361003566
55.34507178502028 -4.860976486196631e-16 0.0422455662862189
56.143090457495205 1.8603737169394515e-16 0.03513713503927796
56.90006911969525 -2.3404701600206e-16 0.02861025434189232
57.6159473748862 5.761157316973786e-16 0.02259956362415258
58.29070038030046 -3.540711267723472e-16 0.017476911002663232
58.9243853949317 -3.00060276925718e-17 0.013355710955940852
59.51700246474265 -6.121229649284646e-16 0.01011076208477279
60.068321539743245 1.9203857723245952e-16 0.007505342360435571
60.57838726675497 -6.691344175443511e-16 0.005475063785670372
61.047401510533035 6.241253760054934e-16 0.00398544775143708
61.475467535053596 -1.050210969240013e-16 0.0029419419370193224
61.86258759144895 5.101024707737206e-17 0.002228657527834429
62.208720079588126 1.8903797446320232e-16 0.0017402354220029325
62.5138711953698 -6.211247732362362e-16 0.0014049497009942311
62.778056636560976 2.880578658486893e-16 0.0011720086804816246
63.00127833033934 -1.50030138462859e-16 0.0010052173229800666
2.7456752696597633 -3.00060276925718e-18 0.6209246712649911
4.910961231687331 -6.301265815440077e-17 0.6503643852126235
7.0689712432885035 -3.00060276925718e-18 0.6916665849409612
9.194745099133245 -3.300663046182898e-17 0.739248594398462
11.282584640989823 -9.00180830777154e-18 0.7761138204794836
13.330006162004254 -9.601928861622976e-17 0.7657701577298041
15.335839605621976 -7.801567200068668e-17 0.7126976399239818
17.30034821892201 6.00120553851436e-17 0.6548892921938139
19.224379340000418 -7.201446646217232e-17 0.6072679581919687
21.10807805217397 0.0 0.5645539478947551
22.95131217270944 7.801567200068668e-17 0.5237398826831668
24.753919887475853 -3.600723323108616e-17 0.484009399848309
26.51575712197092 -2.7905605754091773e-16 0.4447298704740503
28.236747385677322 -3.900783600034334e-17 0.40609832807984025
29.916904772093506 -1.3202652184731592e-16 0.36911886604492333
31.55622760480417 -1.200241107702872e-16 0.3347696787300796
33.1546697458338 9.601928861622976e-17 0.3033937546858278
34.71218631683389 -1.3802772738583027e-16 0.2746069452234762
36.22875041803281 -6.601326092365796e-17 0.24778798655364595
37.704344940278645 9.901989138548693e-17 0.22257363420117296
39.13895497735843 3.1506329077200387e-16 0.1990329556169143
40.53256812923553 -2.5805183815611744e-16 0.17736802372104576
41.885174449394 1.9203857723245952e-16 0.15759928531051387
43.196765560753285 1.050210969240013e-16 0.1398144006963529
44.46733421909628 -1.4402893292434464e-16 0.12429856563552641
45.696874556277464 3.300663046182898e-17 0.11105907142990722
46.88538183183193 2.1604339938651696e-16 0.09964737816779974
48.0328519696773 -4.2308499046526237e-16 0.08935451713250309
49.13928111080901 1.0202049415474412e-16 0.07972746121286002
50.20466561693058 9.301868584697257e-17 0.07070347607438117
51.22900230720932 2.0404098830948824e-16 0.062289202192950394
52.21228841104303 -3.8407715446491904e-16 0.05449337833929196
53.15452150704912 -7.261458701602376e-16 0.04730108199897099
54.05569946743322 5.281060873892637e-16 0.040678125277780135
54.915820408666825 -1.4402893292434464e-16 0.03459445871109548
55.73488200233532 -2.880578658486893e-16 0.029018512997061336
56.51288016220129 2.400482215405744e-16 0.023905271017938847
57.249803358005664 -5.791163344666357e-16 0.01920368173726683
57.94563926524536 -1.4402893292434464e-16 0.01502867798505592
58.600394297172215 9.901989138548693e-17 0.011562233234476528
59.21407810456824 4.800964430811488e-16 0.008799927390267618
59.78665827260644 -1.3952802877045887e-16 0.006606039166953131
60.31810923677601 1.4402893292434464e-16 0.004867652304789729
60.808464805438895 -2.9255877000257503e-16 0.0035476918264152916
61.257765683635306 5.251054846200065e-17 0.0025977711331711495
61.66602459661011 1.0052019277011551e-16 0.001938974799320156
62.033234573035664 -3.3606751015680416e-16 0.0014883348561890101
62.359390380229094 -5.281060873892637e-16 0.0011794444211239363
62.64449515631247 -2.8580741377174636e-16 0.0009663593930534463
62.88855154714663 -1.8978812515551662e-16 0.0008164597512981336

VECTORS centroid-point-mean float
0.0 -0.04786137129567815 0.04054054054053778
0.0 -0.049326632868929784 0.10098280098279554
0.0 -0.05249448439553219 0.1603148974577474
0.0 -0.0558626414287227 0.21853682996539234
0.0 -0.05941765347599787 0.27564859850573015
0.0 -0.06217929286542739 0.33165020307876036
0.0 -0.06331074857322938 0.38654164368448507
0.0 -0.06259998543841606 0.4403229203229024
0.0 -0.06135524882483651 0.4929940329940125
0.0 -0.06010579966656545 0.5445549816978169
0.0 -0.058846693131786254 0.5950057664343151
0.0 -0.05756721447217019 0.644346387203504
0.0 -0.05625628075622471 0.6925768440053901
0.0 -0.05482426883912224 0.7396971368399649
0.0 -0.05333060062181295 0.7857072657072368
0.0 -0.05190541771818152 0.8306072306071997
0.0 -0.050568056693219815 0.874397031539856
0.0 -0.049286893700921645 0.9170766685052041
0.0 -0.048039141894079165 0.9586461415032479
0.0 -0.04682479446248567 0.9991054505339839
0.0 -0.045643844777806475 1.0384545955974127
0.0 -0.04449628639358002 1.0766935766935377
0.0 -0.04338211304523685 1.1138223938223524
0.0 -0.04230131865005253 1.1498410469838638
0.0 -0.04125389730719628 1.1847495361780624
0.0 -0.040239843297720936 1.2185478614049607
0.0 -0.03925915108452997 1.2512360226645476
0.0 -0.038311815312421 1.2828140199568285
0.0 -0.0373978388364189 1.3132818532818045
0.0 -0.036517326938822696 1.3426395226394714
0.0 -0.03567029654038094 1.3708870280298358
0.0 -0.03485672626879388 1.3980243694528902
0.0 -0.034076595591732255 1.4240515469086354
0.0 -0.03332988481680915 1.4489685603970777
0.0 -0.03261657509162191 1.4727754099182115
0.0 -0.03193664840371456 1.4954720954720404
0.0 -0.03127885790676063 1.5170586170585598
0.0 -0.030607532906467137 1.5375349746777764
0.0 -0.029868084855034383 1.556901168329684
0.0 -0.029032035149756788 1.5751571980142778
0.0 -0.028115678048544458 1.5923030637315783
0.0 -0.027110540179680898 1.6083387654815644
0.0 -0.02569547718270741 1.6232643032642404
0.0 -0.023877685709440495 1.6370796770796172
0.0 -0.021899560631810484 1.6497848869276854
0.0 -0.019926402864845018 1.661379932808443
0.0 -0.01800036469918378 1.6718648147218984
0.0 -0.016081947237620055 1.6812395326680416
0.0 -0.014206462895164002 1.6895040866468836
0.0 -0.012443487800406007 1.696658476658414
0.0 -0.010853252034817783 1.7027027027026396
-0.8152906147965383 0.04529480236222498 0.04054054054054028
-0.8405085085767725 0.046701650084295096 0.10098280098279876
-0.8937965186568915 0.04965132541102023 0.1603148974577505
-0.9506477078523395 0.05282415474855905 0.21853682996539497
-1.0206818772102288 0.056192903194263344 0.27564859850573276
-1.0489549774017275 0.05892150131741099 0.3316502030787633
-0.9930987765444168 0.060421198797713446 0.38654164368448835
-0.9074282632528681 0.060168336104377655 0.44032292032290604
-0.8389431825973012 0.05926553859701877 0.49299403299401706
-0.7804380392479483 0.05823791166645062 0.5445549816978219
-0.7250391551380657 0.057193350655648144 0.5950057664343171
-0.671600532017048 0.05612369466837896 0.6443463872035071
-0.6190912009117754 0.05500929516800346 0.6925768440053913
-0.5668551203523576 0.053754756544795675 0.7396971368399681
-0.5160737545272159 0.05241636469961107 0.7857072657072398
-0.46824322159258047 0.051129280620412686 0.8306072306072021
-0.4244759216876317 0.04991283103236609 0.8743970315398589
-0.3845740908079094 0.04873557422581289 0.9170766685052083
-0.3477110964546936 0.047577192792447084 0.9586461415032507
-0.31305686768836216 0.0464410439713103 0.9991054505339875
-0.28047282351476527 0.045328249428362014 1.0384545955974172
-0.2502817247970059 0.04423888122730003 1.0766935766935373
-0.222699671792449 0.043173458373665465 1.1138223938223524
-0.19756508903558773 0.042133280939754526 1.1498410469838642
-0.17527331282135347 0.041118647072893935 1.1847495361780678
-0.1561895288733837 0.040130084604000894 1.2185478614049612
-0.139967994939702 0.0391691331716542 1.2512360226645476
-0.12575834684109707 0.03823765805664982 1.2828140199568312
-0.1125203655122444 0.03733730653440805 1.313281853281806
-0.10008619772204906 0.03646834443062777 1.3426395226394763
-0.08845640514296735 0.03563089164618865 1.3708870280298349
-0.07764813403823377 0.03482508802261872 1.3980243694528909
-0.06766754153321132 0.03405108902119945 1.4240515469086414
-0.05846867713071127 0.03330908555931606 1.4489685603970808
-0.05000632361003566 0.03259925178028385 1.4727754099182164
-0.0422455662862189 0.03192174115654536 1.4954720954720446
-0.03513713503927796 0.03126843374945294 1.5170586170585605
-0.02861025434189232 0.030613114854121853 1.5375349746777744
-0.02259956362415258 0.029874628059949903 1.5569011683296843
-0.017476911002663232 0.029010956586639384 1.5751571980142838
-0.013355710955940852 0.028098089996722576 1.5923030637315758
-0.01011076208477279 0.027133912134742987 1.608338765481566
-0.007505342360435571 0.025726152301789807 1.6232643032642435
-0.005475063785670372 0.023871353424859073 1.6370796770796203
-0.00398544775143708 0.021864917753520185 1.6497848869276814
-0.0029419419370193224 0.019901084364440852 1.6613799328084453
-0.002228657527834429 0.01801087331357779 1.6718648147218982
-0.0017402354220029325 0.01611451451895883 1.6812395326680425
-0.0014049497009942311 0.01423878946362345 1.6895040866468825
-0.0011720086804816246 0.012460709862325047 1.696658476658415
-0.0010052173229800666 0.010846941548657457 1.7027027027026413
-0.6209246712649911 0.02235016914686912 0.07076167076166856
-0.6503643852126235 0.02340472615268528 0.1306488492202735
-0.6916665849409612 0.02488366433181048 0.18942586371157177
-0.739248594398462 0.02647135986546833 0.24709271423556278
-0.7761138204794836 0.027968283399200423 0.30364940079224817
-0.7657701577298041 0.029067257363337973 0.3590959233816262
-0.7126976399239818 0.029482233836828936 0.41343228200369564
-0.6548892921938139 0.029293298730116313 0.46665847665846033
-0.6072679581919687 0.028881162787376527 0.518774507345918
-0.5645539478947551 0.028417661770993217 0.5697803740660676
-0.5237398826831668 0.027942153546012455 0.6196760768189118
-0.484009399848309 0.027446934285094843 0.6684616156044481
-0.4447298704740503 0.02690145069288064 0.7161369904226806
-0.40609832807984025 0.026294811784033888 0.7627022012736021
-0.36911886604492333 0.025675114702512613 0.808157248157218
-0.3347696787300796 0.025081607568365763 0.85250213107353
-0.3033937546858278 0.024511283172550736 0.8957368500225306
-0.2746069452234762 0.023951533182475487 0.9378614050042283
-0.24778798655364595 0.023398846741842068 0.978875796018618
-0.22257363420117296 0.02285490511984173 1.0187800230657025
-0.1990329556169143 0.022320157599444748 1.0575740861454777
-0.17736802372104576 0.02179482742050967 1.0952579852579456
-0.15759928531051387 0.02127959828061983 1.1318317204031074
-0.1398144006963529 0.020775071010085692 1.1672952915809631
-0.12429856563552641 0.020281556803221735 1.2016486987915136
-0.11105907142990722 0.019799832368085496 1.234891942034753
-0.09964737816779974 0.019331175910994532 1.2670250213106913
-0.08935451713250309 0.01887690495304171 1.2980479366193185
-0.07972746121286002 0.018437723389980787 1.3279606879606418
-0.07070347607438117 0.01801376059391 1.3567632753346575
-0.062289202192950394 0.01760511452465446 1.3844556987413648
-0.05449337833929196 0.017211901158869954 1.411037958180767
-0.04730108199897099 0.016834255416623322 1.4365100536528599
-0.040678125277780135 0.016472319013794347 1.4608719851576462
-0.03459445871109548 0.016126219414397378 1.4841237526951276
-0.029018512997061336 0.015794377300939133 1.506265356265301
-0.023905271017938847 0.015469781874687035 1.5272967958681685
-0.01920368173726683 0.01512345137258892 1.5472180715037276
-0.01502867798505592 0.014719579241868 1.5660291831719821
-0.011562233234476528 0.014272428318975326 1.58373013087293
-0.008799927390267618 0.01380872352076365 1.6003209146065662
-0.006606039166953131 0.013221771993399432 1.6158015343729046
-0.004867652304789729 0.012402419285967895 1.630171990171929
-0.0035476918264152916 0.011428945899234674 1.6434322820036495
-0.0025977711331711495 0.010434005357157048 1.6555824098680636
-0.001938974799320156 0.009476138183753553 1.6666223737651689
-0.0014883348561890101 0.00853673144510043 1.6765521736949702
-0.0011794444211239363 0.007596437726872729 1.6853718096574646
-0.0009663593930534463 0.006681068410285156 1.6930812816526477
-0.0008164597512981336 0.005828276799715374 1.6996805896805303

VECTORS centroid-point-cyl-variance float
1.06e-29 0.0 0.0
3.8869999999999997e-29 9.999999999999999e-33 0.0
8.653999999999999e-29 3.9999999999999997e-32 0.0
1.5018e-28 8.999999999999999e-32 0.0
2.4074999999999998e-28 7.0e-32 0.0
3.4599e-28 9.999999999999999e-32 0.0
4.8610999999999995e-28 2.6999999999999997e-31 0.0
5.8094e-28 2.4999999999999998e-31 0.0
7.6412999999999995e-28 4.4e-31 0.0
9.1081e-28 3.1e-31 0.0
1.0987799999999999e-27 3.0e-31 0.0
1.27139e-27 5.2e-31 0.0
1.3999899999999999e-27 7.5e-31 0.0
1.6302599999999997e-27 9.1e-31 0.0
1.8131e-27 7.1e-31 0.0
2.02801e-27 4.1e-31 0.0
2.4329299999999998e-27 7.999999999999999e-31 0.0
2.40701e-27 1.66e-30 0.0
2.65535e-27 2.0499999999999998e-30 0.0
3.04969e-27 2.12e-30 0.0
3.08517e-27 2.2e-30 0.0
3.4686e-27 1.9999999999999998e-30 0.0
3.5109e-27 1.72e-30 0.0
3.95573e-27 1.3599999999999999e-30 0.0
4.16587e-27 1.0299999999999999e-30 0.0
4.47288e-27 3.04e-30 0.0
4.7403299999999994e-27 3.0e-30 0.0
5.03506e-27 1.74e-30 0.0
4.94637e-27 2.3199999999999997e-30 0.0
5.60543e-27 2.19e-30 0.0
5.1974399999999996e-27 3.3499999999999996e-30 0.0
5.70914e-27 2.15e-30 0.0
5.64364e-27 2.17e-30 0.0
6.3477299999999996e-27 1.88e-30 0.0
6.470539999999999e-27 2.38e-30 0.0
7.128229999999999e-27 2.4099999999999998e-30 0.0
6.7489e-27 1.87e-30 0.0
6.889439999999999e-27 3.4999999999999996e-30 0.0
7.09958e-27 3.89e-30 0.0
7.21966e-27 2.65e-30 0.0
7.6331e-27 2.0499999999999998e-30 0.0
7.16507e-27 2.08e-30 0.0
7.91556e-27 2.9299999999999997e-30 0.0
8.18164e-27 3.04e-30 0.0
8.151619999999999e-27 2.89e-30 0.0
8.476369999999999e-27 3.23e-30 0.0
8.22394e-27 3.9499999999999996e-30 0.0
8.00152e-27 2.55e-30 0.0
8.42043e-27 2.4699999999999997e-30 0.0
8.754739999999999e-27 2.8699999999999997e-30 0.0
9.582999999999999e-27 5.31e-30 0.0
7.06e-30 9.999999999999999e-33 0.0
3.288e-29 1.9999999999999998e-32 1.9999999999999997e-31
6.991e-29 9.999999999999999e-33 4.999999999999999e-32
1.2672999999999998e-28 6.0e-32 1.9999999999999997e-31
2.1720999999999997e-28 9.999999999999999e-33 7.9e-31
3.0743999999999997e-28 1.4e-31 1.9999999999999997e-31
3.8717999999999997e-28 1.9999999999999997e-31 0.0
5.843499999999999e-28 2.8e-31 4.4e-31
6.645199999999999e-28 4.6e-31 9.999999999999999e-33
8.0199e-28 4.7e-31 4.4e-31
1.02714e-27 3.9999999999999995e-31 1.1e-31
1.2389799999999998e-27 4.4e-31 4.999999999999999e-32
1.33723e-27 2.2e-31 1.1e-31
1.52212e-27 5.2e-31 0.0
1.7128099999999998e-27 6.799999999999999e-31 3.1e-31
2.14365e-27 5.8999999999999994e-31 4.999999999999999e-32
2.1805e-27 8.7e-31 1.1e-31
2.42747e-27 3.3999999999999997e-31 0.0
2.92416e-27 1.88e-30 4.999999999999999e-32
2.7563199999999997e-27 1.0799999999999999e-30 9.999999999999999e-33
3.2843899999999996e-27 1.2799999999999999e-30 0.0
3.29804e-27 2.4199999999999997e-30 3.0e-32
3.67737e-27 1.27e-30 0.0
3.82337e-27 1.4599999999999999e-30 9.999999999999999e-33
3.9980299999999995e-27 2.35e-30 0.0
4.2982299999999996e-27 2.03e-30 0.0
4.64618e-27 1.3599999999999999e-30 0.0
4.82084e-27 2.96e-30 0.0
4.96138e-27 2.7699999999999997e-30 0.0
5.2274599999999995e-27 1.2e-30 0.0
5.09647e-27 1.94e-30 0.0
5.6845699999999996e-27 3.16e-30 0.0
5.68321e-27 2.54e-30 0.0
5.99295e-27 2.25e-30 0.0
6.293149999999999e-27 7.699999999999999e-31 0.0
6.774819999999999e-27 3.18e-30 0.0
6.724339999999999e-27 2.53e-30 0.0
7.22921e-27 2.25e-30 0.0
7.028619999999999e-27 3.0799999999999997e-30 0.0
7.14188e-27 1.67e-30 0.0
7.13233e-27 4.18e-30 0.0
7.369749999999999e-27 3.47e-30 0.0
7.9715e-27 1.1599999999999999e-30 0.0
8.016529999999999e-27 2.79e-30 0.0
7.67404e-27 3.6199999999999995e-30 0.0
8.45864e-27 2.55e-30 0.0
8.56234e-27 2.3e-30 0.0
8.29489e-27 2.69e-30 0.0
8.499569999999999e-27 2.43e-30 0.0
8.29489e-27 4.86e-30 0.0
9.07813e-27 4.6699999999999995e-30 0.0
1.347e-29 9.999999999999999e-33 3.1e-31
4.927e-29 3.9999999999999997e-32 3.1e-31