# vtk DataFile Version 4.0
 
ASCII
DATASET UNSTRUCTURED_GRID
POINTS 62 float
0.0 -0.4135939027941263 -2.2836343466598406
0.0 -5.135618272828269 -5.286666405000382
0.0 -9.595747256430439 -8.213649507138651
0.0 -13.992106767371665 -10.721419504127223
0.0 -18.205419199095008 -13.016571270727924
0.0 -22.192142046413686 -15.174522638213089
0.0 -25.955048997369452 -17.190469437970055
0.0 -29.481116545525243 -19.08696904484053
0.0 -32.77357499832586 -20.858426402206007
0.0 -35.83271142594029 -22.504344289948527
0.0 -38.658525431153855 -24.024723396064054
0.0 -41.25101731234838 -25.419563203740097
0.0 -43.61019709047477 -26.688846356180573
0.0 -45.73606476029616 -27.832572862456
0.0 -47.628923246601786 -28.85021804144053
0.0 -49.29104494814832 -29.737845983032564
0.0 -50.73767867341396 -30.469044976192976
0.0 -51.968414689494246 -31.044524699129827
0.0 -52.996526332357696 -31.44129505955968
0.0 -53.800511427937 -31.69659891544035
0.0 -54.35880764069873 -31.84778332744558
-0.8152938918039478 -2.1369849706879194 0.7013665442425792
-0.9232602711185554 -7.0921095612152545 -1.8979240889482467
-1.045017403566863 -11.851969378773783 -4.305758158079116
-0.8624275731409438 -16.240711435100373 -6.826721973484586
-0.7172432011617597 -20.344862163451282 -9.310947356567107
-0.5835709082011334 -24.21672615461835 -11.667840098606106
-0.458823694439046 -27.85107908482948 -13.90644899381004
-0.35706975050238215 -31.261436915324527 -16.003363710598364
-0.27205245991127286 -34.44518940278607 -17.963105323016944
-0.20240159072431146 -37.40242668466706 -19.785517708417636
-0.1506132401889805 -40.1333570867822 -21.470240035904855
-0.11426271706148827 -42.63831729741182 -23.016689144270693
-0.08424963388989035 -44.91765070218752 -24.42427027215467
-0.059335794404298196 -46.97142986360726 -25.69285773762361
-0.038970351202568594 -48.79932257509479 -26.82302693934616
-0.02333805368457717 -50.399053127250305 -27.818719521626054
-0.011931771028020786 -51.75574085303027 -28.70570955583323
-0.005641151376299379 -52.869733331332604 -29.48339501765682
-0.0026418300562744777 -53.727410536894006 -30.17536648285326
-0.0014569859069231085 -54.35036100768022 -30.74423150680469
-0.001005086180947595 -54.76027047095547 -31.152429308090504
-0.6519578110959388 -4.15456197141649 -1.3949966732221533
-0.7381041280070318 -8.945450293653227 -4.013920331652641
-0.7152918662654275 -13.48323705817807 -6.541563675744623
-0.5923765403635137 -17.744280845265205 -9.018874845626279
-0.4878052910110849 -21.760290774964695 -11.390932034307582
-0.39089797599006726 -25.54382584526583 -13.635982419178946
-0.30596004185303555 -29.09671419291959 -15.750859574504474
-0.23592082890512064 -32.42182131227286 -17.730600318486555
-0.17792026898834412 -35.5186418358282 -19.576079973307284
-0.1323805615924845 -38.38732352143024 -21.287042614872504
-0.0993284839689258 -41.02807073701053 -22.863134267541348
-0.07444213160676699 -43.44113980020264 -24.30391097614959
-0.05384453561032071 -45.6266879435194 -25.609100405996422
-0.036864804602575046 -47.584655665375514 -26.778805616850725
-0.023365651832679663 -49.31438691272317 -27.814162925923714
-0.013226184267224234 -50.811638195300496 -28.72252227395042
-0.006589845901620062 -52.0728144894996 -29.51011042447412
-0.0031061180372151964 -53.09454657831646 -30.18276303252747
-0.0015370559861990949 -53.878794049252186 -30.737085992996736
-0.0009232770329515139 -54.43640168806784 -31.154295585946436

CELLS 40 140
4 0 21 22 1
4 1 22 23 2
4 2 23 24 3
4 3 24 25 4
4 4 25 26 5
4 5 26 27 6
4 6 27 28 7
4 7 28 29 8
4 8 29 30 9
4 9 30 31 10
4 10 31 32 11
4 11 32 33 12
4 12 33 34 13
4 13 34 35 14
4 14 35 36 15
4 15 36 37 16
4 16 37 38 17
4 17 38 39 18
4 18 39 40 19
4 19 40 41 20
1 42
1 43
1 44
1 45
1 46
1 47
1 48
1 49
1 50
1 51
1 52
1 53
1 54
1 55
1 56
1 57
1 58
1 59
1 60
1 61

CELL_TYPES 40
7
7
7
7
7
7
7
7
7
7
7
7
7
7
7
7
7
7
7
7
7
7
7
7
7
7
7
7
7
7
7
7
7
7
7
7
7
7
7
7

POINT_DATA 62

VECTORS centroid-point-cyl-mean float
2.3207855880440618 -1.800361661554308e-17 0.0
7.370442098135466 -3.300663046182898e-17 0.0
12.631009604754947 2.362974680790029e-17 0.0
17.627475371504826 -7.801567200068668e-17 0.0
22.380089719675347 1.4402893292434464e-16 0.0
26.88414599547187 -1.5603134400137336e-16 0.0
31.131604647907814 -7.801567200068668e-17 0.0
35.12048718468393 1.800361661554308e-17 0.0
38.84818104039285 -4.200843876960052e-17 0.0
42.31345790709209 -7.201446646217232e-17 0.0
45.51558988707673 -2.700542492331462e-16 0.0
48.454108419953485 1.200241107702872e-16 0.0
51.12869849794609 3.1806389354126107e-16 0.0
53.53914205421987 1.6803375507840208e-16 0.0
55.68527103884253 4.800964430811488e-17 0.0
57.56688801551596 1.9203857723245952e-16 0.0
59.18339918362153 5.221048818507493e-16 0.0
60.53493734310905 -9.301868584697257e-17 0.0
61.621318050805954 2.880578658486893e-16 0.0
62.443329609445776 0.0 0.0
63.00127991549391 -3.00060276925718e-18 0.0
2.2491375667861755 4.50090415388577e-18 0.8152938918039475
7.341671054718469 -7.201446646217232e-17 0.9232602711185551
12.609866433521685 -2.3442209134819997e-20 1.0450174035668625
17.617174598143084 -9.00180830777154e-18 0.8624275731409441
22.37425210206134 1.7403496061691643e-16 0.71724320116176
26.88100292426639 -4.800964430811488e-17 0.5835709082011332
31.12992017026175 8.401687753920104e-17 0.4588236944390458
35.11958268636622 9.601928861622976e-17 0.35706975050238243
38.8477055415067 -4.620928264656057e-16 0.2720524599112728
42.31321581837059 1.3202652184731592e-16 0.20240159072431135
45.51546504491133 9.00180830777154e-17 0.15061324018898056
48.454040916303 -2.700542492331462e-16 0.11426271706148837
51.12866439611924 -2.400482215405744e-16 0.08424963388989029
53.5391273944351 -2.880578658486893e-16 0.05933579440429822
55.68526428039156 4.800964430811488e-16 0.038970351202568594
57.56688033883986 -2.880578658486893e-16 0.023338053684577188
59.183396931486556 3.00060276925718e-16 0.011931771028020786
60.53494267192648 -9.601928861622976e-17 0.005641151376299383
61.62132248965828 0.0 0.0026418300562744785
62.44333040933338 3.390681129260613e-16 0.0014569859069231076
63.00127835090163 -3.405684143106899e-16 0.0010050861809475953
4.382510797778027 -3.00060276925718e-17 0.651957811095939
9.804725258010823 1.50030138462859e-16 0.7381041280070315
14.98631832341915 5.401084984662924e-17 0.7152918662654278
19.90476340469079 -1.5603134400137336e-16 0.5923765403635137
24.5614247799518 -1.3802772738583027e-16 0.48780529101108516
28.955604903877084 -7.201446646217232e-17 0.39089797599006765
33.086377168862285 -1.200241107702872e-16 0.30596004185303555
36.953331174048024 3.8107655169566184e-16 0.23592082890512064
40.55609479453331 6.631332120058367e-16 0.17792026898834398
43.89447334718064 1.1702350800103e-16 0.13238056159248454
46.968345690866805 1.4402893292434464e-16 0.09932848396892573
49.77763268655273 -2.6405304369463184e-16 0.07444213160676702
52.322277055760026 -5.101024707737206e-17 0.053844535610320744
54.60223333397125 -9.301868584697257e-17 0.036864804602575026
56.617456811902095 3.3006630461828976e-16 0.02336565183267968
58.36784955664983 4.2908619600377667e-16 0.013226184267224226
59.85335935536543 5.26605786004635e-16 0.006589845901620066
61.07397203911614 -4.650934292348629e-17 0.003106118037215195
62.02977433090196 -1.9053827584783092e-16 0.0015370559861990955
62.72090530438165 -4.800964430811488e-17 0.0009232770329515135

VECTORS centroid-point-mean float
0.0 -0.011178213589029725 -0.06171984720702171
0.0 -0.13880049386022078 -0.142882875810821
0.0 -0.25934452044406203 -0.22199052721996299
0.0 -0.37816504776679616 -0.2897680947061394
0.0 -0.49203835673229 -0.3517992235331867
0.0 -0.5997876228760382 -0.41012223346521587
0.0 -0.7014878107397045 -0.46460728210729857
0.0 -0.7967869336628356 -0.5158640282389323
0.0 -0.8857722972520408 -0.5637412541136755
0.0 -0.9684516601605347 -0.608225521349959
0.0 -1.044825011652795 -0.6493168485422711
0.0 -1.114892359793187 -0.6870152217227001
0.0 -1.1786539754182221 -0.7213201717886658
0.0 -1.2361098583863661 -0.7522316989852909
0.0 -1.2872681958540844 -0.7797356227416362
0.0 -1.3321904040039905 -0.8037255671089902
0.0 -1.371288612794955 -0.8234877020592697
0.0 -1.4045517483646912 -0.8390412080845842
0.0 -1.4323385495231613 -0.8497647313394495
0.0 -1.4540678764307111 -0.8566648355524425
0.0 -1.4691569632621082 -0.8607509007417748
-0.8152938918039475 -0.05775635055913287 0.018955852547095683
-0.9232602711185551 -0.19167863678959993 -0.05129524564725085
-1.0450174035668625 -0.32032349672361204 -0.11637184211024701
-0.8624275731409441 -0.43893814689459876 -0.1845059992833689
-0.71724320116176 -0.5498611395527306 -0.25164722585316607
-0.5835709082011332 -0.6545061122869746 -0.31534702969205713
-0.4588236944390458 -0.752731867157545 -0.37584997280567667
-0.35706975050238243 -0.8449037004141675 -0.43252334352968885
-0.2720524599112728 -0.9309510649401539 -0.48548933305451286
-0.20240159072431135 -1.0108763968828804 -0.5347437218491272
-0.15061324018898056 -1.0846853266697754 -0.5802767577271606
-0.11426271706148837 -1.1523869539840867 -0.6220726795748824
-0.08424963388989029 -1.2139905595185654 -0.6601154127609338
-0.05933579440429822 -1.2694981044218039 -0.6944015604763185
-0.038970351202568594 -1.3189006101376817 -0.7249466740363854
-0.023338053684577188 -1.3621365710067501 -0.7518572843682834
-0.011931771028020786 -1.3988038068386384 -0.7758299879954971
-0.005641151376299383 -1.4289117116576187 -0.7968485139907215
-0.0026418300562744785 -1.4520921766727903 -0.8155504454825206
-0.0014569859069231076 -1.4689286758832327 -0.830925175859584
-0.0010050861809475953 -1.480007310025805 -0.841957548867312
-0.651957811095939 -0.11228545868693114 -0.03770261278978844
-0.7381041280070315 -0.24176892685548976 -0.10848433328790973
-0.7152918662654278 -0.36441181238318704 -0.17679901826336875
-0.5923765403635137 -0.4795751579801342 -0.2437533742061167
-0.48780529101108516 -0.5881159668909307 -0.30786302795426035
-0.39089797599006765 -0.6903736714936622 -0.36854006538321465
-0.30596004185303555 -0.7863976808897104 -0.4256989074190387
-0.23592082890512064 -0.8762654408722267 -0.4792054140131508
-0.17792026898834398 -0.9599632928602115 -0.5290832425218182
-0.13238056159248454 -1.0374952303089142 -0.5753254760776368
-0.09932848396892573 -1.1088667766759468 -0.617922547771391
-0.07444213160676702 -1.174084859464925 -0.6568624588148577
-0.053844535610320744 -1.2331537282032103 -0.6921378488107113
-0.036864804602575026 -1.2860717747398624 -0.7237515031581286
-0.02336565183267968 -1.332821267911419 -0.7517341331330705
-0.013226184267224226 -1.3732875187918903 -0.7762843857824449
-0.006589845901620066 -1.4073733645810527 -0.7975705520128183
-0.003106118037215195 -1.4349877453598883 -0.8157503522304743
-0.0015370559861990955 -1.4561836229527465 -0.8307320538647786
-0.0009232770329515135 -1.471254099677491 -0.8420079888093637

VECTORS centroid-point-cyl-variance float
7.14e-30 9.999999999999999e-33 0.0
4.682e-29 6.0e-32 0.0
1.4865e-28 1.5e-31 0.0
4.3665e-28 2.1e-31 0.0
2.7836e-28 5.799999999999999e-31 0.0
4.23e-28 3.8e-31 0.0
6.3075e-28 9.6e-31 0.0
1.30721e-27 1.92e-30 0.0
9.4152e-28 1.15e-30 0.0
1.34678e-27 1.04e-30 0.0
1.34678e-27 1.74e-30 0.0
2.5257199999999998e-27 2.5199999999999997e-30 0.0
1.51052e-27 2.8199999999999997e-30 0.0
1.35496e-27 3.0199999999999998e-30 0.0
1.4900499999999999e-27 4.01e-30 0.0
1.81071e-27 2.5199999999999997e-30 0.0
4.71304e-27 4.59e-30 0.0
3.2188899999999998e-27 3.06e-30 0.0
2.46432e-27 3.4999999999999996e-30 0.0
1.9881e-27 2.5599999999999998e-30 0.0
2.27328e-27 2.73e-30 0.0
3.0299999999999997e-30 9.999999999999999e-33 1.1e-31
2.403e-29 3.9999999999999997e-32 4.999999999999999e-32
1.2332e-28 1.5999999999999999e-31 1.9999999999999997e-31
1.7022e-28 4.6e-31 1.1e-31
3.7354e-28 4.3e-31 1.1e-31
5.147599999999999e-28 5.399999999999999e-31 4.999999999999999e-32
4.6768999999999995e-28 1.04e-30 4.999999999999999e-32
8.6647e-28 1.01e-30 7.999999999999999e-32
7.6276e-28 2.3099999999999998e-30 0.0
1.09298e-27 2.48e-30 9.999999999999999e-33
2.18186e-27 2.08e-30 0.0
1.79025e-27 3.0199999999999998e-30 9.999999999999999e-33
1.65106e-27 3.31e-30 0.0
1.68791e-27 2.43e-30 0.0
2.38245e-27 2.33e-30 0.0
1.82436e-27 2.8199999999999997e-30 0.0
1.80662e-27 5.3699999999999996e-30 0.0
2.0304e-27 3.57e-30 0.0
2.0522299999999998e-27 2.5599999999999998e-30 0.0
2.63625e-27 2.7e-30 0.0
2.02904e-27 3.89e-30 0.0
8.039999999999999e-30 1.9999999999999998e-32 4.999999999999999e-32
5.559999999999999e-29 1.4e-31 1.1e-31
1.0464e-28 2.8e-31 1.1e-31
3.3362e-28 4.899999999999999e-31 0.0
2.9303e-28 4.1e-31 7.999999999999999e-32
4.5710999999999995e-28 8.7e-31 1.5e-31
6.072099999999999e-28 2.0499999999999998e-30 0.0
8.9785e-28 8.4e-31 0.0
9.0604e-28 2.1599999999999998e-30 1.9999999999999998e-32
2.09726e-27 1.29e-30 0.0
2.7249399999999998e-27 1.5599999999999999e-30 0.0
1.29629e-27 1.83e-30 0.0
1.6469699999999998e-27 3.49e-30 0.0
1.8775699999999997e-27 3.74e-30 0.0
2.0917999999999998e-27 1.68e-30 0.0
1.80525e-27 5.0199999999999996e-30 0.0
2.65125e-27 3.39e-30 0.0
4.1740499999999995e-27 3.6699999999999995e-30 0.0
3.3921899999999995e-27 4.91e-30 0.0
2.07816e-27 3.66e-30 0.0

VECTORS centroid-point-cart-variance float
0.0 2.6247367593934685 2.7573746942812534
0.0 27.121168910461517 27.162566718210158
0.0 80.03656828043744 79.38929598051472
0.0 156.31323539404434 154.1876782269022
0.0 252.3813786259828 248.12117279656127
0.0 364.5624892645645 357.6668712023439
0.0 489.20648543574237 479.2623774426892
0.0 622.9113844845787 609.6362504916809
0.0 762.4415771892965 745.6371961936741
0.0 904.7837275746168 884.3371555777504
0.0 1047.1386703800329 1023.0169807137539
0.0 1186.9207350047413 1159.164912879066
0.0 1321.7577443186578 1290.476537791219
0.0 1449.4910268502388 1414.8548849407387
0.0 1568.175473610296 1530.4088900096292
0.0 1676.080561600927 1635.4453281302822
0.0 1771.6994955909215 1728.4166788819427
0.0 1853.738900055184 1808.0629833162527
0.0 1921.137457442546 1873.2756870569633
0.0 1973.0085098203956 1923.3127148637514
0.0 2008.6465195996232 1957.6154370949657
1.1e-31 2.581038827290771 2.473885846662371
4.999999999999999e-32 27.544351943190883 26.316410030472586
1.9999999999999997e-31 81.04945622604168 77.84312569702567
1.1e-31 157.92430202494248 152.21382963594476
1.1e-31 254.42311880095502 245.81836472657204
4.999999999999999e-32 366.9510691410687 355.1094270731937
4.999999999999999e-32 491.83818778246484 476.525873558512
7.999999999999999e-32 625.7242194443802 606.7599299144636
0.0 765.3783879013569 742.6634681604304
9.999999999999999e-33 907.7967698280099 881.3036411261662
0.0 1050.1889280025675 1019.9553668785296
9.999999999999999e-33 1189.977938418895 1156.1011725894814
0.0 1324.7997717149567 1287.4310257792717
0.0 1452.501945975509 1411.8423972177184
0.0 1571.1429262447712 1527.4406852326656
0.0 1678.9847831823836 1632.5402233497923
0.0 1774.4432726003547 1725.6726354892387
0.0 1856.224044288067 1805.5784837713952
0.0 1923.1889304655888 1871.2247606901942
0.0 1974.5723287784228 1921.7489957280502
0.0 2009.7984040734143 1956.4633556225474
4.999999999999999e-32 9.79754336068309 9.394828020714199
1.1e-31 48.87150870188759 47.19090761862597
1.1e-31 114.0405268851118 110.38515614387347
0.0 201.0254783234309 194.8847198336978
7.999999999999999e-32 305.9312770309246 296.89165015581244
1.5e-31 425.0416013586547 412.7730164046913
0.0 554.8239881931197 539.0847250948051
0.0 691.963262246447 672.5879436607373
1.9999999999999998e-32 833.3464912211974 810.2488751608188
0.0 976.0758424258249 949.2415522441923
0.0 1117.466672127341 1086.947411005969
0.0 1255.047511578809 1220.9552607515277
0.0 1386.5595163715413 1349.0614370090348
0.0 1509.956002790927 1469.2700854184059
0.0 1623.4009994092785 1579.793899699209
0.0 1725.2580838152944 1679.0592419955346
0.0 1814.1063618089634 1765.701445740772
0.0 1888.7400525431597 1838.565369625078
0.0 1948.1875484986465 1896.6947685548992
0.0 1991.7201991678696 1939.318196954303

CELL_DATA 40

SCALARS Gamma-cyl-variance float
LOOKUP_TABLE default
0.0
1.9253584087234454
0.29077381522574475
3.01706802427232
3.0768514032158376
2.0537063957626476
1.6363428856343838
1.275963267418647
0.8960155013172002
0.8341696171677621
0.5188934264779416
0.4635104791484146
0.2718510859345955
0.13273173821521103
0.03709371717481738
0.007984915705960802
0.0006193697802937061
3.517410319304468e-5
3.2552249335099552e-6
7.555267676340497e-6
0.0
1.9253584087234454
0.29077381522574475
3.01706802427232
3.0768514032158376
2.0537063957626476
1.6363428856343838
1.275963267418647
0.8960155013172002
0.8341696171677621
0.5188934264779416
0.4635104791484146
0.2718510859345955
0.13273173821521103
0.03709371717481738
0.007984915705960802
0.0006193697802937061
3.517410319304468e-5
3.2552249335099552e-6
7.555267676340497e-6

SCALARS Gamma-cart-variance float
LOOKUP_TABLE default
0.0
1.9253584087234454
0.29077381522574475
3.01706802427232
3.0768514032158376
2.0537063957626476
1.6363428856343838
1.275963267418647
0.8960155013172002
0.8341696171677621
0.5188934264779416
0.4635104791484146
0.2718510859345955
0.13273173821521103
0.03709371717481738
0.007984915705960802
0.0006193697802937061
3.517410319304468e-5
3.2552249335099552e-6
7.555267676340497e-6
0.0
1.9253584087234454
0.29077381522574475
3.01706802427232
3.0768514032158376
2.0537063957626476
1.6363428856343838
1.275963267418647
0.8960155013172002
0.8341696171677621
0.5188934264779416
0.4635104791484146
0.2718510859345955
0.13273173821521103
0.03709371717481738
0.007984915705960802
0.0006193697802937061
3.517410319304468e-5
3.2552249335099552e-6
7.555267676340497e-6

VECTORS centroid-cell-cart-variance float
0.0 0.09336328470610449 0.09103701570906611
0.0 0.4814946252754574 0.4692373350075531
0.0 1.1308703591891993 1.101832043763951
0.0 1.9997388817720885 1.9481146694771247
0.0 3.04841541170752 2.969519468042714
0.0 4.239387092927395 4.129498914330931
0.0 5.537255336694493 5.393599686563421
0.0 6.9087615218901215 6.729433150046333
0.0 8.322779613189015 8.106683621861595
0.0 9.750314035948799 9.49711032004629
0.0 11.164500574105743 10.874546326526874
0.0 12.540607154875126 12.21489774779695
0.0 13.85603143913505 13.49614609586809
0.0 15.090299522890545 14.698349562905866
0.0 16.22506734252877 15.803641605725769
0.0 17.24412373087003 16.796227888263886
0.0 18.133387653849876 17.662389045169054
0.0 18.880903497300995 18.390485394144562
0.0 19.476846682421538 18.970951318558896
0.0 19.91352614552221 19.396292790616247
0.0 0.006123464600426929 0.005871767512946371
0.0 0.03054469293867975 0.029494317261641236
0.0 0.07127532930319488 0.0689907225899209
0.0 0.12564092395214435 0.12180294989606116
0.0 0.1912070481443279 0.1855572813473827
0.0 0.2656510008491592 0.25798313525293204
0.0 0.3467649926206997 0.33692795318425317
0.0 0.43247703890402944 0.4203674647879608
0.0 0.5208415570132483 0.5064055469755118
0.0 0.6100474015161407 0.5932759701526202
0.0 0.6984166700795881 0.6793421318787307
0.0 0.7844046947367559 0.7630970379697047
0.0 0.8665996977322132 0.8431633981306467
0.0 0.9437225017443294 0.9182938033865035
0.0 1.014625624630799 0.987371187312006
0.0 1.078286302384559 1.0494120262472093
0.0 1.1338164761306024 1.1035634035879824
0.0 1.1804625328394747 1.1491033560156736
0.0 1.2176172178116538 1.1854342303468117
0.0 1.2448251244799187 1.2120738730964393

VECTORS D-cart-variance float
7.284166055340012 507.4483524668988 519.6908663547406
700.1585001666715 257988.0418773108 264211.031622437
319.9034580065395 962943.8829785332 995568.2274710567
849.2701472747092 1.5261770546785153e6 1.5596465540108657e6
624.0387076046329 1.620115761671774e6 1.6544878644280918e6
428.8015295997581 1.8674039886103168e6 1.910845435124355e6
304.09762580078575 1.9445578689972041e6 1.9946448904583985e6
240.77774457554685 2.106464989622733e6 2.1607210076028523e6
189.90253766811276 2.3133964112269753e6 2.3758472804169115e6
141.21792746264427 1.9650860398633943e6 2.0182905679780105e6
112.84774098835678 1.9556804148897834e6 2.0106973820148779e6
94.51198895593161 1.9333342474614708e6 1.9858760959301095e6
77.41152831019659 1.986454183433507e6 2.045165142350471e6
63.833255880956195 1.871670534609268e6 1.92842255241113e6
44.01770221171461 1.6839731673313763e6 1.7381244381466436e6
28.611256331428187 1.367141275145453e6 1.412755708396341e6
15.948730648700478 944000.7460197656 976524.5870302322
6.893760313747236 476428.8795252068 493154.1481430874
2.0488360151355596 157645.82399621228 163242.7103034528
0.2373680694818792 23187.773972043673 24035.948585908827
7.284166055340012 507.4483524668988 519.6908663547406
700.1585001666715 257988.0418773108 264211.031622437
319.9034580065395 962943.8829785332 995568.2274710567
849.2701472747092 1.5261770546785153e6 1.5596465540108657e6
624.0387076046329 1.620115761671774e6 1.6544878644280918e6
428.8015295997581 1.8674039886103168e6 1.910845435124355e6
304.09762580078575 1.9445578689972041e6 1.9946448904583985e6
240.77774457554685 2.106464989622733e6 2.1607210076028523e6
189.90253766811276 2.3133964112269753e6 2.3758472804169115e6
141.21792746264427 1.9650860398633943e6 2.0182905679780105e6
112.84774098835678 1.9556804148897834e6 2.0106973820148779e6
94.51198895593161 1.9333342474614708e6 1.9858760959301095e6
77.41152831019659 1.986454183433507e6 2.045165142350471e6
63.833255880956195 1.871670534609268e6 1.92842255241113e6
44.01770221171461 1.6839731673313763e6 1.7381244381466436e6
28.611256331428187 1.367141275145453e6 1.412755708396341e6
15.948730648700478 944000.7460197656 976524.5870302322
6.893760313747236 476428.8795252068 493154.1481430874
2.0488360151355596 157645.82399621228 163242.7103034528
0.2373680694818792 23187.773972043673 24035.948585908827

VECTORS S-cyl-mean float
4.2777777196878223e-16 7.747980204189506e-17 1.83163789547056e-18
1.0986416323615213e-15 1.7699392282535483e-16 -5.89695972057701e-18
-5.755843087456603e-15 -9.05793581973659e-16 5.44808910644818e-17
5.185852477860383e-15 8.171022514122934e-16 -3.674543570882027e-17
3.7391699435391325e-15 5.926462526135541e-16 -1.952304266596048e-17
-9.607159111822409e-15 -1.5294801004959678e-15 4.099983648933622e-17
3.2492662795071737e-15 5.19306439668699e-16 -1.1628357835387459e-17
3.80337042379561e-15 6.045204165427462e-16 -1.242326748428648e-17
2.4380960091515438e-14 3.828253906007287e-15 -7.928087292885317e-17
-6.677340966160974e-15 -1.046482799713213e-15 2.037213414526944e-17
3.791248549762979e-15 6.002189563454927e-16 -1.0541348666221109e-17
-8.43738076771293e-15 -1.3098677636087568e-15 2.446505881861953e-17
-2.0322346364030024e-15 -3.006469747300951e-16 7.197127180495089e-18
-9.656261205220714e-15 -1.5030907146613406e-15 2.6251144972175327e-17
2.8986914883002725e-15 4.58600542614263e-16 -7.05332139651639e-18
1.3210215497812188e-14 2.043226236419991e-15 -3.6295258141519656e-17
9.765129046613692e-15 1.5108931828708005e-15 -2.692901987259749e-17
5.710615187096284e-15 8.88440337121644e-16 -1.458929615935897e-17
1.1232221128751767e-15 1.7467597229315389e-16 -2.7410844280063997e-18
-1.1091728833647185e-15 -1.7336702806242638e-16 2.2066193324834697e-18
4.3451106033455975e-16 -1.403853133213622e-17 1.83163789547056e-18
1.1112969095105746e-15 5.796088325192188e-17 -5.89695972057701e-18
-5.807636663140385e-15 -4.706889094871828e-16 5.44808910644818e-17
5.2230035511444045e-15 5.300527484379747e-16 -3.674543570882027e-17
3.760928531303132e-15 4.3363352019118405e-16 -1.952304266596048e-17
-9.653426641727905e-15 -1.203399206607467e-15 4.099983648933622e-17
3.2624379206591448e-15 4.2884653113789605e-16 -1.1628357835387459e-17
3.8164507145473285e-15 5.155341482883446e-16 -1.242326748428648e-17
2.445258345674205e-14 3.340345078579934e-15 -7.928087292885317e-17
-6.694483184764296e-15 -9.305393690625187e-16 2.037213414526944e-17
3.7999525311346306e-15 5.423920378839344e-16 -1.0541348666221109e-17
-8.454335698677303e-15 -1.1955566367111157e-15 2.446505881861953e-17
-2.0357374318815112e-15 -2.7593355947922443e-16 7.197127180495089e-18
-9.672231869749523e-15 -1.3966362510522618e-15 2.6251144972175327e-17
2.9031585565700157e-15 4.2941494785911804e-16 -7.05332139651639e-18
1.3228274071384076e-14 1.9228447790136744e-15 -3.6295258141519656e-17
9.77692807832866e-15 1.432557453735289e-15 -2.692901987259749e-17
5.716423622594908e-15 8.502664375114785e-16 -1.458929615935897e-17
1.1241087865258107e-15 1.6887583072720596e-16 -2.7410844280063997e-18
-1.1098222907497712e-15 -1.6915996738511212e-16 2.2066193324834697e-18

VECTORS L-cart-variance float
0.1146942072605827 4749.783426609921 4897.016621064892
77.91910633721135 91878.62261564234 94209.53292536174
3.538532442113929 171092.62591528398 176515.0062429996
654.6473515716507 297166.4028613265 304038.82599562005
1816.4111861857302 351358.92293275543 358970.60181496013
1956.257518084214 423855.54187277774 433713.08725826937
2360.817409580365 461611.9929954865 473347.9515184435
2419.164616731977 510851.81528892025 523738.00663439115
2063.9761043878666 568081.4894098288 583006.9341765135
2476.800517828844 488864.4161623072 501741.5842196626
1678.1408178656413 488236.53252640733 501599.8276385208
1757.850883296655 485511.68690180493 498469.7892400097
1062.025534669725 500231.94229123497 514476.231808982
476.93389506695263 474208.5743451598 488213.9846282553
91.29404430610953 426472.29212479887 439675.99438424053
5.45227466154257 351399.3311728378 362685.88851246657
4.348499163554596 241750.15279007045 249739.67888677536
10.966070792808091 126879.67033096697 131162.77023134596
2.4843226631081508 43902.472445409956 45396.06878412151
0.45638679203769356 7567.153092114617 7828.021003773834
0.1146942072605827 4749.783426609921 4897.016621064892
77.91910633721135 91878.62261564234 94209.53292536174
3.538532442113929 171092.62591528398 176515.0062429996
654.6473515716507 297166.4028613265 304038.82599562005
1816.4111861857302 351358.92293275543 358970.60181496013
1956.257518084214 423855.54187277774 433713.08725826937
2360.817409580365 461611.9929954865 473347.9515184435
2419.164616731977 510851.81528892025 523738.00663439115
2063.9761043878666 568081.4894098288 583006.9341765135
2476.800517828844 488864.4161623072 501741.5842196626
1678.1408178656413 488236.53252640733 501599.8276385208
1757.850883296655 485511.68690180493 498469.7892400097
1062.025534669725 500231.94229123497 514476.231808982
476.93389506695263 474208.5743451598 488213.9846282553
91.29404430610953 426472.29212479887 439675.99438424053
5.45227466154257 351399.3311728378 362685.88851246657
4.348499163554596 241750.15279007045 249739.67888677536
10.966070792808091 126879.67033096697 131162.77023134596
2.4843226631081508 43902.472445409956 45396.06878412151
0.45638679203769356 7567.153092114617 7828.021003773834

VECTORS centroid-cell-mean float
-0.043463854073062545 -0.009985342369949586 -0.005923552902949913
-0.04920694186713547 -0.022753678695437395 -0.013313512269706961
-0.04768612441769516 -0.034919280295726725 -0.020315911582992906
-0.03949176935756759 -0.04647506727366042 -0.026943013584396762
-0.0325203527340723 -0.05740483078620068 -0.033222892813590754
-0.026059865066004467 -0.0677128353265065 -0.039148162951756243
-0.020397336123535698 -0.07739775779935609 -0.044721115667039936
-0.015728055260341375 -0.0864603499067298 -0.04994044897342007
-0.011861351265889608 -0.09490128548089011 -0.05480499575918217
-0.008825370772832299 -0.10272095988414981 -0.059314071236713624
-0.006621898931261721 -0.10991974130249615 -0.06346703768917561
-0.004962808773784465 -0.11649809621785165 -0.06726308714617987
-0.003589635707354711 -0.12245631244362386 -0.07070172110028053
-0.0024576536401716698 -0.12779441921999898 -0.07378288890599076
-0.0015577101221786445 -0.13251239452506294 -0.07650662870638232
-0.0008817456178149485 -0.1366104848661086 -0.07887251353830045
-0.00043932306010800395 -0.14008889699139726 -0.08088018530325188
-0.00020707453581434652 -0.1429473546554571 -0.08253012247243206
-0.00010247039907993961 -0.14518568196274756 -0.08382262970584987
-6.15518021967676e-5 -0.14680402064004622 -0.0847574615255283
-0.016298945277398467 -0.00280713646717328 -0.000942565319744701
-0.018452603200175798 -0.006044223171387258 -0.0027121083321977662
-0.01788229665663569 -0.009110295309579675 -0.004419975456584232
-0.014809413509087831 -0.011989378949503384 -0.006093834355152929
-0.012195132275277127 -0.014702899172273244 -0.007696575698856448
-0.009772449399751687 -0.0172593417873416 -0.009213501634580436
-0.007649001046325881 -0.01965994202224276 -0.01064247268547595
-0.005898020722628016 -0.021906636021805686 -0.011980135350328712
-0.004448006724708603 -0.023999082321505192 -0.013227081063045527
-0.0033095140398121115 -0.025937380757722808 -0.014383136901940943
-0.0024832120992231434 -0.027721669416898773 -0.015448063694284715
-0.0018610532901691746 -0.029352121486623053 -0.01642156147037144
-0.001346113390258017 -0.030828843205080295 -0.01730344622026789
-0.000921620115064376 -0.03215179436849652 -0.01809378757895317
-0.0005841412958169919 -0.03332053169778559 -0.018793353328326746
-0.00033065460668060603 -0.034332187969797257 -0.019407109644561014
-0.00016474614754050164 -0.03518433411452625 -0.01993926380032035
-7.765295093037998e-5 -0.0358746936339972 -0.02039375880576185
-3.842639965497736e-5 -0.036404590573818646 -0.02076830134661944
-2.3081925823787848e-5 -0.03678135249193733 -0.021050199720234024

SCALARS mu-cart-variance float
LOOKUP_TABLE default
0.0009437880428874878
0.04151314729936982
0.01253517056277019
7.992276073465296e-5
2.1675614160698336e-5
2.1652630377155432e-5
2.2283980829073827e-5
1.1396227657810229e-5
1.133516101310059e-5
6.803021643119616e-8
0.0003396477061973827
1.7075294601148237e-5
5.884831689440904e-6
5.190234618451749e-6
2.4989540479835147e-5
5.5734251421369786e-5
8.795382011689168e-5
8.265880817086239e-5
8.579934637693025e-5
9.452517504989946e-5
0.0009437880428874878
0.04151314729936982
0.01253517056277019
7.992276073465296e-5
2.1675614160698336e-5
2.1652630377155432e-5
2.2283980829073827e-5
1.1396227657810229e-5
1.133516101310059e-5
6.803021643119616e-8
0.0003396477061973827
1.7075294601148237e-5
5.884831689440904e-6