# vtk DataFile Version 4.0
 
ASCII
DATASET UNSTRUCTURED_GRID
POINTS 704 float
0.7966769023958385 1.6802968380587413 1.4999999999999905
0.7514406829620165 1.6890560737413742 1.4999999999999905
0.6214809884732289 1.7099255251239496 1.4999999999999905
0.4048895179127021 1.7246000151361738 1.4999999999999905
0.10373121052662726 1.6965403379742299 1.4999999999999905
-0.2686568310691162 1.5893243813667342 1.4999999999999905
-0.6774707864079444 1.352307369983941 1.4999999999999905
-1.0583407255216244 0.9456115494795885 1.4999999999999907
-1.3164537177473794 0.3583616667071124 1.4999999999999907
-1.333201165686269 -0.3735363413383441 1.4999999999999907
-1.1135126432809705 -0.9530327993868369 1.4999999999999907
-0.7954701316559406 -1.3483287068134444 1.499999999999991
-0.47725425978612795 -1.5809871850122528 1.499999999999991
-0.224428864136694 -1.7026056984893734 1.499999999999991
-0.06561513623718178 -1.7532681685560545 1.499999999999991
-0.014881417598192588 -1.7673764632045839 1.499999999999991
0.014881417598192588 -1.7744164751252027 1.499999999999991
0.06655948919937225 -1.7845323586957662 1.499999999999991
0.231240844374164 -1.8103884469612352 1.499999999999991
0.5117602850937687 -1.814925724122457 1.499999999999991
0.9004875416594313 -1.749485456774407 1.499999999999991
1.361922689788577 -1.5385648610517104 1.499999999999991
1.817949802003889 -1.1189001559692637 1.4999999999999907
2.1308733031291305 -0.45705874472568286 1.4999999999999907
2.163205356935199 0.18359668518083108 1.4999999999999907
2.004899400420978 0.7178275576210928 1.4999999999999907
1.7455931929471284 1.1128797118110636 1.4999999999999907
1.4607009073813408 1.3755667889577603 1.4999999999999905
1.2040274544113783 1.5355743204384824 1.4999999999999905
1.0038139976038398 1.6194896199366449 1.4999999999999905
0.8782765126492166 1.6590547063626395 1.4999999999999905
0.8339097891653807 1.6714898825060502 1.4999999999999905
0.876237549622453 1.7563009482957694 4.295454545454518
0.9228362670027951 1.743235296630426 4.295454545454518
1.0546888239013228 1.7016658180879354 4.295454545454518
1.26497174663196 1.6135060641254508 4.295454545454518
1.5345488887072891 1.4454180956006648 4.295454545454518
1.833754809800062 1.1694791724729865 4.295454545454518
2.1060732171117706 0.7545149953278848 4.295454545454518
2.2722931583136785 0.1933766528325621 4.295454545454518
2.2382681717898705 -0.47952380769654046 4.295454545454518
1.909525590147668 -1.1746480110725317 4.295454545454518
1.4305008080546446 -1.6153905675516778 4.295454545454518
0.9458170945052086 -1.8368810202686416 4.295454545454518
0.5375159939190799 -1.9055756062635139 4.295454545454518
0.24287665792099117 -1.9007812799014336 4.295454545454518
0.06990846594542928 -1.873606863062872 4.295454545454518
0.01563013603630352 -1.8629765020262594 4.295454545454518
-0.01563013603630352 -1.8555790800891196 4.295454545454518
-0.06891616971103644 -1.84075544056612 4.295454545454518
-0.23571884446666472 -1.7875265756507488 4.295454545454518
-0.5012581535272688 -1.6597603859671015 4.295454545454518
-0.8354681204834217 -1.4153581910669382 4.295454545454518
-1.1694793853409482 -1.0001319903364072 4.295454545454518
-1.4001670497463037 -0.39144328135435114 4.295454545454518
-1.3825018215519616 0.3772941789119791 4.295454545454518
-1.1113363369123976 0.9940777790736681 4.295454545454518
-0.7112531997581533 1.4212063213608626 4.295454545454518
-0.28183677808235075 1.6701121671532968 4.295454545454518
0.10930691703137008 1.7826869524589877 4.295454545454518
0.42562733761798066 1.8121282875544276 4.295454545454518
0.6531197593649893 1.7966930078826464 4.295454545454518
0.7896190342218844 1.774759784897505 4.295454545454518
0.8371313904550017 1.7655550187347817 4.295454545454518
1.0260473632296185 2.037664228003903 9.753947368420992
1.0588649062748245 2.0118924907443287 9.753947368420992
1.1518274957733692 1.9353896582804155 9.753947368420992
1.300646886622875 1.7959201240592124 9.753947368420992
1.493145138394513 1.5709644557303442 9.753947368420992
1.7102033272296484 1.2417339304703774 9.753947368420992
1.9133267558229226 0.7871763460693835 9.753947368420992
2.0448902407141545 0.2021899490108135 9.753947368420992
2.029490589895447 -0.49032609596424126 9.753947368420992
1.7793171533824517 -1.229773490746175 9.753947368420992
1.3848941885702803 -1.7449679546900678 9.753947368420992
0.9504531516252314 -2.0472495325871565 9.753947368420992
0.5563898725939962 -2.176741705532429 9.753947368420992
0.2571288643790628 -2.1968137130585057 9.753947368420992
0.07881623488849696 -2.17592440794437 9.753947368420992
0.022806765560467738 -2.166796627469121 9.753947368420992
-0.023003927993888663 -2.155827115643333 9.753947368420992
-0.07717799624656119 -2.138486314453111 9.753947368420992
-0.2457926661461365 -2.075716453755139 9.753947368420992
-0.5025819916192812 -1.9200940967701403 9.753947368420992
-0.7957754368577424 -1.625111206166181 9.753947368420992
-1.0498498481160023 -1.1579685146934018 9.753947368420992
-1.1702949261086486 -0.5181834708728421 9.753947368420992
-1.0439076686618416 0.2498138548270341 9.753947368420992
-0.7192293709757948 0.8603409844775611 9.753947368420992
-0.31608215765425474 1.308975918502842 9.753947368420992
0.08114496007369232 1.6164762749181778 9.753947368420992
0.4203804053823006 1.814876736914404 9.753947368420992
0.6784164094540799 1.9370558680757461 9.753947368420992
0.853639675621071 2.0034225368265335 9.753947368420992
0.9542320208740129 2.0361390710013105 9.753947368420992
0.988414118924369 2.0466756243923765 9.753947368420992
0.9820493720050042 2.226193926677221 14.947607655502296
0.9854311756828062 2.183649449987282 14.947607655502296
0.9953030033265851 2.062110626688393 14.947607655502296
1.0123771897896892 1.8616384236204517 14.947607655502296
1.0378983918148172 1.5823515691530434 14.947607655502296
1.0728994381948294 1.2243696131794621 14.947607655502296
1.11585792788819 0.7875670042913826 14.947607655502296
1.1580191245126126 0.271165997611512 14.947607655502296
1.175490539664926 -0.32585377090400414 14.947607655502296
1.1167791320165223 -1.0054779412893713 14.947607655502296
0.9621362939316549 -1.5603866780043516 14.947607655502296
0.7298136567620059 -1.9687917016195373 14.947607655502296
0.4705956068855415 -2.2234871995005556 14.947607655502296
0.23460378896430636 -2.3268858321261074 14.947607655502296
0.08118853214395548 -2.340211193451618 14.947607655502296
0.03243830004580166 -2.3394988056272603 14.947607655502296
-0.0327769896250652 -2.325665701770649 14.947607655502296
-0.07819287093748278 -2.3062284757000606 14.947607655502296
-0.21490718581037813 -2.2309177629156385 14.947607655502296
-0.3947635322759889 -2.0408898980411774 14.947607655502296
-0.5441075394586264 -1.703625411985525 14.947607655502296
-0.6117980637331246 -1.2323897967822657 14.947607655502296
-0.5276236445461557 -0.6557027040847764 14.947607655502296
-0.2510614285217665 -0.02333233895240716 14.947607655502296
0.0813876654817779 0.4822826724510415 14.947607655502296
0.3900478008356105 0.9069880225306463 14.947607655502296
0.6369595845514406 1.276744784362778 14.947607655502296
0.8069986178893772 1.5988028840883237 14.947607655502296
0.9028107740330056 1.8660172328610034 14.947607655502296
0.9433433851640168 2.0656159403918397 14.947607655502296
0.9543458978341224 2.1885946330266526 14.947607655502296
0.9556408611379472 2.231795552850565 14.947607655502296
0.8020369664097139 2.1583689610116252 19.876435406698437
0.8062956202887109 2.118049642665747 19.876435406698437
0.8186643069178978 2.0028730414040554 19.876435406698437
0.8397521751957258 1.8129059558077112 19.876435406698437
0.8704741148925221 1.5482540870653938 19.876435406698437
0.9113493629769198 1.2089830077795944 19.876435406698437
0.9605694408661958 0.7948789096820015 19.876435406698437
1.010103456299582 0.30508068174034614 19.876435406698437
1.03875589433486 -0.2616761559693606 19.876435406698437
1.00013116910579 -0.9086020158106478 19.876435406698437
0.8710190128913723 -1.4404717424374796 19.876435406698437
0.6691883518767417 -1.8390447886096708 19.876435406698437
0.43947096110779166 -2.0981231712167014 19.876435406698437
0.22256678811464048 -2.2132918256812997 19.876435406698437
0.07769288071134949 -2.2345659794225714 19.876435406698437
0.03138402102067128 -2.2360634353340982 19.876435406698437
-0.031662256589925164 -2.2247404820517147 19.876435406698437
-0.07519384522818609 -2.2069524815439254 19.876435406698437
-0.20584615954187302 -2.136058217363305 19.876435406698437
-0.37722269848145057 -1.9547422930556115 19.876435406698437
-0.5214245803093023 -1.6341392628953573 19.876435406698437
-0.5954502566808526 -1.1870022496268318 19.876435406698437
-0.5298223609715487 -0.6363050982130767 19.876435406698437
-0.2841717262830426 -0.027078823012270416 19.876435406698437
0.01417848222417839 0.46549130188302845 19.876435406698437
0.2912290113301247 0.8813207202052022 19.876435406698437
0.5117144624053227 1.2424926333862056 19.876435406698437
0.6613282810223545 1.5551346103375445 19.876435406698437
0.742403261164945 1.8128333923859403 19.876435406698437
0.7729650738886124 2.0042489923344977 19.876435406698437
0.7780728637132528 2.1216679362870488 19.876435406698437
0.7773161705818656 2.162808753920431 19.876435406698437
0.6637769571092984 2.0606886411269443 24.540430622009413
0.6671894307191958 2.023726678346353 24.540430622009413
0.6772409701275841 1.9181477281415458 24.540430622009413
0.694369379187418 1.7439929547380293 24.540430622009413
0.718200598960882 1.5012273055245604 24.540430622009413
0.7467740797055163 1.1896661643291995 24.540430622009413
0.776419157638673 0.8090156713430208 24.540430622009413
0.8017719851500207 0.3589967331044864 24.540430622009413
0.8129865112089941 -0.16051769231069626 24.540430622009413
0.7816102731095446 -0.753273047622093 24.540430622009413
0.6811811661961129 -1.2443762140463257 24.540430622009413
0.5236160028145531 -1.6222924815603634 24.540430622009413
0.35214003005009414 -1.8898412207262498 24.540430622009413
[...]
POINT_DATA 704

SCALARS Np-cyl-mean float
LOOKUP_TABLE default
-112.28733336231427
-112.28733336231427
-112.28733336231427
-112.28733336231427
-112.28733336231427
-112.28733336231427
-112.28733336231427
-112.28733336231427
-112.28733336231427
-112.28733336231427
-112.28733336231427
-112.28733336231427
-112.28733336231427
-112.28733336231427
-112.28733336231427
-112.28733336231427
-112.28733336231427
-112.28733336231427
-112.28733336231427
-112.28733336231427
-112.28733336231427
-112.28733336231427
-112.28733336231427
-112.28733336231427
-112.28733336231427
-112.28733336231427
-112.28733336231427
-112.28733336231427
-112.28733336231427
-112.28733336231427
-112.28733336231427
-112.28733336231427
-112.28733336231427
-112.28733336231427
-112.28733336231427
-112.28733336231427
-112.28733336231427
-112.28733336231427
-112.28733336231427
-112.28733336231427
-112.28733336231427
-112.28733336231427
-112.28733336231427
-112.28733336231427
-112.28733336231427
-112.28733336231427
-112.28733336231427
-112.28733336231427
-112.28733336231427
-112.28733336231427
-112.28733336231427
-112.28733336231427
-112.28733336231427
-112.28733336231427
-112.28733336231427
-112.28733336231427
-112.28733336231427
-112.28733336231427
-112.28733336231427
-112.28733336231427
-112.28733336231427
-112.28733336231427
-112.28733336231427
-112.28733336231427
-1117.255304525552
-1117.255304525552
-1117.255304525552
-1117.255304525552
-1117.255304525552
-1117.255304525552
-1117.255304525552
-1117.255304525552
-1117.255304525552
-1117.255304525552
-1117.255304525552
-1117.255304525552
-1117.255304525552
-1117.255304525552
-1117.255304525552
-1117.255304525552
-1117.255304525552
-1117.255304525552
-1117.255304525552
-1117.255304525552
-1117.255304525552
-1117.255304525552
-1117.255304525552
-1117.255304525552
-1117.255304525552
-1117.255304525552
-1117.255304525552
-1117.255304525552
-1117.255304525552
-1117.255304525552
-1117.255304525552
-1117.255304525552
-1892.3005521869195
-1892.3005521869195
-1892.3005521869195
-1892.3005521869195
-1892.3005521869195
-1892.3005521869195
-1892.3005521869195
-1892.3005521869195
-1892.3005521869195
-1892.3005521869195
-1892.3005521869195
-1892.3005521869195
-1892.3005521869195
-1892.3005521869195
-1892.3005521869195
-1892.3005521869195
-1892.3005521869195
-1892.3005521869195
-1892.3005521869195
-1892.3005521869195
-1892.3005521869195
-1892.3005521869195
-1892.3005521869195
-1892.3005521869195
-1892.3005521869195
-1892.3005521869195
-1892.3005521869195
-1892.3005521869195
-1892.3005521869195
-1892.3005521869195
-1892.3005521869195
-1892.3005521869195
-2760.607688423495
-2760.607688423495
-2760.607688423495
-2760.607688423495
-2760.607688423495
-2760.607688423495
-2760.607688423495
-2760.607688423495
-2760.607688423495
-2760.607688423495
-2760.607688423495
-2760.607688423495
-2760.607688423495
-2760.607688423495
-2760.607688423495
-2760.607688423495
-2760.607688423495
-2760.607688423495
-2760.607688423495
-2760.607688423495
-2760.607688423495
-2760.607688423495
-2760.607688423495
-2760.607688423495
-2760.607688423495
-2760.607688423495
-2760.607688423495
-2760.607688423495
-2760.607688423495
-2760.607688423495
-2760.607688423495
-2760.607688423495
-3381.1465350221865
-3381.1465350221865
-3381.1465350221865
-3381.1465350221865
-3381.1465350221865
-3381.1465350221865
-3381.1465350221865
-3381.1465350221865
-3381.1465350221865
-3381.1465350221865
-3381.1465350221865
-3381.1465350221865
-3381.1465350221865
-3381.1465350221865
-3381.1465350221865
-3381.1465350221865
-3381.1465350221865
-3381.1465350221865
-3381.1465350221865
-3381.1465350221865
-3381.1465350221865
-3381.1465350221865
-3381.1465350221865
-3381.1465350221865
-3381.1465350221865
-3381.1465350221865
-3381.1465350221865
-3381.1465350221865
-3381.1465350221865
-3381.1465350221865
-3381.1465350221865
-3381.1465350221865
-4189.444967662421
-4189.444967662421
-4189.444967662421
-4189.444967662421
-4189.444967662421
-4189.444967662421
-4189.444967662421
-4189.444967662421
-4189.444967662421
-4189.444967662421
-4189.444967662421
-4189.444967662421
-4189.444967662421
-4189.444967662421
-4189.444967662421
-4189.444967662421
-4189.444967662421
-4189.444967662421
-4189.444967662421
-4189.444967662421
-4189.444967662421
-4189.444967662421
-4189.444967662421
-4189.444967662421
-4189.444967662421
-4189.444967662421
-4189.444967662421
-4189.444967662421
-4189.444967662421
-4189.444967662421
-4189.444967662421
-4189.444967662421
-4876.998775251085
-4876.998775251085
-4876.998775251085
-4876.998775251085
-4876.998775251085
-4876.998775251085
-4876.998775251085
-4876.998775251085
-4876.998775251085
-4876.998775251085
-4876.998775251085
-4876.998775251085
-4876.998775251085
-4876.998775251085
-4876.998775251085
-4876.998775251085
-4876.998775251085
-4876.998775251085
-4876.998775251085
-4876.998775251085
-4876.998775251085
-4876.998775251085
-4876.998775251085
-4876.998775251085
-4876.998775251085
-4876.998775251085
-4876.998775251085
-4876.998775251085
-4876.998775251085
-4876.998775251085
-4876.998775251085
-4876.998775251085
-5656.637868362205
-5656.637868362205
-5656.637868362205
-5656.637868362205
-5656.637868362205
-5656.637868362205
-5656.637868362205
-5656.637868362205
-5656.637868362205
-5656.637868362205
-5656.637868362205
-5656.637868362205
-5656.637868362205
-5656.637868362205
-5656.637868362205
-5656.637868362205
-5656.637868362205
-5656.637868362205
-5656.637868362205
-5656.637868362205
-5656.637868362205
-5656.637868362205
-5656.637868362205
-5656.637868362205
-5656.637868362205
-5656.637868362205
-5656.637868362205
-5656.637868362205
-5656.637868362205
-5656.637868362205
-5656.637868362205
-5656.637868362205
-6481.10805650158
-6481.10805650158
-6481.10805650158
-6481.10805650158
-6481.10805650158
-6481.10805650158
-6481.10805650158
-6481.10805650158
-6481.10805650158
-6481.10805650158
-6481.10805650158
-6481.10805650158
-6481.10805650158
-6481.10805650158
-6481.10805650158
-6481.10805650158
-6481.10805650158
-6481.10805650158
-6481.10805650158
-6481.10805650158
-6481.10805650158
-6481.10805650158
-6481.10805650158
-6481.10805650158
-6481.10805650158
-6481.10805650158
-6481.10805650158
-6481.10805650158
-6481.10805650158
-6481.10805650158
-6481.10805650158
-6481.10805650158
-6447.494760939068
-6447.494760939068
-6447.494760939068
-6447.494760939068
-6447.494760939068
-6447.494760939068
-6447.494760939068
-6447.494760939068
-6447.494760939068
-6447.494760939068
-6447.494760939068
-6447.494760939068
-6447.494760939068
-6447.494760939068
-6447.494760939068
-6447.494760939068
-6447.494760939068
-6447.494760939068
-6447.494760939068
-6447.494760939068
-6447.494760939068
-6447.494760939068
-6447.494760939068
-6447.494760939068
-6447.494760939068
-6447.494760939068
-6447.494760939068
-6447.494760939068
-6447.494760939068
-6447.494760939068
-6447.494760939068
-6447.494760939068
-6835.277166393737
-6835.277166393737
-6835.277166393737
-6835.277166393737
-6835.277166393737
-6835.277166393737
-6835.277166393737
-6835.277166393737
-6835.277166393737
-6835.277166393737
-6835.277166393737
-6835.277166393737
-6835.277166393737
-6835.277166393737
-6835.277166393737
-6835.277166393737
-6835.277166393737
-6835.277166393737
-6835.277166393737
-6835.277166393737
-6835.277166393737
-6835.277166393737
-6835.277166393737
-6835.277166393737
-6835.277166393737
-6835.277166393737
-6835.277166393737
-6835.277166393737
-6835.277166393737
-6835.277166393737
-6835.277166393737
-6835.277166393737
-7141.85918991906
-7141.85918991906
-7141.85918991906
-7141.85918991906
-7141.85918991906
-7141.85918991906
-7141.85918991906
-7141.85918991906
-7141.85918991906
-7141.85918991906
-7141.85918991906
-7141.85918991906
-7141.85918991906
-7141.85918991906
-7141.85918991906
-7141.85918991906
-7141.85918991906
-7141.85918991906
-7141.85918991906
-7141.85918991906
-7141.85918991906
-7141.85918991906
-7141.85918991906
-7141.85918991906
-7141.85918991906
-7141.85918991906
-7141.85918991906
-7141.85918991906
-7141.85918991906
-7141.85918991906
-7141.85918991906
-7141.85918991906
-7488.610746895011
-7488.610746895011
-7488.610746895011
-7488.610746895011
-7488.610746895011
-7488.610746895011
-7488.610746895011
-7488.610746895011
-7488.610746895011
-7488.610746895011
-7488.610746895011
-7488.610746895011
-7488.610746895011
-7488.610746895011
-7488.610746895011
-7488.610746895011
-7488.610746895011
-7488.610746895011
-7488.610746895011
-7488.610746895011
-7488.610746895011
-7488.610746895011
-7488.610746895011
-7488.610746895011
-7488.610746895011
-7488.610746895011
-7488.610746895011
-7488.610746895011
-7488.610746895011
-7488.610746895011
-7488.610746895011
-7488.610746895011
-7416.543541579047
-7416.543541579047
-7416.543541579047
-7416.543541579047
-7416.543541579047
-7416.543541579047
-7416.543541579047
-7416.543541579047
-7416.543541579047
-7416.543541579047
-7416.543541579047
-7416.543541579047
-7416.543541579047
-7416.543541579047
-7416.543541579047
-7416.543541579047
-7416.543541579047
-7416.543541579047
-7416.543541579047
-7416.543541579047
-7416.543541579047
-7416.543541579047
-7416.543541579047
-7416.543541579047
-7416.543541579047
-7416.543541579047
-7416.543541579047
-7416.543541579047
-7416.543541579047
-7416.543541579047
-7416.543541579047
-7416.543541579047
-7072.2496464458845
-7072.2496464458845
-7072.2496464458845
-7072.2496464458845
-7072.2496464458845
-7072.2496464458845
-7072.2496464458845
-7072.2496464458845
-7072.2496464458845
-7072.2496464458845
-7072.2496464458845
-7072.2496464458845
-7072.2496464458845
-7072.2496464458845
-7072.2496464458845
-7072.2496464458845
-7072.2496464458845
-7072.2496464458845
-7072.2496464458845
-7072.2496464458845
-7072.2496464458845
-7072.2496464458845
-7072.2496464458845
-7072.2496464458845
-7072.2496464458845
-7072.2496464458845
-7072.2496464458845
-7072.2496464458845
-7072.2496464458845
-7072.2496464458845
-7072.2496464458845
-7072.2496464458845
-6408.07860778538
-6408.07860778538
-6408.07860778538
-6408.07860778538
-6408.07860778538
-6408.07860778538
-6408.07860778538
-6408.07860778538
-6408.07860778538
-6408.07860778538
-6408.07860778538
-6408.07860778538
-6408.07860778538
-6408.07860778538
-6408.07860778538
-6408.07860778538
-6408.07860778538
-6408.07860778538
-6408.07860778538
-6408.07860778538
-6408.07860778538
-6408.07860778538
-6408.07860778538
-6408.07860778538
-6408.07860778538
-6408.07860778538
-6408.07860778538
-6408.07860778538
-6408.07860778538
-6408.07860778538
-6408.07860778538
-6408.07860778538
-5293.875660574488
-5293.875660574488
-5293.875660574488
-5293.875660574488
-5293.875660574488
-5293.875660574488
-5293.875660574488
-5293.875660574488
-5293.875660574488
-5293.875660574488
-5293.875660574488
-5293.875660574488
-5293.875660574488
-5293.875660574488
-5293.875660574488
-5293.875660574488
-5293.875660574488
-5293.875660574488
-5293.875660574488
-5293.875660574488
-5293.875660574488
-5293.875660574488
-5293.875660574488
-5293.875660574488
-5293.875660574488
-5293.875660574488
-5293.875660574488
-5293.875660574488
-5293.875660574488
-5293.875660574488
-5293.875660574488
-5293.875660574488
-3817.832917803358
-3817.832917803358
-3817.832917803358
-3817.832917803358
-3817.832917803358
-3817.832917803358
-3817.832917803358
-3817.832917803358
-3817.832917803358
-3817.832917803358
-3817.832917803358
-3817.832917803358
-3817.832917803358
-3817.832917803358
-3817.832917803358
-3817.832917803358
-3817.832917803358
-3817.832917803358
-3817.832917803358
-3817.832917803358
-3817.832917803358
-3817.832917803358
-3817.832917803358
-3817.832917803358
-3817.832917803358
-3817.832917803358
-3817.832917803358
-3817.832917803358
-3817.832917803358
-3817.832917803358
-3817.832917803358
-3817.832917803358
-2237.8554565001364
-2237.8554565001364
-2237.8554565001364
-2237.8554565001364
-2237.8554565001364
-2237.8554565001364
-2237.8554565001364
-2237.8554565001364
-2237.8554565001364
-2237.8554565001364
-2237.8554565001364
-2237.8554565001364
-2237.8554565001364
-2237.8554565001364
-2237.8554565001364
-2237.8554565001364
-2237.8554565001364
-2237.8554565001364
-2237.8554565001364
-2237.8554565001364
-2237.8554565001364
-2237.8554565001364
-2237.8554565001364
-2237.8554565001364
-2237.8554565001364
-2237.8554565001364
-2237.8554565001364
-2237.8554565001364
-2237.8554565001364
-2237.8554565001364
-2237.8554565001364
-2237.8554565001364
-925.2815852621633
-925.2815852621633
-925.2815852621633
-925.2815852621633
-925.2815852621633
-925.2815852621633
-925.2815852621633
-925.2815852621633
-925.2815852621633
-925.2815852621633
-925.2815852621633
-925.2815852621633
-925.2815852621633
-925.2815852621633
-925.2815852621633
-925.2815852621633
-925.2815852621633
-925.2815852621633
-925.2815852621633
-925.2815852621633
-925.2815852621633
-925.2815852621633
-925.2815852621633
-925.2815852621633
-925.2815852621633
-925.2815852621633
-925.2815852621633
-925.2815852621633
-925.2815852621633
-925.2815852621633
-925.2815852621633
-925.2815852621633
-925.2815852621633
-925.2815852621633
-925.2815852621633
-925.2815852621633
-925.2815852621633
-925.2815852621633
-925.2815852621633
-925.2815852621633
-925.2815852621633
-925.2815852621633
-925.2815852621633
-925.2815852621633
-925.2815852621633
-925.2815852621633
-925.2815852621633
-925.2815852621633
-925.2815852621633
-925.2815852621633
-925.2815852621633
-925.2815852621633
-925.2815852621633
-925.2815852621633
-925.2815852621633
-925.2815852621633
-925.2815852621633
-925.2815852621633
-925.2815852621633
-925.2815852621633
-925.2815852621633
-925.2815852621633
-925.2815852621633
-925.2815852621633

VECTORS centroid-point-cyl-variance float
6.0e-30 0.0 1.9999999999999997e-31
4.21e-30 0.0 0.0
5.68e-30 9.999999999999999e-33 1.9999999999999997e-31
4.61e-30 9.999999999999999e-33 3.0e-32
4.09e-30 9.999999999999999e-33 9.999999999999999e-33
3.8499999999999996e-30 9.999999999999999e-33 7.999999999999999e-32
3.1199999999999998e-30 0.0 0.0
2.59e-30 0.0 0.0
1.84e-30 0.0 4.999999999999999e-32
1.62e-30 0.0 0.0
1.99e-30 0.0 1.9999999999999997e-31
2.7199999999999997e-30 0.0 1.9999999999999997e-31
3.04e-30 9.999999999999999e-33 7.999999999999999e-32
3.3499999999999996e-30 0.0 9.999999999999999e-33
5.4699999999999996e-30 0.0 0.0
4.38e-30 0.0 0.0
5.35e-30 0.0 0.0
4.36e-30 0.0 0.0
3.29e-30 9.999999999999999e-33 0.0
3.38e-30 9.999999999999999e-33 1.9999999999999997e-31
3.68e-30 9.999999999999999e-33 1.1e-31
4.63e-30 9.999999999999999e-33 1.9999999999999997e-31
2.0599999999999998e-30 0.0 1.9999999999999997e-31
1.59e-30 0.0 1.9999999999999997e-31
1.8499999999999998e-30 0.0 0.0
1.87e-30 0.0 4.93e-30
2.84e-30 0.0 4.4e-31
2.9799999999999997e-30 0.0 1.77e-30
4.14e-30 0.0 4.4e-31
3.74e-30 0.0 0.0
6.2099999999999994e-30 9.999999999999999e-33 1.9999999999999997e-31
4.4699999999999995e-30 9.999999999999999e-33 3.1e-31
1.923e-29 3.9999999999999997e-32 3.1e-31
2.362e-29 3.0e-32 7.9e-31
1.9379999999999998e-29 9.999999999999999e-33 0.0
1.6369999999999998e-29 1.9999999999999998e-32 4.4e-31
1.633e-29 3.0e-32 7.9e-31
1.456e-29 3.0e-32 4.999999999999999e-32
1.356e-29 1.9999999999999998e-32 0.0
1.401e-29 3.0e-32 7.9e-31
1.305e-29 9.999999999999999e-33 7.9e-31
1.571e-29 3.0e-32 1.77e-30
1.264e-29 1.9999999999999998e-32 1.9999999999999997e-31
2.9509999999999997e-29 3.0e-32 9.999999999999999e-33
1.891e-29 1.9999999999999998e-32 1.1e-31
1.723e-29 3.0e-32 9.999999999999999e-33
1.723e-29 3.0e-32 0.0
1.452e-29 1.9999999999999998e-32 0.0
1.77e-29 1.9999999999999998e-32 0.0
1.418e-29 3.0e-32 0.0
2.55e-29 1.9999999999999998e-32 9.999999999999999e-33
1.563e-29 1.9999999999999998e-32 0.0
1.9679999999999998e-29 3.0e-32 1.9999999999999997e-31
1.953e-29 1.9999999999999998e-32 1.9999999999999997e-31
1.394e-29 1.9999999999999998e-32 4.4e-31
1.563e-29 9.999999999999999e-33 4.999999999999999e-32
1.403e-29 9.999999999999999e-33 1.9999999999999997e-31
2.03e-29 1.9999999999999998e-32 3.1e-31
2.452e-29 3.0e-32 0.0
2.0979999999999998e-29 3.0e-32 0.0
1.682e-29 1.9999999999999998e-32 7.999999999999999e-32
1.676e-29 3.0e-32 4.999999999999999e-32
2.1359999999999998e-29 9.999999999999999e-33 1.9999999999999997e-31
1.6199999999999999e-29 9.999999999999999e-33 1.1e-31
9.662e-29 7.999999999999999e-32 4.999999999999999e-32
7.743999999999999e-29 8.999999999999999e-32 4.999999999999999e-32
9.466e-29 6.0e-32 1.9999999999999997e-31
7.385e-29 1.9e-31 1.77e-30
8.757999999999999e-29 1.3e-31 4.4e-31
8.972e-29 1.1e-31 4.4e-31
6.915999999999999e-29 1.3e-31 0.0
9.458e-29 3.0e-32 7.9e-31
7.351e-29 6.0e-32 1.77e-30
7.155e-29 9.999999999999999e-32 4.4e-31
6.208999999999999e-29 8.999999999999999e-32 1.2299999999999999e-30
7.231999999999999e-29 1.4e-31 4.4e-31
6.652e-29 1.4e-31 9.999999999999999e-33
6.848e-29 1.5e-31 7.999999999999999e-32
9.943999999999999e-29 1.5999999999999999e-31 0.0
8.443e-29 1.5999999999999999e-31 0.0
6.395999999999999e-29 7.999999999999999e-32 0.0
6.754e-29 8.999999999999999e-32 0.0
8.596e-29 8.999999999999999e-32 0.0
7.701e-29 1.3e-31 9.999999999999999e-33
8.238e-29 8.999999999999999e-32 1.1e-31
6.942e-29 1.6999999999999998e-31 1.2299999999999999e-30
1.0174e-28 1.2e-31 4.999999999999999e-32
1.1385e-28 1.2e-31 1.9999999999999997e-31
6.388e-29 7.999999999999999e-32 1.1e-31
6.915999999999999e-29 7.0e-32 4.999999999999999e-32
7.018999999999999e-29 1.5e-31 0.0
8.656e-29 8.999999999999999e-32 4.999999999999999e-32
1.0157e-28 1.1e-31 0.0
7.205999999999999e-29 1.5999999999999999e-31 4.999999999999999e-32
8.622e-29 1.1e-31 9.999999999999999e-33
7.026999999999999e-29 8.999999999999999e-32 1.9999999999999997e-31
1.8447e-28 1.6999999999999998e-31 9.999999999999999e-33
2.2027999999999997e-28 2.2e-31 4.4e-31
1.7908999999999999e-28 1.7999999999999998e-31 9.999999999999999e-31
1.9069e-28 1.5e-31 4.999999999999999e-32
2.1619e-28 1.5999999999999999e-31 1.9999999999999997e-31
1.7841e-28 1.3e-31 1.2299999999999999e-30
1.6561999999999999e-28 1.9999999999999997e-31 1.9999999999999997e-31
1.5453e-28 1.5e-31 4.999999999999999e-32
1.5998999999999998e-28 8.999999999999999e-32 1.2299999999999999e-30
2.1304e-28 2.2e-31 4.999999999999999e-32
1.7712999999999999e-28 1.5999999999999999e-31 1.9999999999999997e-31
1.7294999999999999e-28 2.2e-31 1.1e-31
1.5751999999999999e-28 3.0e-31 7.999999999999999e-32
1.5871e-28 1.3e-31 0.0
1.6876999999999999e-28 2.1e-31 0.0
1.5717999999999998e-28 1.4e-31 0.0
2.2334999999999997e-28 1.9999999999999997e-31 0.0
1.4865e-28 1.4e-31 0.0
1.6272e-28 1.5999999999999999e-31 1.9999999999999998e-32
1.8318999999999998e-28 2.1e-31 7.999999999999999e-32
1.6117999999999998e-28 1.5e-31 1.9999999999999997e-31
1.8694e-28 2.4999999999999998e-31 9.999999999999999e-33
1.5725999999999999e-28 1.3e-31 0.0
1.5418999999999999e-28 1.9999999999999997e-31 9.999999999999999e-33
1.5897e-28 1.9999999999999997e-31 0.0
2.1065e-28 2.4e-31 3.0e-32
1.6876999999999999e-28 2.4e-31 1.1e-31
1.7448999999999998e-28 1.5e-31 0.0
1.6212e-28 1.7999999999999998e-31 6.0e-31
1.6109999999999998e-28 1.4e-31 1.1e-31
2.955e-28 1.5e-31 3.1e-31
1.6929e-28 2.8e-31 4.999999999999999e-32
4.0184999999999996e-28 3.1e-31 3.1e-31
3.4318e-28 6.0e-31 1.1e-31
3.4897999999999996e-28 4.1e-31 1.9999999999999997e-31
3.0599e-28 3.8e-31 1.9999999999999997e-31
3.7661e-28 3.5999999999999996e-31 3.1e-31
2.6334999999999997e-28 3.3e-31 1.1e-31
3.2748e-28 2.6e-31 3.1e-31
3.6944e-28 3.8999999999999997e-31 0.0
3.4181e-28 3.0e-31 0.0
2.9439e-28 6.0e-31 0.0
3.3806e-28 2.8e-31 1.9999999999999997e-31
3.2646e-28 3.8999999999999997e-31 4.999999999999999e-32
2.7222e-28 6.299999999999999e-31 1.5e-31
2.7154e-28 3.3e-31 3.0e-32
2.845e-28 4.6e-31 0.0
2.8143e-28 3.5999999999999996e-31 0.0
4.5063e-28 4.899999999999999e-31 0.0
2.9576e-28 4.4999999999999995e-31 0.0
3.3328e-28 3.8e-31 1.9999999999999998e-32
3.1758999999999997e-28 8.999999999999999e-32 4.999999999999999e-32
2.6983e-28 3.5999999999999996e-31 9.999999999999999e-33
3.1076999999999997e-28 3.9999999999999995e-31 1.1e-31
3.0872e-28 3.1e-31 9.999999999999999e-33
4.1857e-28 2.1e-31 0.0
2.8587e-28 2.6999999999999997e-31 0.0
3.3225999999999996e-28 4.1e-31 3.0e-32
2.9609999999999998e-28 3.8e-31 9.999999999999999e-33