# vtk DataFile Version 4.0
 
ASCII
DATASET UNSTRUCTURED_GRID
POINTS 152 float
0.0 -1.7708707379400794 1.499999999999991
0.0 -1.8250854161503636 3.7363636363636132
0.0 -1.9422959226345895 5.931651205936882
0.0 -2.0669177328625943 8.085862708719802
0.0 -2.198453178611747 10.198998144712366
0.0 -2.300633836020599 12.27105751391458
0.0 -2.3424976972092053 14.30204081632644
0.0 -2.3161994612210943 16.291948051947948
0.0 -2.2701442065185837 18.240779220779107
0.0 -2.2239145876624695 20.148534322819913
0.0 -2.1773276458756645 22.015213358070362
0.0 -2.1299869354698586 23.84081632653046
0.0 -2.0814823879797872 25.625343228200208
0.0 -2.028497947047076 27.36879406307961
0.0 -1.9732322230065502 29.071168831168645
0.0 -1.9205004555721277 30.732467532467336
0.0 -1.8710180976485498 32.35269016697568
0.0 -1.8236150669334692 33.93183673469366
0.0 -1.7774482500802815 35.4699072356213
0.0 -1.7325173951112782 36.966901669758585
0.0 -1.6888222567781261 38.42282003710551
0.0 -1.646362596561867 39.83766233766209
0.0 -1.6051381826729179 41.211428571428314
0.0 -1.565148790051069 42.54411873840419
0.0 -1.5263942003654882 43.835732838589706
0.0 -1.4888742020147174 45.08627087198487
0.0 -1.4525885901266724 46.29573283858968
0.0 -1.4175371665586451 47.464118738404146
0.0 -1.3837200369464404 48.59142857142826
0.0 -1.3511410967355904 49.67766233766203
0.0 -1.3198009719931971 50.722820037105436
0.0 -1.2896988719444407 51.72690166975849
0.0 -1.2608340368929871 52.68990723562119
0.0 -1.23320573822099 53.61183673469354
0.0 -1.206813278389088 54.492690166975535
0.0 -1.1816559909364073 55.332467532467184
0.0 -1.1573177425492265 56.13116883116848
0.0 -1.1324787175380735 56.88879406307941
0.0 -1.1051191396352422 57.605343228200006
0.0 -1.0741853005399113 58.28081632653024
0.0 -1.0402800877949814 58.91521335807013
0.0 -1.0030899866470375 59.50853432281966
0.0 -0.9507326557590813 60.06077922077884
0.0 -0.8834743712479427 60.57194805194767
0.0 -0.8102837433756859 61.04204081632615
0.0 -0.7372769059978748 61.471057513914275
0.0 -0.6660134938687022 61.85899814471204
0.0 -0.5950320477906224 62.20586270871946
0.0 -0.525639127119775 62.511651205936516
0.0 -0.46040904861385695 62.77636363636324
0.0 -0.4015703252869966 62.9999999999996
-0.8152906147965383 1.675907687402365 1.4999999999999905
-0.840508508576773 1.727961053119008 3.7363636363636132
-0.8937965186568912 1.8370990402078535 5.931651205936882
-0.9506477078523391 1.954493725696859 8.085862708719802
-1.020681877210228 2.079137418187977 10.198998144712366
-1.048954977401727 2.180095548744442 12.27105751391458
-0.9930987765444168 2.235584355515674 14.30204081632644
-0.9074282632528687 2.2262284358623172 16.291948051947948
-0.838943182597301 2.1928249280900824 18.240779220779107
-0.780438039247949 2.1548027316590166 20.148534322819913
-0.7250391551380654 2.1161539742594595 22.015213358070362
-0.6716005320170477 2.0765767027304367 23.84081632653046
-0.6190912009117757 2.0353439212166378 25.625343228200208
-0.5668551203523576 1.9889259921580047 27.36879406307961
-0.5160737545272154 1.9394054938862102 29.071168831168645
-0.46824322159258064 1.8917833829558732 30.732467532467336
-0.4244759216876314 1.8467747481983248 32.35269016697568
-0.3845740908079094 1.803216246355863 33.93183673469366
-0.34771109645469384 1.7603561333212323 35.4699072356213
-0.3130568676883623 1.7183186269393536 36.966901669758585
-0.28047282351476527 1.6771452288500834 38.42282003710551
-0.25028172479700606 1.6368386054108026 39.83766233766209
-0.22269967179244904 1.597417959826437 41.211428571428314
-0.19756508903558764 1.558931394771865 42.54411873840419
-0.17527331282135344 1.5213899416979617 43.835732838589706
-0.15618952887338375 1.4848131303488903 45.08627087198487
-0.13996799493970205 1.4492579273521207 46.29573283858968
-0.12575834684109707 1.414793348097006 47.464118738404146
-0.11252036551224441 1.3814803417739592 48.59142857142826
-0.10008619772204906 1.3493287439341701 49.67766233766203
-0.0884564051429673 1.3183429909101199 50.722820037105436
-0.07764813403823374 1.2885282568378278 51.72690166975849
-0.06766754153321136 1.2598902937854002 52.68990723562119
-0.05846867713071129 1.232436165695546 53.61183673469354
-0.05000632361003568 1.2061723158716846 54.492690166975535
-0.0422455662862189 1.1811044227933998 55.332467532467184
-0.03513713503927796 1.1569320487308064 56.13116883116848
-0.028610254341892315 1.132685249603839 56.88879406307941
-0.02259956362415257 1.1053612382191949 57.605343228200006
-0.017476911002663225 1.0734053937069865 58.28081632653024
-0.013355710955940858 1.0396293298797683 58.91521335807013
-0.010110762084772787 1.0039547489863518 59.50853432281966
-0.007505342360435571 0.951867635167232 60.06077922077884
-0.005475063785670375 0.8832400767208537 60.57194805194767
-0.003985447751437076 0.8090019568814876 61.04204081632615
-0.0029419419370193198 0.7363401214856469 61.471057513914275
-0.00222865752783443 0.6664023126036768 61.85899814471204
-0.0017402354220029323 0.5962370372026056 62.20586270871946
-0.0014049497009942318 0.5268352101554902 62.511651205936516
-0.0011720086804816246 0.4610462649072068 62.77636363636324
-0.0010052173229800666 0.40133683730163466 62.9999999999996
-0.6209246712649916 0.82695625843421 2.6181818181818017
-0.6503643852126241 0.8659748676494539 4.834007421150248
-0.6916665849409614 0.9206955802771187 7.008756957328342
-0.7392485943984627 0.9794403150225213 9.142430426716084
-0.7761138204794831 1.0348264857706142 11.235027829313474
-0.765770157729804 1.075488522443818 13.286549165120508
-0.7126976399239822 1.0908426519629597 15.296994434137194
-0.6548892921938138 1.0838520530146898 17.26636363636353
-0.6072679581919687 1.0686030231332804 19.194656771799508
-0.5645539478947554 1.0514534855271616 21.081873840445137
-0.5237398826831674 1.033859681203021 22.928014842300414
-0.4840093998483088 1.0155365685489472 24.733079777365337
-0.44472987047405005 0.9953536756371327 26.497068645639906
-0.40609832807983987 0.9729080360098775 28.21998144712413
-0.3691188660449235 0.9499792439934469 29.90181818181799
-0.33476967873007946 0.9280194800302397 31.542578849721504
-0.3033937546858278 0.9069174773850676 33.14226345083467
-0.27460694522347623 0.8862067277521917 34.700871985157484
-0.24778798655364606 0.8657573294487749 36.21840445268994
-0.22257363420117282 0.8456314894348634 37.69486085343205
-0.19903295561691423 0.8258458311803334 39.1302411873838
-0.17736802372104568 0.8064086145596169 40.524545454545205
-0.15759928531051376 0.787345136383865 41.87777365491625
-0.1398144006963529 0.7686776273741157 43.18992578849694
-0.12429856563552642 0.7504176017200439 44.461001855287286
-0.11105907142990716 0.7325937976202052 45.691001855287276
-0.09964737816779967 0.7152535087077576 46.87992578849691
-0.08935451713250306 0.6984454832634762 48.0277736549162
-0.07972746121286005 0.6821957654302948 49.13454545454514
-0.07070347607438114 0.6665091419755103 50.200241187383725
-0.062289202192950394 0.6513892374132754 51.224860853431956
-0.054493378339291916 0.636840342879032 52.20840445268983
-0.047301081998971 0.6228674504161075 53.15087198515736
-0.040678125277780114 0.6094758035114516 54.05226345083454
-0.03459445871109547 0.5966701183337196 54.912578849721356
-0.029018512997061326 0.5843919601358731 55.73181818181782
-0.023905271017938854 0.5723819293645798 56.509981447123934
-0.01920368173726683 0.559567700786973 57.24706864563971
-0.015028677985055923 0.5446244319504236 57.94307977736512
-0.01156223323447653 0.5280798478031715 58.59801484230019
-0.008799927390267616 0.5109227702695425 59.21187384044489
-0.006606039166953134 0.4892055637568292 59.78465677179925
-0.00486765230478973 0.4588895135821543 60.316363636363256
-0.003547691826415294 0.4228709982729245 60.806994434136904
-0.0025977711331711486 0.38605819821598025 61.2565491651202
-0.001938974799320156 0.35061711280017427 61.66502782931315
-0.0014883348561890108 0.31585906346994036 62.03243042671575
-0.0011794444211239365 0.28106819589548615 62.35875695732798
-0.0009663593930534462 0.24719953118180737 62.64400742114988
-0.0008164597512981341 0.21564624159070883 62.88818181818142

CELLS 100 350
4 0 51 52 1
4 1 52 53 2
4 2 53 54 3
4 3 54 55 4
4 4 55 56 5
4 5 56 57 6
4 6 57 58 7
4 7 58 59 8
4 8 59 60 9
4 9 60 61 10
4 10 61 62 11
4 11 62 63 12
4 12 63 64 13
4 13 64 65 14
4 14 65 66 15
4 15 66 67 16
4 16 67 68 17
4 17 68 69 18
4 18 69 70 19
4 19 70 71 20
4 20 71 72 21
4 21 72 73 22
4 22 73 74 23
4 23 74 75 24
4 24 75 76 25
4 25 76 77 26
4 26 77 78 27
4 27 78 79 28
4 28 79 80 29
4 29 80 81 30
4 30 81 82 31
4 31 82 83 32
4 32 83 84 33
4 33 84 85 34
4 34 85 86 35
4 35 86 87 36
4 36 87 88 37
4 37 88 89 38
4 38 89 90 39
4 39 90 91 40
4 40 91 92 41
4 41 92 93 42
4 42 93 94 43
4 43 94 95 44
4 44 95 96 45
4 45 96 97 46
4 46 97 98 47
4 47 98 99 48
4 48 99 100 49
4 49 100 101 50
1 102
1 103
1 104
1 105
1 106
1 107
1 108
1 109
1 110
1 111
1 112
1 113
1 114
1 115
1 116
1 117
1 118
1 119
1 120
1 121
1 122
1 123
1 124
1 125
1 126
1 127
1 128
1 129
1 130
1 131
1 132
1 133
1 134
1 135
1 136
1 137
1 138
1 139
1 140
1 141
1 142
1 143
1 144
1 145
1 146
1 147
1 148
1 149
1 150
1 151

CELL_TYPES 100
7
7
7
7
7
7
7
7
7
7
7
7
7
7
7
7
7
7
7
7
7
7
7
7
7
7
7
7
7
7
7
7
7
7
7
7
7
7
7
7
7
7
7
7
7
7
7
7
7
7
7
7
7
7
7
7
7
7
7
7
7
7
7
7
7
7
7
7
7
7
7
7
7
7
7
7
7
7
7
7
7
7
7
7
7
7
7
7
7
7
7
7
7
7
7
7
7
7
7
7

POINT_DATA 152

VECTORS centroid-point-cyl-mean float
2.32077210653964 1.4956129428016258e-17 0.0
4.158286906814525 -3.00060276925718e-18 0.0
6.241554251945231 2.175437007711456e-17 0.0
8.345856736050985 -1.200241107702872e-17 0.0
10.433252586532875 5.251054846200065e-17 0.0
12.48486157541376 3.600723323108616e-17 0.0
14.492607321434562 -4.725949361580058e-17 0.0
16.45576954358357 -1.2302471353954437e-16 0.0
18.381501062198318 2.400482215405744e-17 0.0
20.270896167931795 7.201446646217232e-17 0.0
22.12262133832373 -1.200241107702872e-17 0.0
23.93577589009047 1.800361661554308e-16 0.0
25.709741042930386 -6.00120553851436e-17 0.0
27.443864385112363 2.1604339938651696e-16 0.0
29.13805934883493 6.00120553851436e-17 0.0
30.792415992156524 1.3202652184731592e-16 0.0
32.40674728759518 8.401687753920104e-17 0.0
33.98080511262584 3.00060276925718e-17 0.0
35.51441456064422 9.00180830777154e-17 0.0
37.00747810356672 -2.400482215405744e-17 0.0
38.45991705943726 2.520506326176031e-16 0.0
39.87166726296939 -1.9803978277097387e-16 0.0
41.242675876856254 -9.00180830777154e-17 0.0
42.57289900820052 2.2804581046354566e-16 0.0
43.862299902662755 1.0802169969325848e-16 0.0
45.11084755944432 -2.400482215405744e-16 0.0
46.31851565707008 1.200241107702872e-16 0.0
47.48528171162001 9.601928861622976e-17 0.0
48.611126419296966 -3.9007836000343344e-16 0.0
49.69603321793464 -2.3404701600206e-16 0.0
50.73998765394281 1.800361661554308e-16 0.0
51.742977103498504 -6.601326092365796e-17 0.0
52.70499053189334 -6.601326092365795e-16 0.0
53.62601826035781 1.8603737169394515e-16 0.0
54.506051773384776 1.9803978277097387e-16 0.0
55.34508355863659 5.221048818507493e-16 0.0
56.14309840675318 9.601928861622976e-17 0.0
56.900065008725164 2.0404098830948824e-16 0.0
57.61594273073668 1.9203857723245952e-16 0.0
58.29071474726198 2.520506326176031e-16 0.0
58.92439688013789 -4.800964430811488e-16 0.0
59.51698788389354 3.420687156953185e-16 0.0
60.06830356510728 4.800964430811488e-17 0.0
60.57839068325035 -1.8903797446320232e-16 0.0
61.04741851025987 1.4402893292434464e-16 0.0
61.47547876279688 4.800964430811488e-16 0.0
61.862583404199306 -1.3802772738583027e-16 0.0
62.20870854208412 0.0 0.0
62.513861126830435 2.400482215405744e-16 0.0
62.77805196003597 -2.880578658486893e-16 0.0
63.00127981816017 1.9803978277097387e-16 0.0
2.249147966829738 5.25105484620006e-18 0.8152906147965383
4.116583853662715 -1.200241107702872e-17 0.8405085085767725
6.2096230894012585 6.00120553851436e-18 0.8937965186568915
8.318727154322005 1.50030138462859e-17 0.9506477078523395
10.408764362764492 -9.751959000085836e-17 1.0206818772102288
12.463212632040564 -2.0404098830948824e-16 1.0489549774017275
14.475710998859254 -8.401687753920104e-17 0.9930987765444168
16.443347115961945 -1.50030138462859e-17 0.9074282632528681
18.372112228768405 -7.201446646217232e-17 0.8389431825973012
20.263430365321145 -1.1402290523177283e-16 0.7804380392479483
22.116684354670713 4.800964430811488e-17 0.7250391551380657
23.93108217188865 1.200241107702872e-16 0.671600532017048
25.706046768040835 -1.800361661554308e-16 0.6190912009117754
27.440967823120705 3.00060276925718e-17 0.5668551203523576
29.135788145853052 1.4402893292434464e-16 0.5160737545272159
30.790638268834087 -6.00120553851436e-17 0.46824322159258047
32.40535662526972 1.50030138462859e-16 0.4244759216876317
33.97971649412385 -1.4402893292434464e-16 0.3845740908079094
35.51356322617751 3.00060276925718e-17 0.3477110964546936
37.006816101433145 1.0202049415474412e-16 0.31305686768836216
38.45940607604928 4.2608559323451947e-16 0.28047282351476527
39.87127513824644 -1.6803375507840208e-16 0.2502817247970059
41.24237613227832 1.800361661554308e-16 0.222699671792449
42.572670885452425 -1.3802772738583027e-16 0.19756508903558773
43.862126041163556 -9.00180830777154e-17 0.17527331282135347
45.11071370721214 6.00120553851436e-17 0.1561895288733837
46.31841132424637 -1.0202049415474412e-16 0.139967994939702
47.48519988197541 -1.2602531630880155e-16 0.12575834684109707
48.61106271772849 4.800964430811488e-17 0.1125203655122444
49.695983976514455 2.1604339938651696e-16 0.10008619772204906
50.739949751239195 4.0208077108046203e-16 0.08845640514296735
51.74294793903364 3.8407715446491904e-16 0.07764813403823377
52.70496796366309 5.941193483129217e-16 0.06766754153321132
53.62600056847391 -4.200843876960052e-16 0.05846867713071127
54.506037585661836 2.100421938480026e-16 0.05000632361003566
55.345071785020664 -6.721350203136083e-16 0.0422455662862189
56.143090457495596 -3.00060276925718e-17 0.03513713503927796
56.90006911969567 -4.860976486196631e-16 0.02861025434189232
57.61594737488659 -3.8407715446491904e-16 0.02259956362415258
58.29070038030088 -3.8407715446491904e-16 0.017476911002663232
58.924385394932095 6.601326092365796e-17 0.013355710955940852
59.51700246474308 -2.880578658486893e-16 0.01011076208477279
60.06832153974367 -6.00120553851436e-18 0.007505342360435571
60.57838726675538 -1.8603737169394515e-16 0.005475063785670372
61.047401510533454 -7.201446646217232e-16 0.00398544775143708
61.47546753505406 -5.401084984662924e-17 0.0029419419370193224
61.86258759144941 -4.320867987730339e-16 0.002228657527834429
62.208720079588566 -4.320867987730339e-16 0.0017402354220029325
62.51387119537023 1.9203857723245952e-16 0.0014049497009942311
62.778056636561374 9.301868584697257e-17 0.0011720086804816246
63.001278330339765 -1.0052019277011551e-16 0.0010052173229800666
2.7456752696597806 1.800361661554308e-17 0.6209246712649911
4.910961231687366 -5.9074367019750695e-18 0.6503643852126235
7.068971243288551 -4.50090415388577e-18 0.6916665849409612
9.194745099133304 3.600723323108616e-17 0.739248594398462
11.2825846409899 -7.801567200068668e-17 0.7761138204794836
13.330006162004342 -1.1402290523177283e-16 0.7657701577298041
15.335839605622082 1.800361661554308e-17 0.7126976399239818
17.300348218922124 -4.200843876960052e-17 0.6548892921938139
19.22437934000054 -1.4402893292434464e-16 0.6072679581919687
21.108078052174097 -1.2602531630880155e-16 0.5645539478947551
22.951312172709585 1.1402290523177283e-16 0.5237398826831668
24.753919887476027 -7.201446646217232e-17 0.484009399848309
26.515757121971088 -1.1102230246251565e-16 0.4447298704740503
28.23674738567752 -6.00120553851436e-18 0.40609832807984025
29.916904772093716 2.400482215405744e-17 0.36911886604492333
31.556227604804366 -9.00180830777154e-18 0.3347696787300796
33.15466974583404 -6.00120553851436e-17 0.3033937546858278
34.71218631683412 -1.3202652184731592e-16 0.2746069452234762
36.22875041803307 9.00180830777154e-17 0.24778798655364595
37.70434494027889 3.00060276925718e-18 0.22257363420117296
39.138954977358715 3.9307896277269054e-16 0.1990329556169143
40.53256812923583 2.100421938480026e-17 0.17736802372104576
41.885174449394306 -1.200241107702872e-16 0.15759928531051387
43.19676556075359 -6.301265815440077e-17 0.1398144006963529
44.46733421909659 -1.8903797446320232e-16 0.12429856563552641
45.69687455627775 2.370476187713172e-16 0.11105907142990722
46.88538183183226 4.560916209270913e-16 0.09964737816779974
48.03285196967762 5.701145261588641e-17 0.08935451713250309
49.13928111080935 2.400482215405744e-17 0.07972746121286002
50.204665616930924 1.4102833015508744e-16 0.07070347607438117
51.22900230720966 -1.83036768924688e-16 0.062289202192950394
52.21228841104337 -2.400482215405744e-16 0.05449337833929196
53.15452150704947 1.8603737169394515e-16 0.04730108199897099
54.0556994674336 -6.00120553851436e-18 0.040678125277780135
54.91582040866723 9.601928861622976e-17 0.03459445871109548
55.734882002335716 4.800964430811488e-17 0.029018512997061336
56.51288016220169 4.800964430811488e-17 0.023905271017938847
57.24980335800607 -3.3606751015680416e-16 0.01920368173726683
57.94563926524575 -1.4402893292434464e-16 0.01502867798505592
58.60039429717264 -4.2608559323451947e-16 0.011562233234476528
59.21407810456867 -1.4402893292434464e-16 0.008799927390267618
59.786658272606864 3.420687156953185e-16 0.006606039166953131
60.31810923677645 0.0 0.004867652304789729
60.80846480543933 -1.4552923430897321e-16 0.0035476918264152916
61.257765683635675 1.9503918000171672e-16 0.0025977711331711495
61.66602459661048 1.9203857723245952e-16 0.001938974799320156
62.03323457303612 -3.3306690738754696e-16 0.0014883348561890101
62.35939038022952 4.800964430811488e-17 0.0011794444211239363
62.64449515631293 -1.4252863153971604e-16 0.0009663593930534463
62.88855154714706 8.191645560072101e-16 0.0008164597512981336

VECTORS centroid-point-mean float
0.0 -0.04786137129567727 0.04054054054053923
0.0 -0.049326632868928647 0.10098280098279848
0.0 -0.05249448439552919 0.16031489745775068
0.0 -0.05586264142871868 0.2185368299653964
0.0 -0.05941765347599438 0.2756485985057351
0.0 -0.06217929286542179 0.33165020307876764
0.0 -0.06331074857322415 0.3865416436844926
0.0 -0.06259998543840965 0.44032292032291165
0.0 -0.06135524882483033 0.49299403299402134
0.0 -0.06010579966655536 0.5445549816978269
0.0 -0.05884669313177756 0.5950057664343259
0.0 -0.057567214472157735 0.6443463872035162
0.0 -0.05625628075621333 0.692576844005403
0.0 -0.05482426883911427 0.739697136839979
0.0 -0.05333060062180141 0.785707265707251
0.0 -0.05190541771817024 0.830607230607213
0.0 -0.050568056693206485 0.8743970315398699
0.0 -0.04928689370090659 0.9170766685052211
0.0 -0.048039141894069395 0.9586461415032649
0.0 -0.0468247944624688 0.9991054505340018
0.0 -0.04564384477779127 1.0384545955974303
0.0 -0.04449628639357119 1.076693576693556
0.0 -0.04338211304521774 1.113822393822373
0.0 -0.042301318650036335 1.1498410469838791
0.0 -0.041253897307181576 1.1847495361780822
0.0 -0.040239843297704 1.218547861404978
0.0 -0.03925915108451018 1.2512360226645705
0.0 -0.038311815312404025 1.28281401995685
0.0 -0.03739783883639592 1.3132818532818253
0.0 -0.036517326938806965 1.342639522639496
0.0 -0.035670296540365055 1.37088702802986
0.0 -0.034856726268777984 1.3980243694529122
0.0 -0.03407659559171121 1.4240515469086625
0.0 -0.03332988481679024 1.4489685603971048
0.0 -0.03261657509160417 1.4727754099182342
0.0 -0.031936648403696095 1.4954720954720666
0.0 -0.03127885790674382 1.5170586170585874
0.0 -0.030607532906442775 1.5375349746778006
0.0 -0.02986808485502196 1.556901168329712
0.0 -0.029032035149736124 1.5751571980143086
0.0 -0.028115678048514448 1.5923030637316036
0.0 -0.027110540179659026 1.6083387654815873
0.0 -0.02569547718268997 1.6232643032642724
0.0 -0.023877685709409714 1.637079677079647
0.0 -0.021899560631784942 1.6497848869277103
0.0 -0.019926402864815347 1.661379932808469
0.0 -0.018000364699162563 1.6718648147219262
0.0 -0.016081947237601334 1.6812395326680722
0.0 -0.014206462895133904 1.689504086646909
0.0 -0.012443487800384786 1.6966584766584463
0.0 -0.010853252034800639 1.702702702702669
-0.8152906147965383 0.04529480236222503 0.04054054054054009
-0.8405085085767725 0.04670165008429618 0.10098280098279938
-0.8937965186568915 0.04965132541102145 0.16031489745775226
-0.9506477078523395 0.052824154748561836 0.2185368299653977
-1.0206818772102288 0.05619290319426656 0.27564859850573714
-1.0489549774017275 0.05892150131741395 0.3316502030787681
-0.9930987765444168 0.0604211987977178 0.3865416436844938
-0.9074282632528681 0.06016833610438383 0.44032292032291254
-0.8389431825973012 0.059265538597026324 0.49299403299402356
-0.7804380392479483 0.058237911666455304 0.5445549816978285
-0.7250391551380657 0.05719335065565674 0.5950057664343272
-0.671600532017048 0.05612369466838613 0.644346387203517
-0.6190912009117754 0.05500929516801061 0.6925768440054006
-0.5668551203523576 0.05375475654480393 0.7396971368399805
-0.5160737545272159 0.05241636469962343 0.7857072657072504
-0.46824322159258047 0.051129280620422865 0.830607230607215
-0.4244759216876317 0.04991283103237998 0.8743970315398715
-0.3845740908079094 0.04873557422582688 0.9170766685052208
-0.3477110964546936 0.04757719279245928 0.958646141503264
-0.31305686768836216 0.046441043971326104 0.9991054505340028
-0.28047282351476527 0.045328249428375544 1.0384545955974311
-0.2502817247970059 0.04423888122731121 1.076693576693555
-0.222699671792449 0.04317345837367933 1.1138223938223744
-0.19756508903558773 0.04213328093977193 1.1498410469838811
-0.17527331282135347 0.04111864707291294 1.1847495361780847
-0.1561895288733837 0.040130084604013405 1.2185478614049798
-0.139967994939702 0.03916913317167111 1.2512360226645711
-0.12575834684109707 0.03823765805667449 1.28281401995685
-0.1125203655122444 0.03733730653442326 1.3132818532818276
-0.10008619772204906 0.03646834443064398 1.3426395226394956
-0.08845640514296735 0.03563089164621403 1.3708870280298593
-0.07764813403823377 0.03482508802263477 1.3980243694529138
-0.06766754153321132 0.03405108902121753 1.42405154690866
-0.05846867713071127 0.03330908555932823 1.448968560397105
-0.05000632361003566 0.03259925178030615 1.472775409918237
-0.0422455662862189 0.03192174115656839 1.4954720954720668
-0.03513713503927796 0.031268433749473426 1.5170586170585847
-0.02861025434189232 0.030613114854146823 1.5375349746777995
-0.02259956362415258 0.029874628059968874 1.556901168329711
-0.017476911002663232 0.02901095658666763 1.5751571980143075
-0.013355710955940852 0.028098089996744922 1.5923030637316054
-0.01011076208477279 0.027133912134757722 1.6083387654815886
-0.007505342360435571 0.025726152301808917 1.6232643032642682
-0.005475063785670372 0.023871353424876847 1.6370796770796423
-0.00398544775143708 0.021864917753540228 1.6497848869277103
-0.0029419419370193224 0.01990108436446566 1.6613799328084724
-0.002228657527834429 0.01801087331359709 1.6718648147219215
-0.0017402354220029325 0.016114514518972823 1.6812395326680698
-0.0014049497009942311 0.014238789463648456 1.689504086646908
-0.0011720086804816246 0.012460709862345322 1.6966584766584407
-0.0010052173229800666 0.010846941548681498 1.7027027027026664
-0.6209246712649911 0.022350169146869662 0.0707616707616696
-0.6503643852126235 0.023404726152686694 0.1306488492202756
-0.6916665849409612 0.024883664331812376 0.18942586371157463
-0.739248594398462 0.026471359865472104 0.2470927142355669
-0.7761138204794836 0.027968283399203434 0.30364940079225183
-0.7657701577298041 0.02906725736334324 0.35909592338163127
-0.7126976399239818 0.02948223383683407 0.41343228200370213
-0.6548892921938139 0.029293298730125067 0.46665847665846777
-0.6072679581919687 0.02888116278738264 0.5187745073459251
-0.5645539478947551 0.02841766177099978 0.569780374066077
-0.5237398826831668 0.02794215354602116 0.6196760768189226
-0.484009399848309 0.027446934285099842 0.6684616156044587
-0.4447298704740503 0.02690145069289102 0.7161369904226895
-0.40609832807984025 0.026294811784044213 0.7627022012736152
-0.36911886604492333 0.025675114702522258 0.8081572481572322
-0.3347696787300796 0.025081607568378857 0.8525021310735428
-0.3033937546858278 0.024511283172567858 0.8957368500225467
-0.2746069452234762 0.023951533182486218 0.9378614050042431
-0.24778798655364595 0.023398846741852206 0.9788757960186351
-0.22257363420117296 0.022854905119855006 1.0187800230657156
-0.1990329556169143 0.022320157599462084 1.0575740861454954
-0.17736802372104576 0.02179482742052457 1.0952579852579623
-0.15759928531051387 0.021279598280639817 1.1318317204031254
-0.1398144006963529 0.020775071010102307 1.1672952915809836
-0.12429856563552641 0.02028155680323718 1.201648698791531
-0.11105907142990722 0.019799832368106018 1.2348919420347748
-0.09964737816779974 0.019331175911010585 1.2670250213107088
-0.08935451713250309 0.018876904953059437 1.2980479366193407
-0.07972746121286002 0.018437723390004702 1.3279606879606594
-0.07070347607438117 0.01801376059391672 1.3567632753346792
-0.062289202192950394 0.01760511452467659 1.3844556987413859
-0.05449337833929196 0.017211901158885077 1.4110379581807881
-0.04730108199897099 0.01683425541664104 1.4365100536528808
-0.040678125277780135 0.01647231901381154 1.4608719851576701
-0.03459445871109548 0.01612621941441463 1.4841237526951485
-0.029018512997061336 0.01579437730096551 1.5062653562653232
-0.023905271017938847 0.015469781874709106 1.5272967958681931
-0.01920368173726683 0.015123451372609325 1.5472180715037538
-0.01502867798505592 0.014719579241892202 1.5660291831720068
-0.011562233234476528 0.014272428318998442 1.5837301308729543
-0.008799927390267618 0.013808723520793355 1.6003209146065942
-0.006606039166953131 0.01322177199340751 1.6158015343729306
-0.004867652304789729 0.01240241928599476 1.6301719901719562
-0.0035476918264152916 0.011428945899260164 1.6434322820036762
-0.0025977711331711495 0.01043400535717819 1.655582409868092
-0.001938974799320156 0.009476138183773802 1.6666223737651997
-0.0014883348561890101 0.008536731445128625 1.6765521736949967
-0.0011794444211239363 0.0075964377268954286 1.6853718096574868
-0.0009663593930534463 0.006681068410312685 1.6930812816526748
-0.0008164597512981336 0.005828276799738278 1.699680589680558

VECTORS centroid-point-cyl-variance float
3.86e-30 0.0 0.0
2.1169999999999998e-29 1.9999999999999998e-32 0.0
2.46e-29 9.999999999999999e-33 0.0
5.568999999999999e-29 8.999999999999999e-32 0.0
8.809999999999999e-29 9.999999999999999e-32 0.0
9.423999999999999e-29 1.1e-31 0.0
1.5291e-28 2.2e-31 0.0
1.8728e-28 2.6999999999999997e-31 0.0
3.0395e-28 1.4e-31 0.0
3.1213e-28 6.6e-31 0.0
3.2372999999999997e-28 6.6e-31 0.0
3.6670999999999996e-28 7.199999999999999e-31 0.0
4.537e-28 6.0e-31 0.0
4.8985999999999995e-28 9.7e-31 0.0
5.9186e-28 4.7e-31 0.0
7.9243999999999996e-28 6.3999999999999995e-31 0.0
6.4405e-28 5.5e-31 0.0
8.1735e-28 1.39e-30 0.0
9.2241e-28 1.14e-30 0.0
1.25399e-27 1.5999999999999998e-30 0.0
1.1625699999999999e-27 1.01e-30 0.0
1.1188999999999999e-27 1.63e-30 0.0
1.22943e-27 1.8099999999999997e-30 0.0
1.38635e-27 1.19e-30 0.0
1.269e-27 1.97e-30 0.0
1.47368e-27 2.89e-30 0.0
1.5555499999999999e-27 2.48e-30 0.0
1.67972e-27 3.66e-30 0.0
1.7110999999999998e-27 2.19e-30 0.0
1.80116e-27 1.69e-30 0.0
1.77251e-27 2.2099999999999998e-30 0.0
1.83391e-27 1.47e-30 0.0
1.86939e-27 2.94e-30 0.0
2.19005e-27 3.04e-30 0.0
2.04541e-27 4.06e-30 0.0
2.23644e-27 4.08e-30 0.0
2.1886799999999998e-27 3.23e-30 0.0
2.1832299999999998e-27 2.0099999999999997e-30 0.0
2.40564e-27 1.67e-30 0.0
2.55165e-27 3.09e-30 0.0
2.9009599999999998e-27 1.99e-30 0.0
2.9118799999999997e-27 2.7e-30 0.0
2.5898499999999997e-27 4.86e-30 0.0
2.5502799999999997e-27 2.8599999999999998e-30 0.0
3.25301e-27 1.77e-30 0.0
2.53936e-27 4.7199999999999996e-30 0.0
3.30622e-27 2.63e-30 0.0
2.76724e-27 2.22e-30 0.0
2.8996e-27 2.07e-30 0.0
3.39765e-27 4.18e-30 0.0
3.0688e-27 3.54e-30 0.0
5.46e-30 0.0 0.0
2.049e-29 1.9999999999999998e-32 1.9999999999999997e-31
3.032e-29 6.0e-32 4.999999999999999e-32
7.249e-29 4.999999999999999e-32 1.9999999999999997e-31
7.871999999999999e-29 1.1e-31 7.9e-31
1.1036e-28 1.9999999999999997e-31 1.9999999999999997e-31
1.4507e-28 1.5999999999999999e-31 0.0
2.6983e-28 2.8999999999999996e-31 4.4e-31
2.4254e-28 1.4e-31 9.999999999999999e-33
2.8757e-28 3.5e-31 4.4e-31
3.8512999999999996e-28 4.7e-31 1.1e-31
3.9537e-28 5.8999999999999994e-31 4.999999999999999e-32
4.9532e-28 4.4999999999999995e-31 1.1e-31
5.366e-28 8.999999999999999e-31 0.0
5.908399999999999e-28 3.7e-31 3.1e-31
8.7841e-28 4.7e-31 4.999999999999999e-32
7.3957e-28 5.2e-31 1.1e-31
9.961e-28 1.11e-30 0.0
8.692e-28 1.1299999999999999e-30 4.999999999999999e-32
1.15984e-27 1.9999999999999998e-30 9.999999999999999e-33
1.59648e-27 2.4199999999999997e-30 0.0
1.75204e-27 1.94e-30 3.0e-32
1.30038e-27 1.87e-30 0.0
1.47231e-27 2.4099999999999998e-30 9.999999999999999e-33
1.7957e-27 2.85e-30 0.0
1.4013599999999999e-27 1.92e-30 0.0
1.68245e-27 2.89e-30 0.0
1.55418e-27 2.08e-30 0.0
1.79025e-27 1.32e-30 0.0
1.6688e-27 3.51e-30 0.0
1.92124e-27 2.2099999999999998e-30 0.0
2.04405e-27 2.75e-30 0.0
1.92806e-27 1.53e-30 0.0
2.1300099999999998e-27 3.66e-30 0.0
1.9539899999999998e-27 2.0099999999999997e-30 0.0
2.13274e-27 3.2999999999999996e-30 0.0
2.10272e-27 2.48e-30 0.0
2.5011599999999998e-27 3.3499999999999996e-30 0.0
2.5352699999999998e-27 3.78e-30 0.0
2.21597e-27 2.58e-30 0.0
2.3606099999999997e-27 2.8099999999999998e-30 0.0
2.3606099999999997e-27 2.13e-30 0.0
2.4329299999999998e-27 5.63e-30 0.0
2.4916099999999997e-27 2.0099999999999997e-30 0.0
2.5898499999999997e-27 4.68e-30 0.0
3.4017399999999996e-27 1.9599999999999997e-30 0.0
3.45768e-27 3.31e-30 0.0
3.29121e-27 3.14e-30 0.0
2.9500799999999998e-27 3.37e-30 0.0
2.91734e-27 4.09e-30 0.0
3.0728899999999997e-27 2.89e-30 0.0
5.51e-30 9.999999999999999e-33 3.1e-31
2.194e-29 3.9999999999999997e-32 3.1e-31
3.571e-29 6.0e-32 4.999999999999999e-32
8.221e-29 7.0e-32 4.4e-31
1.0114e-28 1.6999999999999998e-31 3.1e-31
1.3244e-28 1.6999999999999998e-31 9.999999999999999e-33
1.7892e-28 1.5999999999999999e-31 1.1e-31