# vtk DataFile Version 4.0
 
ASCII
DATASET UNSTRUCTURED_GRID
POINTS 62 float
0.0 2.1844823085591587 0.7836343466598483
0.0 7.146196544478194 -1.8042426859086567
0.0 11.911102759178789 -4.203336138794267
0.0 16.281075038889913 -6.756810160944408
0.0 20.375390990168512 -9.25806987759726
0.0 24.23759311820136 -11.631697457480476
0.0 27.864907734946705 -13.882497069206728
0.0 31.27035834684162 -15.987911337934309
0.0 34.45071464644127 -17.953535320281716
0.0 37.405689563576715 -19.77986623636692
0.0 40.135283495462616 -21.466903398193953
0.0 42.639496143717125 -23.0146473225753
0.0 44.91831748738936 -24.423115366307044
0.0 46.9717475317162 -25.692307520318682
0.0 48.799483351908364 -26.822748465736048
0.0 50.39925254920921 -27.818374112660745
0.0 51.75580631514055 -28.705596172131905
0.0 52.86955438260684 -29.483704965941453
0.0 53.72722341563952 -30.175690586372834
0.0 54.35031558830596 -30.744310175468236
0.0 54.76039323613955 -31.15221667255391
-0.8152938918039478 0.46109124066538054 -2.201366544242563
-0.9232602711185554 5.1897052560912265 -5.192985001960782
-1.045017403566863 9.654880636835465 -8.111227487853792
-0.8624275731409438 14.032470371161226 -10.651507691587033
-0.7172432011617597 18.23594802581226 -12.963693791758065
-0.5835709082011334 22.213009009996714 -15.13837999708745
-0.458823694439046 25.968877647486696 -17.166517513366735
-0.35706975050238215 29.490037977042345 -19.071516672176465
-0.27205245991127286 32.77910024198108 -20.848856399470773
-0.20240159072431146 35.835974304849955 -22.498692817897805
-0.1506132401889805 38.66045183983429 -24.021386758353145
-0.11426271706148827 41.252196158653696 -25.417521382044697
-0.08424963388989035 43.61086387567662 -26.68769145033295
-0.059335794404298196 45.7363824284051 -27.832022645151074
-0.038970351202568594 47.62908402341537 -28.849939567830425
-0.02333805368457717 49.29124437010723 -29.737500574067255
-0.011931771028020786 50.73774413552425 -30.468931592491643
-0.005641151376299379 51.96823574076849 -31.044834647414454
-0.0026418300562744777 52.99633921110323 -31.441619163079253
-0.0014569859069231085 53.80046600856273 -31.69667758410389
-0.001005086180947595 54.35893040588281 -31.84757069190898
-0.6519578110959388 3.2853835429133973 -2.9004578722323555
-0.7381041280070318 7.948882122804633 -5.740027036768331
-0.7152918662654275 12.406778852757347 -8.406043979757644
-0.5923765403635137 16.682715152497362 -10.85756056107212
-0.4878052910110849 20.7449819019746 -13.149498587701787
-0.39089797599006726 24.581020103199787 -15.30361088225622
-0.30596004185303555 28.18900161942193 -17.32306387047133
-0.23592082890512064 31.56606095629414 -19.212820734144717
-0.17792026898834412 34.71270348131389 -20.9720061510943
-0.1323805615924845 37.62878143663651 -22.600876045414218
-0.0993284839689258 40.31409045433046 -24.09978439274535
-0.07444213160676699 42.76837421676218 -25.469175148251907
-0.05384453561032071 44.99147549141883 -26.709320646634716
-0.036864804602575046 46.98345377988574 -27.8201178281249
-0.023365651832679663 48.74496513521067 -28.80043037551123
-0.013226184267224234 50.28025304765553 -29.64290834805867
-0.006589845901620062 51.5929125408282 -30.341324982223956
-0.0031061180372151964 52.686312831732685 -30.889844622974422
-0.0015370559861990949 53.55849433286793 -31.291861375423814
-0.0009232770329515139 54.198612258472764 -31.56615895950759

CELLS 40 140
4 0 21 22 1
4 1 22 23 2
4 2 23 24 3
4 3 24 25 4
4 4 25 26 5
4 5 26 27 6
4 6 27 28 7
4 7 28 29 8
4 8 29 30 9
4 9 30 31 10
4 10 31 32 11
4 11 32 33 12
4 12 33 34 13
4 13 34 35 14
4 14 35 36 15
4 15 36 37 16
4 16 37 38 17
4 17 38 39 18
4 18 39 40 19
4 19 40 41 20
1 42
1 43
1 44
1 45
1 46
1 47
1 48
1 49
1 50
1 51
1 52
1 53
1 54
1 55
1 56
1 57
1 58
1 59
1 60
1 61

CELL_TYPES 40
7
7
7
7
7
7
7
7
7
7
7
7
7
7
7
7
7
7
7
7
7
7
7
7
7
7
7
7
7
7
7
7
7
7
7
7
7
7
7
7

POINT_DATA 62

VECTORS centroid-point-cyl-mean float
2.3207855880440533 -6.00120553851436e-18 0.0
7.370442098135443 -7.201446646217232e-17 0.0
12.631009604754926 1.087718503855728e-17 0.0
17.627475371504765 -8.401687753920104e-17 0.0
22.380089719675308 -5.401084984662924e-17 0.0
26.884145995471805 -1.6803375507840208e-16 0.0
31.131604647907704 1.800361661554308e-16 0.0
35.12048718468382 -2.400482215405744e-17 0.0
38.84818104039278 4.320867987730339e-16 0.0
42.31345790709202 -5.401084984662924e-17 0.0
45.51558988707666 -2.400482215405744e-16 0.0
48.454108419953414 5.761157316973786e-16 0.0
51.128698497945976 3.720747433878903e-16 0.0
53.53914205421975 -6.481301981595508e-16 0.0
55.68527103884237 5.281060873892637e-16 0.0
57.56688801551583 -2.880578658486893e-16 0.0
59.18339918362131 2.400482215405744e-16 0.0
60.53493734310885 9.601928861622976e-17 0.0
61.62131805080586 -1.9203857723245952e-16 0.0
62.44332960944558 8.701748030845821e-17 0.0
63.00127991549379 -9.901989138548693e-17 0.0
2.2491375667861684 1.200241107702872e-17 0.8152938918039475
7.3416710547184545 -1.200241107702872e-17 0.9232602711185551
12.609866433521645 1.200241107702872e-17 1.0450174035668625
17.61717459814305 2.400482215405744e-17 0.8624275731409441
22.374252102061302 -7.801567200068668e-17 0.71724320116176
26.881002924266348 -1.800361661554308e-17 0.5835709082011332
31.129920170261684 1.200241107702872e-16 0.4588236944390458
35.11958268636615 -2.880578658486893e-16 0.35706975050238243
38.84770554150659 -2.3404701600206e-16 0.2720524599112728
42.313215818370516 6.00120553851436e-16 0.20240159072431135
45.51546504491127 1.800361661554308e-16 0.15061324018898056
48.454040916302866 5.581121150818355e-16 0.11426271706148837
51.12866439611914 -3.060614824642323e-16 0.08424963388989029
53.53912739443496 1.0202049415474412e-16 0.05933579440429822
55.68526428039147 -4.800964430811488e-17 0.038970351202568594
57.566880338839745 1.50030138462859e-16 0.023338053684577188
59.183396931486406 -3.7807594892640464e-16 0.011931771028020786
60.53494267192631 4.320867987730339e-16 0.005641151376299383
61.62132248965809 -1.9203857723245952e-16 0.0026418300562744785
62.44333040933323 4.860976486196631e-16 0.0014569859069231076
63.00127835090145 1.4402893292434464e-16 0.0010050861809475953
4.382510797778016 -2.062914403864311e-17 0.651957811095939
9.804725258010793 -3.00060276925718e-18 0.7381041280070315
14.986318323419123 5.401084984662924e-17 0.7152918662654278
19.904763404690733 -9.00180830777154e-17 0.5923765403635137
24.561424779951732 -6.601326092365796e-17 0.48780529101108516
28.955604903877 -1.2602531630880155e-16 0.39089797599006765
33.0863771688622 2.1604339938651696e-16 0.30596004185303555
36.953331174047946 -1.9203857723245952e-16 0.23592082890512064
40.556094794533244 9.301868584697257e-17 0.17792026898834398
43.894473347180586 1.6503315230914488e-16 0.13238056159248454
46.96834569086674 1.9203857723245952e-16 0.09932848396892573
49.7776326865526 -4.800964430811488e-17 0.07444213160676702
52.32227705575995 1.0202049415474412e-16 0.053844535610320744
54.60223333397109 3.8407715446491904e-16 0.036864804602575026
56.61745681190199 -3.9607956554194774e-16 0.02336565183267968
58.36784955664968 -3.8707775723417624e-16 0.013226184267224226
59.85335935536525 -1.8903797446320232e-16 0.006589845901620066
61.07397203911592 9.901989138548693e-17 0.003106118037215195
62.029774330901766 -2.355473173866886e-16 0.0015370559861990955
62.720905304381475 1.4402893292434464e-16 0.0009232770329515135

VECTORS centroid-point-mean float
0.0 0.05904006239348959 0.021179306666483853
0.0 0.1931404471480576 -0.048763315835365736
0.0 0.32192169619401734 -0.11360367942686622
0.0 0.4400290551051298 -0.18261649083632867
0.0 0.5506862429775223 -0.2502181047999173
0.0 0.6550700842757065 -0.31437020155351736
0.0 0.7531056144580123 -0.3752026234920607
0.0 0.8451448201849014 -0.4321057118360474
0.0 0.9311003958497602 -0.48523068433192335
0.0 1.010964582799361 -0.5345909793612543
0.0 1.0847373917692547 -0.5801865783295467
0.0 1.152418814695047 -0.6220174952047212
0.0 1.214008580740245 -0.6600841990893574
0.0 1.2695066900463765 -0.6943866897383258
0.0 1.3189049554569732 -0.7249391477225726
0.0 1.362141960789429 -0.7518479489908106
0.0 1.3988055760848712 -0.7758269235711116
0.0 1.4289068752055785 -0.7968568909713692
0.0 1.452087119341601 -0.8155592050370807
0.0 1.4689274483325858 -0.8309273020396609
0.0 1.4800106280037617 -0.8419518019608933
-0.8152938918039475 0.012461925423389395 -0.059496393087637205
-0.9232602711185551 0.14026230421868116 -0.14035094599893927
-1.0450174035668625 0.26094271991447127 -0.21922236453658558
-0.8624275731409441 0.3792559559773292 -0.28787858625910356
-0.71724320116176 0.49286346015708576 -0.35037010247994077
-0.5835709082011332 0.6003515948647731 -0.4091454053266772
-0.4588236944390458 0.7018615580401768 -0.4639599327936818
-0.35706975050238243 0.7970280534335717 -0.5154463965452967
-0.2720524599112728 0.8859216281616438 -0.5634826053910882
-0.20240159072431135 0.9685398460770188 -0.6080727788620885
-0.15061324018898056 1.0448770767522724 -0.649226669144666
-0.11426271706148837 1.1149242205041503 -0.6869600373525397
-0.08424963388989029 1.1786719966399002 -0.7212889581170917
-0.05933579440429822 1.2361184440109418 -0.752216828247312
-0.038970351202568594 1.2872725411733803 -0.7797280964278307
-0.023338053684577188 1.3321957937866715 -0.8037162317315267
-0.011931771028020786 1.371290382041184 -0.8234846376348887
-0.005641151376299383 1.4045469119126546 -0.8390495850652362
-0.0026418300562744785 1.432333492191967 -0.8497734908940157
-0.0014569859069231076 1.4540666488800562 -0.8566669617325163
-0.0010050861809475953 1.4691602812400681 -0.8607451538353531
-0.651957811095939 0.08879414980846996 -0.07839075330357612
-0.7381041280070315 0.21483465196769128 -0.15513586585860117
-0.7152918662654278 0.3353183473718188 -0.22719037783128246
-0.5923765403635137 0.45088419331073515 -0.29344758273167226
-0.48780529101108516 0.5606751865398497 -0.35539185372166016
-0.39089797599006765 0.6643518946810718 -0.41361110492583514
-0.30596004185303555 0.7618649086330198 -0.4681909154181346
-0.23592082890512064 0.8531367826025377 -0.5192654252471424
-0.17792026898834398 0.9381811751706393 -0.5668109770565876
-0.13238056159248454 1.016994092882064 -0.6108344877138826
-0.09932848396892573 1.0895700122791931 -0.6513455241282329
-0.07444213160676702 1.155902005858426 -0.6883560850878736
-0.053844535610320744 1.2159858240923953 -0.7218735309901103
-0.036864804602575026 1.2698230751320387 -0.7518950764357941
-0.02336565183267968 1.3174314901408228 -0.7783900101489324
-0.013226184267224226 1.3589257580447376 -0.8011596850826456
-0.006589845901620066 1.394403041643994 -0.8200358103303611
-0.003106118037215195 1.4239544008576293 -0.8348606654857744
-0.0015370559861990955 1.4475268738612859 -0.84572598311954
-0.0009232770329515135 1.4648273583370972 -0.8531394313380191

VECTORS centroid-point-cyl-variance float
1.447e-29 9.999999999999999e-33 0.0
5.731e-29 1.9999999999999998e-32 0.0
1.3688e-28 1.6999999999999998e-31 0.0
2.4937e-28 3.1999999999999997e-31 0.0
4.728e-28 4.2e-31 0.0
5.208999999999999e-28 5.399999999999999e-31 0.0
1.21033e-27 9.2e-31 0.0
9.4152e-28 1.2599999999999999e-30 0.0
1.11617e-27 9.2e-31 0.0
1.24717e-27 1.8999999999999998e-30 0.0
1.7206499999999998e-27 2.9299999999999997e-30 0.0
1.6019399999999999e-27 2.14e-30 0.0
1.8571099999999998e-27 3.04e-30 0.0
2.23917e-27 1.78e-30 0.0
2.83137e-27 2.8799999999999997e-30 0.0
2.2651e-27 1.62e-30 0.0
3.04696e-27 4.29e-30 0.0
3.0715299999999998e-27 2.89e-30 0.0
3.2093399999999997e-27 3.1999999999999996e-30 0.0
4.0744499999999996e-27 5.11e-30 0.0
2.99102e-27 3.06e-30 0.0
7.71e-30 0.0 1.1e-31
3.993e-29 6.0e-32 4.999999999999999e-32
1.0464e-28 1.9e-31 1.9999999999999997e-31
1.9513e-28 3.8e-31 1.1e-31
3.1758999999999997e-28 5.1e-31 1.1e-31
4.779199999999999e-28 4.7e-31 4.999999999999999e-32
6.2427e-28 7.199999999999999e-31 4.999999999999999e-32
7.2592e-28 2.0099999999999997e-30 7.999999999999999e-32
1.2403499999999999e-27 1.57e-30 0.0
1.31949e-27 2.2599999999999998e-30 9.999999999999999e-33
1.49551e-27 1.87e-30 0.0
1.5801099999999999e-27 2.6099999999999998e-30 9.999999999999999e-33
1.74795e-27 2.5699999999999997e-30 0.0
1.91442e-27 3.51e-30 0.0
2.08771e-27 2.3e-30 0.0
2.39609e-27 3.6499999999999996e-30 0.0
2.35379e-27 3.1e-30 0.0
2.7508599999999997e-27 3.6499999999999996e-30 0.0
4.19452e-27 2.0099999999999997e-30 0.0
3.40856e-27 3.3499999999999996e-30 0.0
3.1834199999999998e-27 5.18e-30 0.0
1.1639999999999999e-29 1.9999999999999998e-32 4.999999999999999e-32
8.852e-29 1.1e-31 1.1e-31
1.9605999999999998e-28 1.5999999999999999e-31 1.1e-31
2.6266999999999996e-28 3.3e-31 0.0
4.594999999999999e-28 6.5e-31 7.999999999999999e-32
7.2081e-28 8.999999999999999e-31 1.5e-31
7.8868999999999995e-28 1.77e-30 0.0
9.5243e-28 1.2799999999999999e-30 0.0
1.5241599999999999e-27 1.2299999999999999e-30 1.9999999999999998e-32
1.3726999999999999e-27 2.9799999999999997e-30 0.0
1.53508e-27 1.97e-30 0.0
1.61559e-27 3.0299999999999997e-30 0.0
2.62124e-27 2.38e-30 0.0
2.18732e-27 4.1199999999999995e-30 0.0
2.17777e-27 3.94e-30 0.0
2.7658699999999997e-27 3.09e-30 0.0
2.5734799999999998e-27 4.4e-30 0.0
3.3335099999999996e-27 2.2099999999999998e-30 0.0
2.6034999999999998e-27 2.9299999999999997e-30 0.0
3.0769799999999998e-27 2.1099999999999998e-30 0.0

VECTORS centroid-point-cart-variance float
0.0 2.7457247136953216 2.636386739979367
0.0 27.770524498694964 26.513211129976426
0.0 81.34603221549574 78.07983204545563
0.0 158.13543896947667 152.36547465146836
0.0 254.58290799950163 245.91964342304
0.0 367.05986768383985 355.1694927830649
0.0 491.909470480565 476.55939239786176
0.0 625.7697970640397 606.7778379122141
0.0 765.4063710339004 742.6724023490631
0.0 907.8131552804647 881.3077278718945
0.0 1050.1985229286038 1019.9571281651732
0.0 1189.9837644241013 1156.1018834596946
0.0 1324.8030433709557 1287.4312387389093
0.0 1452.5034943968442 1411.8424173941198
0.0 1571.1437050552638 1527.4406585646464
0.0 1678.9857417585463 1632.5401479726481
0.0 1774.4435804746936 1725.6725939981532
0.0 1856.2232328454922 1805.5786505259266
0.0 1923.1881355840128 1871.2250089154777
0.0 1974.572150351485 1921.7490743326434
0.0 2009.7988535465056 1956.4631031480644
1.1e-31 2.466540955283309 2.588383718669806
4.999999999999999e-32 26.929933253786484 26.930828719876743
1.9999999999999997e-31 79.80687880487365 79.08570311819295
1.1e-31 156.16636382536225 153.97176783552365
1.1e-31 252.28353503339426 247.95794849413053
4.999999999999999e-32 364.50464545275094 357.555850761508
4.999999999999999e-32 489.17434556398644 479.18971577698596
7.999999999999999e-32 622.8943118238936 609.5898375349444
0.0 762.4331287548829 745.6087273068974
9.999999999999999e-33 904.7799101999095 884.3205007542584
0.0 1047.1370585172306 1023.007236363857
9.999999999999999e-33 1186.920110146036 1159.1590008623295
0.0 1321.7575772092146 1290.4732202850014
0.0 1449.4910273132684 1414.8533158799464
0.0 1568.175510174912 1530.4081013025107
0.0 1676.0806485990963 1635.4443579330648
0.0 1771.6995405870332 1728.4163675025434
0.0 1853.7387248178975 1808.0638032415475
0.0 1921.1372020243994 1873.2764891313661
0.0 1973.0084299023304 1923.3128946041231
0.0 2008.6467746661733 1957.614985029768
4.999999999999999e-32 9.627492925759322 9.564878455637867
1.1e-31 48.42877039484344 47.6336459256697
1.1e-31 113.307654187983 111.11802884100128
0.0 200.06443037395894 195.84576778316796
7.999999999999999e-32 304.7964229053432 298.02650428139094
1.5e-31 423.77251617094174 414.04210159240034
0.0 553.4565939470339 540.4521193408856
0.0 690.5233071370909 674.027898770087
1.9999999999999998e-32 831.8580493981935 811.7373169838149
0.0 974.5595451793782 950.7578494906297
0.0 1115.9394543240624 1088.4746288092379
0.0 1253.5223424160245 1222.480429914302
0.0 1385.0458390239737 1350.5751143565897
0.0 1508.4609239557099 1470.7651642536096
0.0 1621.9326745739068 1581.2622245345656
0.0 1723.845465653171 1680.471860157643
0.0 1812.7981237966549 1767.009683753066
0.0 1887.604479573147 1839.7009425950728
0.0 1947.282627543252 1897.5996895102744
0.0 1991.0408994688007 1939.997496653354

CELL_DATA 40

SCALARS Gamma-cyl-variance float
LOOKUP_TABLE default
0.0
1.9574040241821542
0.28514804086961965
2.9620648924985256
3.0296480774263457
2.022675943743944
1.6534246080115704
1.2798851146463446
0.8827619890423197
0.8339393683111095
0.5136952667193915
0.4646313080578306
0.2811643082651701
0.13429091513519834
0.0374370912050089
0.008035421960623162
0.0006038430624768858
3.791828578188963e-5
2.9131140992338003e-6
8.127199579381552e-6
0.0
1.9574040241821542
0.28514804086961965
2.9620648924985256
3.0296480774263457
2.022675943743944
1.6534246080115704
1.2798851146463446
0.8827619890423197
0.8339393683111095
0.5136952667193915
0.4646313080578306
0.2811643082651701
0.13429091513519834
0.0374370912050089
0.008035421960623162
0.0006038430624768858
3.791828578188963e-5
2.9131140992338003e-6
8.127199579381552e-6

SCALARS Gamma-cart-variance float
LOOKUP_TABLE default
0.0
1.9574040241821542
0.28514804086961965
2.9620648924985256
3.0296480774263457
2.022675943743944
1.6534246080115704
1.2798851146463446
0.8827619890423197
0.8339393683111095
0.5136952667193915
0.4646313080578306
0.2811643082651701
0.13429091513519834
0.0374370912050089
0.008035421960623162
0.0006038430624768858
3.791828578188963e-5
2.9131140992338003e-6
8.127199579381552e-6
0.0
1.9574040241821542
0.28514804086961965
2.9620648924985256
3.0296480774263457
2.022675943743944
1.6534246080115704
1.2798851146463446
0.8827619890423197
0.8339393683111095
0.5136952667193915
0.4646313080578306
0.2811643082651701
0.13429091513519834
0.0374370912050089
0.008035421960623162
0.0006038430624768858
3.791828578188963e-5
2.9131140992338003e-6
8.127199579381552e-6

VECTORS centroid-cell-cart-variance float
0.0 0.09346265704108055 0.09093764337408916
0.0 0.4817461233344925 0.4689858369485136
0.0 1.1312090561436872 1.101493346809453
0.0 2.0000597805418683 1.947793770707327
0.0 3.0487026480658783 2.9692322316843267
0.0 4.239615756340473 4.129270250917811
0.0 5.5374266923175695 5.3934283309402975
0.0 6.9088830662195475 6.7293116057168465
0.0 8.322860764613889 8.106602470436645
0.0 9.75036590190743 9.497058454087568
0.0 11.164533785111754 10.874513115520761
0.0 12.540628075239692 12.214876827432267
0.0 13.856043168633308 13.49613436636971
0.0 15.090305471914387 14.698343613881885
0.0 16.22507198661525 15.803636961639135
0.0 17.244127251668857 16.796224367464912
0.0 18.13338610699732 17.66239059202144
0.0 18.880898405865224 18.390490485580173
0.0 19.476843397515523 18.97095460346473
0.0 19.913527250301797 19.39629168583647
0.0 0.006017183078599576 0.0059780490347736675
0.0 0.03026798149677716 0.02977102870354355
0.0 0.07081728386748935 0.06944876802562579
0.0 0.12504026898372428 0.12240360486447996
0.0 0.19049776431583954 0.18626656517586937
0.0 0.2648578226068386 0.25877631349525027
0.0 0.34591037121689616 0.33778257458805344
0.0 0.4315770669606818 0.42126743673130423
0.0 0.5199112808738708 0.5073358231148843
0.0 0.6090997157371115 0.5942236559316437
0.0 0.6974621589525386 0.6802966430057737
0.0 0.7834514640100152 0.7640502686964386
0.0 0.8656536493899836 0.8441094464728685
0.0 0.9427880774723184 0.9192282276585064
0.0 1.0137079216086915 0.9882888903341034
0.0 1.0774034160332315 1.0502949125985268
0.0 1.132998827372909 1.1043810523456659
0.0 1.1797527997332173 1.1498130891219207
0.0 1.2170516422145325 1.1859998059439216
0.0 1.2444005621680012 1.2124984354083461

VECTORS D-cart-variance float
7.513973568987917 500.8208586109191 525.9743302664367
711.1498018194312 254963.73469318158 267064.7432756303
319.1552362732791 968132.6349281693 989944.1705665169
834.0380482391146 1.5093959584789744e6 1.5739167529570234e6
613.6477639789249 1.6013783831362845e6 1.6707319626011958e6
420.61123276777016 1.8523201382885657e6 1.9217969908948392e6
306.96444451278734 1.9341775947245292e6 2.002758504508712e6
242.32498672432695 2.095763443919035e6 2.1721865235672374e6
187.29731997296548 2.3059396018261714e6 2.3822709651941946e6
141.40160851470856 1.9585890982658544e6 2.0233729820476924e6
110.59326156291728 1.9504436526462147e6 2.0128179102091335e6
95.166921625137 1.9295836381550587e6 1.9898136475716394e6
80.19999358330385 1.9884055069736477e6 2.0456961331495927e6
64.70190399654211 1.8744742436097632e6 1.9266891533990176e6
44.61187076181282 1.6907498379514238e6 1.732721948175681e6
29.306521916936063 1.3744035720318877e6 1.406027910140171e6
16.521730130894476 950235.9020204608 970600.1524989166
7.147844195043843 480020.6783958245 489786.29676914564
2.1240620041713782 158914.09015675925 162051.26590290765
0.24513711111920633 23406.96033021574 23825.937475939394
7.513973568987917 500.8208586109191 525.9743302664367
711.1498018194312 254963.73469318158 267064.7432756303
319.1552362732791 968132.6349281693 989944.1705665169
834.0380482391146 1.5093959584789744e6 1.5739167529570234e6
613.6477639789249 1.6013783831362845e6 1.6707319626011958e6
420.61123276777016 1.8523201382885657e6 1.9217969908948392e6
306.96444451278734 1.9341775947245292e6 2.002758504508712e6
242.32498672432695 2.095763443919035e6 2.1721865235672374e6
187.29731997296548 2.3059396018261714e6 2.3822709651941946e6
141.40160851470856 1.9585890982658544e6 2.0233729820476924e6
110.59326156291728 1.9504436526462147e6 2.0128179102091335e6
95.166921625137 1.9295836381550587e6 1.9898136475716394e6
80.19999358330385 1.9884055069736477e6 2.0456961331495927e6
64.70190399654211 1.8744742436097632e6 1.9266891533990176e6
44.61187076181282 1.6907498379514238e6 1.732721948175681e6
29.306521916936063 1.3744035720318877e6 1.406027910140171e6
16.521730130894476 950235.9020204608 970600.1524989166
7.147844195043843 480020.6783958245 489786.29676914564
2.1240620041713782 158914.09015675925 162051.26590290765
0.24513711111920633 23406.96033021574 23825.937475939394

VECTORS S-cyl-mean float
1.9155835215627462e-16 3.342511655037034e-17 1.63016568479232e-18
-1.1241130230228476e-15 -1.7420974609283938e-16 7.68405371321684e-18
3.925644596753115e-15 6.196447163795311e-16 -3.631596069260878e-17
-7.514873985846542e-15 -1.197925389489631e-15 4.969374329835808e-17
1.0564243297423384e-14 1.6889583267491486e-15 -5.228387358873845e-17
-1.4243475556499676e-14 -2.2854616157276567e-15 5.715325382411528e-17
-1.883851191972545e-14 -3.0071710252715825e-15 6.721456760630917e-17
-1.365321838550156e-14 -2.1408768119801174e-15 4.9058063015744336e-17
1.139596659816935e-14 1.774510336333344e-15 -3.893028475081504e-17
-2.246217310128992e-15 -3.6065952176439807e-16 5.88308591365968e-18
1.001912485064711e-14 1.555606995790803e-15 -3.0293362098198215e-17
-2.2709284832057523e-15 -3.365927525253278e-16 8.171708168108829e-18
6.820558927349833e-15 1.0396262358710896e-15 -2.1133984205323157e-17
2.4445496925393834e-15 4.047428822886158e-16 -4.39445387007244e-18
-1.2055013006013526e-14 -1.8501618011769104e-15 3.51766024982439e-17
2.2463034320545243e-15 3.492411638957134e-16 -5.9962784722222e-18
-2.5661382676636652e-15 -4.046061639756089e-16 6.28947356417576e-18
3.789202793982047e-15 5.824294933180078e-16 -1.0425727960087119e-17
6.076447364319737e-15 9.462652578299509e-16 -1.474095490794859e-17
2.732077795148536e-16 4.25376648135504e-17 -5.605626282795e-19
1.943068814668317e-16 -7.528380427942279e-18 1.63016568479232e-18
-1.1363218751545234e-15 -5.245684138989537e-17 7.68405371321684e-18
3.9611096573803005e-15 3.2288598105603305e-16 -3.631596069260878e-17
-7.569473526464046e-15 -7.819378454180226e-16 4.969374329835808e-17
1.0626334756053914e-14 1.2396879966067458e-15 -5.228387358873845e-17
-1.4312676228674957e-14 -1.8020071860819168e-15 5.715325382411528e-17
-1.8914776717243392e-14 -2.4827063180525457e-15 6.721456760630917e-17
-1.3699491414543357e-14 -1.821444698343798e-15 4.9058063015744336e-17
1.1429147275638792e-14 1.546458596957512e-15 -3.893028475081504e-17
-2.2521334775541556e-15 -3.216555521707542e-16 5.88308591365968e-18
1.0041660818906471e-14 1.4027914657020002e-15 -3.0293362098198215e-17
-2.275275925175909e-15 -3.058272734774676e-16 8.171708168108829e-18
6.8326867326401676e-15 9.566811409064225e-16 -2.1133984205323157e-17
2.4488596147624063e-15 3.7779172468890413e-16 -4.39445387007244e-18
-1.2073016537007378e-14 -1.7287882932377699e-15 3.51766024982439e-17
2.2493906016671936e-15 3.2877107620723617e-16 -5.9962784722222e-18
-2.5692995334481692e-15 -3.8402039544529823e-16 6.28947356417576e-18
3.793009578938169e-15 5.570998677897092e-16 -1.0425727960087119e-17
6.081250817627888e-15 9.148874262030395e-16 -1.474095490794859e-17
2.7336711173674233e-16 4.150139679502735e-17 -5.605626282795e-19

VECTORS L-cart-variance float
0.08328227086464265 4751.066141055878 4893.247675600614
76.5150003892812 91027.375766422 95004.46650402693
2.3824933658009213 171283.0366296283 176241.7771436702
635.3020537176228 294468.9533041447 306311.28551148047
1778.2154958773515 347591.3651403853 362242.1335831728
1907.3718716771432 420463.2919408281 436230.5251633724
2353.880899631316 458966.9415801151 475479.21544882766
2400.944924434526 507923.63949379855 526837.0572716887
2012.625522676433 565744.8605762918 585097.5314802986
2454.509207494257 486857.7032140111 503412.9028601231
1656.4490771143323 486909.3790264884 502617.298424959
1745.7121744289127 484083.0176687857 499816.6499788599
1096.8701328196053 500047.5747447782 515262.8632685194
480.2050219600095 474434.6036697163 488239.91219711344
91.01662258227282 427488.6292453118 439000.93437453284
4.6966235806450305 352639.2189786483 361585.0893696978
4.830657438428827 242847.16136667816 248728.59147562087
11.767908398586902 127580.00565148455 130527.5724339017
2.6712574248443812 44158.0621759461 45165.312083143246
0.48874919215029294 7615.440512082223 7784.23246786878
0.08328227086464265 4751.066141055878 4893.247675600614
76.5150003892812 91027.375766422 95004.46650402693
2.3824933658009213 171283.0366296283 176241.7771436702
635.3020537176228 294468.9533041447 306311.28551148047
1778.2154958773515 347591.3651403853 362242.1335831728
1907.3718716771432 420463.2919408281 436230.5251633724
2353.880899631316 458966.9415801151 475479.21544882766
2400.944924434526 507923.63949379855 526837.0572716887
2012.625522676433 565744.8605762918 585097.5314802986
2454.509207494257 486857.7032140111 503412.9028601231
1656.4490771143323 486909.3790264884 502617.298424959
1745.7121744289127 484083.0176687857 499816.6499788599
1096.8701328196053 500047.5747447782 515262.8632685194
480.2050219600095 474434.6036697163 488239.91219711344
91.01662258227282 427488.6292453118 439000.93437453284
4.6966235806450305 352639.2189786483 361585.0893696978
4.830657438428827 242847.16136667816 248728.59147562087
11.767908398586902 127580.00565148455 130527.5724339017
2.6712574248443812 44158.0621759461 45165.312083143246
0.48874919215029294 7615.440512082223 7784.23246786878

VECTORS centroid-cell-mean float
-0.043463854073062545 0.01012261847959045 -0.005685783706386452
-0.04920694186713547 0.02290667918688069 -0.013048507644943993
-0.04768612441769516 0.03505373567977378 -0.020083028026472088
-0.03949176935756759 0.046570867855426586 -0.02677708210938226
-0.0325203527340723 0.057474284556877184 -0.03310259535400127
-0.026059865066004467 0.06775972129096677 -0.039066954079148564
-0.020397336123535698 0.07742850115291662 -0.04466786661667756
-0.015728055260341375 0.08647987244074688 -0.0499066349526087
-0.011861351265889608 0.09491316132219466 -0.05478442619865872
-0.008825370772832299 0.10272797243494777 -0.05930192514243863
-0.006621898931261721 0.10992393759301798 -0.06345976950078673
-0.004962808773784465 0.11650059031448388 -0.0672587672440927
-0.003589635707354711 0.12245764278593654 -0.07069941687980177
-0.0024576536401716698 0.12779506576719177 -0.0737817690534012
-0.0015577101221786445 0.13251288128016125 -0.0765057856218185
-0.0008817456178149485 0.13661084281755376 -0.0788718935482085
-0.00043932306010800395 0.14008874363110752 -0.08088045093106505
-0.00020707453581434652 0.14294685996629497 -0.08253097929919266
-0.00010247039907993961 0.14518536771865512 -0.08382317399258206
-6.15518021967676e-5 0.146804125161412 -0.08475728048921011
-0.016298945277398467 0.002219853745211746 -0.001959768832589411
-0.018452603200175798 0.005370866299192321 -0.003878396646465015
-0.01788229665663569 0.008382958684295429 -0.0056797594457820575
-0.014809413509087831 0.011272104832768422 -0.007336189568291791
-0.012195132275277127 0.01401687966349627 -0.008884796343041552
-0.009772449399751687 0.016608797367026768 -0.010340277623145816
-0.007649001046325881 0.01904662271582545 -0.011704772885453367
-0.005898020722628016 0.02132841956506345 -0.012981635631178465
-0.004448006724708603 0.023454529379265985 -0.014170274426414579
-0.0033095140398121115 0.02542485232205149 -0.015270862192847118
-0.0024832120992231434 0.02723925030697985 -0.016283638103205888
-0.0018610532901691746 0.028897550146460747 -0.017208902127196807
-0.001346113390258017 0.03039964560230989 -0.01804683827475273
-0.000921620115064376 0.03174557687830091 -0.01879737691089469
-0.0005841412958169919 0.03293578725352056 -0.019459750253723335
-0.00033065460668060603 0.03397314395111846 -0.020028992127066114
-0.00016474614754050164 0.034860076041099766 -0.020500895258259027
-7.765295093037998e-5 0.035598860021440804 -0.020871516637144392
-3.842639965497736e-5 0.03618817184653207 -0.021143149577988643
-2.3081925823787848e-5 0.036620683958427304 -0.021328485783450472

SCALARS mu-cart-variance float
LOOKUP_TABLE default
0.0009382995450772282
0.042366629264135126
0.012660036171842972
7.863770144858292e-5
2.1224384543251427e-5
2.0591010826799303e-5
2.242498372988746e-5
1.1458392548631465e-5
1.1101389262260997e-5
6.37987382566616e-8
0.00017681376323929422
2.4363751542807252e-5
6.12354810263621e-6
5.274101137276032e-6
2.539500504946453e-5
5.715743673979369e-5
9.122241720674292e-5
8.577371606286583e-5
8.905152977949835e-5
9.777518576674533e-5
0.0009382995450772282
0.042366629264135126
0.012660036171842972
7.863770144858292e-5
2.1224384543251427e-5
2.0591010826799303e-5
2.242498372988746e-5
1.1458392548631465e-5
1.1101389262260997e-5
6.37987382566616e-8