# vtk DataFile Version 4.0
 
ASCII
DATASET UNSTRUCTURED_GRID
POINTS 62 float
0.0 -1.7708884057650145 1.499999999999964
0.0 -2.010578271649917 7.090909090908933
0.0 -2.31535550274835 12.416985645932739
0.0 -2.2889682715182627 17.478229665071385
0.0 -2.169971791073528 22.27464114832487
0.0 -2.0454510717877117 26.806220095693188
0.0 -1.9098587375772995 31.072966507176357
0.0 -1.7892418013164364 35.07488038277435
0.0 -1.6771396481154743 38.81196172248719
0.0 -1.5729781376365055 42.28421052631487
0.0 -1.4767580643088485 45.491626794257385
0.0 -1.3884788313688388 48.434210526314736
0.0 -1.3081203969146935 51.111961722486924
0.0 -1.2356827714201424 53.52488038277396
0.0 -1.1705601053066896 55.672966507175815
0.0 -1.1082076010610107 57.556220095692524
0.0 -1.0181276417267133 59.17464114832407
0.0 -0.9011396931127169 60.528229665070455
0.0 -0.7306970832819507 61.616985645931685
0.0 -0.5498041603690806 62.440909090907745
0.0 -0.4015855954409659 62.99999999999863
-0.8152938918039478 1.6758937300225156 1.4999999999999711
-0.9232602711185554 1.9024043051239898 7.090909090908941
-1.045017403566863 2.197088741938264 12.41698564593275
-0.8624275731409438 2.20824106393908 17.478229665071392
-0.7172432011617597 2.1089141376389464 22.27464114832488
-0.5835709082011334 2.0037171446215467 26.806220095693202
-0.458823694439046 1.8822014373426956 31.072966507176364
-0.35706975050238215 1.7713989382820823 35.07488038277437
-0.27205245991127286 1.6660891608048949 38.81196172248719
-0.20240159072431146 1.5664523798169976 42.28421052631487
-0.1506132401889805 1.4729052469477861 45.491626794257385
-0.11426271706148827 1.386121138757991 48.434210526314736
-0.08424963388989035 1.3067868265107674 51.111961722486924
-0.059335794404298196 1.2350474352020238 53.52488038277396
-0.038970351202568594 1.1702385516792866 55.672966507175815
-0.02333805368457717 1.1078087571429311 57.556220095692524
-0.011931771028020786 1.0179967175058686 59.17464114832407
-0.005641151376299379 0.9014975905639705 60.528229665070455
-0.0026418300562744777 0.7310713257906146 61.616985645931685
-0.0014569859069231085 0.5498949991173541 62.440909090907745
-0.001005086180947595 0.4013400650725067 62.99999999999863
-0.6519578110959388 0.8691784285030729 4.295454545454454
-0.7381041280070318 0.9965681708485618 9.753947368420844
-0.7152918662654275 1.076458205420678 14.947607655502068
-0.5923765403635137 1.0615656927677857 19.876435406698135
-0.4878052910110849 1.0153088729900304 24.54043062200904
-0.39089797599006726 0.9628057420659645 28.939593301434783
-0.30596004185303555 0.9077125734975746 33.073923444975364
-0.23592082890512064 0.8557603559786275 36.943421052630775
-0.17792026898834412 0.8059383545142124 40.54808612440103
-0.1323805615924845 0.758542084793625 43.887918660286125
-0.0993284839689258 0.7139802826799555 46.962918660286064
-0.07444213160676699 0.6727655834403428 49.77308612440083
-0.05384453561032071 0.6352124521004422 52.318421052630434
-0.036864804602575046 0.6012018854896374 54.59892344497488
-0.023365651832679663 0.5694217775123689 56.61459330143416
-0.013226184267224234 0.5313851476448344 58.3654306220083
-0.006589845901620062 0.47990194867126085 59.85143540669727
-0.0031061180372151964 0.40823374658363576 61.072607655501066
-0.0015370559861990949 0.32029971638410926 62.02894736841971
-0.0009232770329515139 0.237789429594942 62.72045454545318

CELLS 40 140
4 0 21 22 1
4 1 22 23 2
4 2 23 24 3
4 3 24 25 4
4 4 25 26 5
4 5 26 27 6
4 6 27 28 7
4 7 28 29 8
4 8 29 30 9
4 9 30 31 10
4 10 31 32 11
4 11 32 33 12
4 12 33 34 13
4 13 34 35 14
4 14 35 36 15
4 15 36 37 16
4 16 37 38 17
4 17 38 39 18
4 18 39 40 19
4 19 40 41 20
1 42
1 43
1 44
1 45
1 46
1 47
1 48
1 49
1 50
1 51
1 52
1 53
1 54
1 55
1 56
1 57
1 58
1 59
1 60
1 61

CELL_TYPES 40
7
7
7
7
7
7
7
7
7
7
7
7
7
7
7
7
7
7
7
7
7
7
7
7
7
7
7
7
7
7
7
7
7
7
7
7
7
7
7
7

POINT_DATA 62

VECTORS centroid-point-cyl-mean float
2.3207855880440325 1.050210969240013e-17 0.0
7.3704420981353636 2.700542492331462e-17 0.0
12.631009604754787 2.362974680790029e-17 0.0
17.627475371504573 3.600723323108616e-17 0.0
22.380089719675052 -7.201446646217232e-17 0.0
26.884145995471528 -1.800361661554308e-16 0.0
31.131604647907388 -6.00120553851436e-17 0.0
35.120487184683455 1.200241107702872e-16 0.0
38.84818104039236 -1.9803978277097387e-16 0.0
42.31345790709158 -1.8603737169394515e-16 0.0
45.51558988707614 1.6803375507840208e-16 0.0
48.45410841995289 -1.8603737169394515e-16 0.0
51.12869849794545 4.440892098500626e-16 0.0
53.539142054219205 -2.1604339938651696e-16 0.0
55.6852710388418 2.400482215405744e-16 0.0
57.5668880155152 2.880578658486893e-16 0.0
59.18339918362069 4.800964430811488e-17 0.0
60.53493734310821 1.9203857723245952e-16 0.0
61.62131805080519 -3.3606751015680416e-16 0.0
62.443329609444966 -1.4702953569360181e-16 0.0
63.001279915493086 1.3952802877045887e-16 0.0
2.2491375667861497 -3.37567811541433e-18 0.8152938918039475
7.341671054718378 2.400482215405744e-17 0.9232602711185551
12.609866433521523 2.402826436319226e-17 1.0450174035668625
17.617174598142867 4.800964430811488e-17 0.8624275731409441
22.374252102061075 -1.9203857723245952e-16 0.71724320116176
26.881002924266056 -6.601326092365796e-17 0.5835709082011332
31.129920170261354 1.200241107702872e-16 0.4588236944390458
35.11958268636579 -7.801567200068668e-17 0.35706975050238243
38.847705541506215 1.620325495398877e-16 0.2720524599112728
42.313215818370075 -6.00120553851436e-18 0.20240159072431135
45.5154650449108 -2.5805183815611744e-16 0.15061324018898056
48.45404091630237 1.620325495398877e-16 0.11426271706148837
51.128664396118594 -4.560916209270913e-16 0.08424963388989029
53.539127394434395 1.7403496061691643e-16 0.05933579440429822
55.68526428039089 -4.380880043115483e-16 0.038970351202568594
57.56688033883912 1.8603737169394515e-16 0.023338053684577188
59.183396931485795 3.720747433878903e-16 0.011931771028020786
60.534942671925656 3.7807594892640464e-16 0.005641151376299383
61.62132248965748 -2.370476187713172e-16 0.0026418300562744785
62.44333040933259 2.9705967415646083e-16 0.0014569859069231076
63.001278350900776 -2.4304882430983155e-16 0.0010050861809475953
4.382510797777972 3.338170580798612e-17 0.651957811095939
9.804725258010698 -9.00180830777154e-18 0.7381041280070315
14.98631832341896 1.0202049415474412e-16 0.7152918662654278
19.90476340469052 2.0404098830948824e-16 0.5923765403635137
24.561424779951484 -3.00060276925718e-17 0.48780529101108516
28.95560490387671 -2.400482215405744e-16 0.39089797599006765
33.08637716886187 1.6803375507840208e-16 0.30596004185303555
36.95333117404755 9.901989138548693e-17 0.23592082890512064
40.556094794532804 -5.401084984662924e-17 0.17792026898834398
43.89447334718013 -4.200843876960052e-17 0.13238056159248454
46.96834569086623 2.400482215405744e-17 0.09932848396892573
49.77763268655207 -1.4402893292434464e-16 0.07444213160676702
52.32227705575936 -1.8903797446320232e-16 0.053844535610320744
54.602233333970524 1.1102230246251565e-16 0.036864804602575026
56.61745681190138 4.2308499046526237e-16 0.02336565183267968
58.36784955664909 2.370476187713172e-16 0.013226184267224226
59.8533593553646 -1.4252863153971604e-16 0.006589845901620066
61.0739720391153 6.271259787747505e-16 0.003106118037215195
62.02977433090114 -3.8257685308029044e-16 0.0015370559861990955
62.72090530438082 3.3606751015680416e-16 0.0009232770329515135

VECTORS centroid-point-mean float
0.0 -0.04786184880446009 0.04054054054053798
0.0 -0.0543399532878392 0.19164619164618488
0.0 -0.06257717574996262 0.33559420664682665
0.0 -0.061864007338341805 0.472384585542465
0.0 -0.058647886245244876 0.6020173283331001
0.0 -0.05528246139968234 0.7244924350187305
0.0 -0.0516178037183254 0.8398099055993538
0.0 -0.048357886522084045 0.9479697400749767
0.0 -0.04532809859774022 1.048971938445595
0.0 -0.042512922638849295 1.1428165007112063
0.0 -0.03991238011648071 1.2295034268718132
0.0 -0.03752645490189234 1.3090327169274167
0.0 -0.035354605322045866 1.3814043708780148
0.0 -0.033396831660037644 1.446618388723612
0.0 -0.031636759602922296 1.5046747704642023
0.0 -0.029951556785462338 1.5555735160997886
0.0 -0.027516963289949046 1.5993146256303625
0.0 -0.024355126840917174 1.6358980990559482
0.0 -0.019748569818470996 1.6653239363765175
0.0 -0.014859571901907467 1.6875921375920917
0.0 -0.01085366474168311 1.7027027027026567
-0.8152938918039475 0.045294425135742354 0.04054054054054056
-0.9232602711185551 0.051416332570913714 0.19164619164618824
-1.0450174035668625 0.05938077680913307 0.33559420664683104
-0.8624275731409441 0.05968219091726048 0.4723845855424683
-0.71724320116176 0.056997679395632855 0.602017328333103
-0.5835709082011332 0.05415451742218579 0.7244924350187317
-0.4588236944390458 0.05087030911735268 0.8398099055993552
-0.35706975050238243 0.04787564698057365 0.947969740074979
-0.2720524599112728 0.045029436778481965 1.0489719384455918
-0.20240159072431135 0.042336550805838924 1.142816500711207
-0.15061324018898056 0.03980824991747691 1.2295034268718137
-0.11426271706148837 0.03746273347991306 1.3090327169274185
-0.08424963388989029 0.035318562878633865 1.3814043708780186
-0.05933579440429822 0.03337966041083262 1.4466183887236135
-0.038970351202568594 0.031628068964269514 1.5046747704642018
-0.023338053684577188 0.029940777220044366 1.555573516099792
-0.011931771028020786 0.02751342479741755 1.5993146256303714
-0.005641151376299383 0.024364799744934537 1.6358980990559484
-0.0026418300562744785 0.01975868448077922 1.6653239363765229
-0.0014569859069231076 0.01486202700313606 1.6875921375920888
-0.0010050861809475953 0.010847028785705592 1.702702702702652
-0.651957811095939 0.023491308878458683 0.11609336609336361
-0.7381041280070315 0.02693427488779336 0.2636201991465086
-0.7152918662654278 0.0290934650113597 0.40398939609464757
-0.5923765403635137 0.028690964669387375 0.5372009569377834
-0.48780529101108516 0.02744078035106649 0.6632548816759162
-0.39089797599006765 0.026021776812578827 0.782151170309045
-0.30596004185303555 0.024532772256671907 0.8938898228371678
-0.23592082890512064 0.023128658269670022 0.9984708392602858
-0.17792026898834398 0.021782117689550455 1.0958942195784014
-0.13238056159248454 0.020501137426827076 1.18615996379151
-0.09932848396892573 0.019296764396725213 1.2692680718996128
-0.07444213160676702 0.018182853606467375 1.345218543902716
-0.053844535610320744 0.017167904110789445 1.414011379800816
-0.036864804602575026 0.016248699607796256 1.4756465795939087
-0.02336565183267968 0.015389777770577966 1.5301241432819943
-0.013226184267224226 0.014361760747126334 1.5774440708650779
-0.006589845901620066 0.012970322937021592 1.6176063623431567
-0.003106118037215195 0.011033344502223699 1.6506110177162348
-0.0015370559861990955 0.00865674909142026 1.6764580369843063
-0.0009232770329515135 0.006426741340364134 1.6951474201473733

VECTORS centroid-point-cyl-variance float
1.525e-29 9.999999999999999e-33 0.0
1.2414999999999998e-28 4.999999999999999e-32 0.0
3.5187e-28 1.1e-31 0.0
6.9009999999999995e-28 4.1e-31 0.0
1.10116e-27 6.6e-31 0.0
1.70053e-27 8.8e-31 0.0
2.22962e-27 7.999999999999999e-31 0.0
2.7003799999999998e-27 1.01e-30 0.0
3.21753e-27 2.0499999999999998e-30 0.0
4.02532e-27 1.12e-30 0.0
4.6707399999999995e-27 6.6e-31 0.0
4.8467599999999995e-27 2.0599999999999998e-30 0.0
5.8141999999999994e-27 2.24e-30 0.0
6.587879999999999e-27 3.47e-30 0.0
6.66975e-27 3.27e-30 0.0
7.34519e-27 3.33e-30 0.0
7.508929999999999e-27 3.49e-30 0.0
7.98924e-27 2.18e-30 0.0
8.25396e-27 3.5499999999999996e-30 0.0
8.44226e-27 3.48e-30 0.0
8.49002e-27 3.14e-30 0.0
1.055e-29 0.0 1.1e-31
1.1449e-28 7.0e-32 4.999999999999999e-32
3.4181e-28 1.5e-31 1.9999999999999997e-31
6.345e-28 4.6e-31 1.1e-31
1.04965e-27 3.9999999999999995e-31 1.1e-31
1.43956e-27 8.1e-31 4.999999999999999e-32
2.0419999999999998e-27 6.0e-31 4.999999999999999e-32
2.63215e-27 1.04e-30 7.999999999999999e-32
3.5682099999999995e-27 1.98e-30 0.0
4.26821e-27 1.0299999999999999e-30 9.999999999999999e-33
4.73214e-27 1.9599999999999997e-30 0.0
5.13604e-27 3.15e-30 9.999999999999999e-33
5.5412999999999994e-27 3.3999999999999996e-30 0.0
6.14032e-27 1.4e-30 0.0
6.4951e-27 2.1099999999999998e-30 0.0
7.222379999999999e-27 2.0099999999999997e-30 0.0
7.66858e-27 2.7599999999999998e-30 0.0
8.913019999999999e-27 3.9499999999999996e-30 0.0
7.75455e-27 3.1e-30 0.0
8.04928e-27 4.18e-30 0.0
8.900739999999999e-27 3.61e-30 0.0
3.642e-29 3.0e-32 4.999999999999999e-32
2.0928e-28 9.999999999999999e-32 1.1e-31
4.705e-28 1.5e-31 1.1e-31
8.5828e-28 8.6e-31 0.0
1.18338e-27 6.299999999999999e-31 7.999999999999999e-32
1.8014999999999997e-27 8.4e-31 1.5e-31
2.5789399999999998e-27 8.9e-31 0.0
3.0032999999999998e-27 1.82e-30 0.0
3.48225e-27 8.1e-31 1.9999999999999998e-32
4.36099e-27 1.24e-30 0.0
4.7198599999999995e-27 1.73e-30 0.0
5.4607899999999996e-27 2.58e-30 0.0
5.8892499999999996e-27 2.8599999999999998e-30 0.0
6.38457e-27 2.7199999999999997e-30 0.0
6.91537e-27 3.83e-30 0.0
7.283789999999999e-27 2.4199999999999997e-30 0.0
7.830959999999999e-27 3.8199999999999995e-30 0.0
7.77228e-27 3.1e-30 0.0
8.55006e-27 1.22e-30 0.0
8.476369999999999e-27 4.58e-30 0.0

VECTORS centroid-point-cart-variance float
0.0 2.702705707423205 2.6794057462513736
0.0 26.533910033850187 27.749825594820027
0.0 77.75619589549265 81.66966836545532
0.0 151.3026960678941 159.1982175530443
0.0 243.78954050832417 256.7130109142067
0.0 351.7216837519474 370.5076767149421
0.0 471.5873384013253 496.8815244770808
0.0 600.1402709157529 632.4073640604748
0.0 734.2702118512367 773.8085615316946
0.0 871.0844418734431 918.0364412788774
0.0 1007.8962833320128 1062.2593677617203
0.0 1142.2239723968328 1203.861675486913
0.0 1271.7906354751633 1340.4436466346465
0.0 1394.5243464393404 1469.8215653515626
0.0 1508.557366764282 1590.0269968555624
0.0 1612.222531237292 1699.3033584938316
0.0 1704.0311856436288 1796.0849888291439
0.0 1782.7406921564248 1879.0611912149172
0.0 1847.294123722647 1947.119020776763
0.0 1896.9011768542828 1999.4200478297635
0.0 1930.9475618956963 2035.31439479879
1.1e-31 2.534807228355561 2.520117445597463
4.999999999999999e-32 26.316857763517067 27.543904210145065
1.9999999999999997e-31 77.4825378536834 81.41004406937995
1.1e-31 151.11653164102168 159.02160001985771
1.1e-31 243.65557145693413 256.5859120705803
4.999999999999999e-32 351.63502972756334 370.42546648668065
4.999999999999999e-32 471.5335586649998 496.830502675952
7.999999999999999e-32 600.1076927699738 632.3764565888386
0.0 734.2512674364192 773.7905886253294
9.999999999999999e-33 871.0739364033192 918.0264745508116
0.0 1007.8904558018169 1062.2538390792272
9.999999999999999e-33 1142.2206179475993 1203.8584930607176
0.0 1271.7888473171329 1340.441950177028
0.0 1394.5235415010218 1469.820801692132
0.0 1508.5569807964268 1590.026630680931
0.0 1612.222078016735 1699.3029285153552
0.0 1704.0310489469502 1796.0848591425522
0.0 1782.741022983175 1879.061505076193
0.0 1847.2944042436307 1947.1192869120546
0.0 1896.9012280788975 1999.420096427474
0.0 1930.947460804294 2035.3142988915629
4.999999999999999e-32 9.363520785653241 9.828850595743562
1.1e-31 46.79334538403792 49.26907093647321
1.1e-31 109.2903434703798 115.13533955859968
0.0 192.77538853829745 203.13480961882115
7.999999999999999e-32 293.5066908438289 309.3162363428927
1.5e-31 407.90780911541043 429.9068086479141
0.0 532.5824877917173 561.3262254961792
0.0 664.3402394772183 700.2109664299307
1.9999999999999998e-32 800.1885089536091 843.4068574283648
0.0 937.3407043997938 987.9766902701735
0.0 1073.2149982485298 1131.199084884723
0.0 1205.4343045006353 1270.5684678296377
0.0 1331.8260746753083 1403.7948787051962
0.0 1450.422205567319 1528.8038826419368
0.0 1559.4586746794987 1643.736224428906
0.0 1657.3724392477297 1746.9448865630125
0.0 1742.807225718934 1837.0005818307104
0.0 1814.6136011359945 1912.6918210321467
0.0 1871.853299538362 1973.0290175150835
0.0 1913.7964955465302 2017.2419005755405

CELL_DATA 40

SCALARS Gamma-cyl-variance float
LOOKUP_TABLE default
0.0
0.04353792048648305
0.01640855641267804
0.1290932143453455
0.09869513967469919
0.06134770307030323
0.03945367543103841
0.03036624637718628
0.02600888201104007
0.015694349509242433
0.00849443095103572
0.008063472060710506
0.00524181019116423
0.0032323231642181712
0.0009025850584520824
0.00021089761427001513
2.1006723876054017e-5
1.1580478801461723e-5
2.846243698647926e-6
1.0601659779128243e-6
0.0
0.04353792048648305
0.01640855641267804
0.1290932143453455
0.09869513967469919
0.06134770307030323
0.03945367543103841
0.03036624637718628
0.02600888201104007
0.015694349509242433
0.00849443095103572
0.008063472060710506
0.00524181019116423
0.0032323231642181712
0.0009025850584520824
0.00021089761427001513
2.1006723876054017e-5
1.1580478801461723e-5
2.846243698647926e-6
1.0601659779128243e-6

SCALARS Gamma-cart-variance float
LOOKUP_TABLE default
0.0
0.04353792048648305
0.01640855641267804
0.1290932143453455
0.09869513967469919
0.06134770307030323
0.03945367543103841
0.03036624637718628
0.02600888201104007
0.015694349509242433
0.00849443095103572
0.008063472060710506
0.00524181019116423
0.0032323231642181712
0.0009025850584520824
0.00021089761427001513
2.1006723876054017e-5
1.1580478801461723e-5
2.846243698647926e-6
1.0601659779128243e-6
0.0
0.04353792048648305
0.01640855641267804
0.1290932143453455
0.09869513967469919
0.06134770307030323
0.03945367543103841
0.03036624637718628
0.02600888201104007
0.015694349509242433
0.00849443095103572
0.008063472060710506
0.00524181019116423
0.0032323231642181712
0.0009025850584520824
0.00021089761427001513
2.1006723876054017e-5
1.1580478801461723e-5
2.846243698647926e-6
1.0601659779128243e-6

VECTORS centroid-cell-cart-variance float
0.0 0.08977450887556811 0.09462579153959766
0.0 0.4628571918145517 0.4878747684684343
0.0 1.0869741890968063 1.1457282138562863
0.0 1.9219816645598051 2.025871886689307
0.0 2.9297842598518633 3.088150619898215
0.0 4.074326161619495 4.294559845638615
0.0 5.321600505874649 5.609254517382985
0.0 6.639647419794811 6.998547252141291
0.0 7.998554474772769 8.430908760277417
0.0 9.370456596136124 9.876967759858474
0.0 10.729535991731106 11.309510908900945
0.0 12.052022123892934 12.703482778778511
0.0 13.316191694735954 14.035985840266482
0.0 14.502368633889244 15.286280451906391
0.0 15.592924093237315 16.4357848550164
0.0 16.572276446161492 17.468075172971552
0.0 17.426891287680665 18.368885411337338
0.0 18.145281434001582 19.126107457443023
0.0 18.718006921533025 19.72979107944641
0.0 19.1376750083831 20.172143927754334
0.0 0.005852200491033274 0.006143031622339726
0.0 0.029245840865023694 0.030793169335295766
0.0 0.06830646466898738 0.0719595872241248
0.0 0.1204846178364359 0.12695925601176325
0.0 0.183441681777393 0.1933226477143079
0.0 0.2549423806971314 0.26869175540494633
0.0 0.33286405486982323 0.35082889093511194
0.0 0.4152126496732614 0.43763185401870663
0.0 0.5001178180960056 0.5271292858927279
0.0 0.5858379402498713 0.6174854314188586
0.0 0.6707593739053311 0.7069994280529521
0.0 0.7533964403128973 0.7941052923935236
0.0 0.832391296672068 0.8773717991907477
0.0 0.9065138784795744 0.9555024266512108
0.0 0.9746616716746868 1.0273351402680662
0.0 1.0358577745298305 1.0918405541018827
0.0 1.0892545160743337 1.148125363644194
0.0 1.1341335007099962 1.1954323881450921
0.0 1.1699083122114764 1.2331431359469271
0.0 1.1961228097165812 1.2607761878597128

VECTORS D-cart-variance float
0.14690955742655895 684.4130323276913 649.2890935133674
13.636161777301462 269329.6635444795 255375.1142460339
9.952310781522588 1.0600265869499114e6 1.0066000092273622e6
22.151993822843075 1.1952323710941602e6 1.1337909207873147e6
12.43620367235956 1.2297619414780021e6 1.1664301287770732e6
7.979233546623258 1.489852622305148e6 1.4139301914811803e6
4.5805837622655625 1.5694730977728448e6 1.4898631439082883e6
3.865819447044607 1.7339743084450928e6 1.6458552177571529e6
3.382787559866831 1.9297254503999732e6 1.832422424488704e6
1.9718454671409338 1.6247335926142263e6 1.542956657006315e6
1.9208332282036216 1.6420838448882257e6 1.557908840294823e6
1.2512829766944982 1.620918006491163e6 1.5387005094592075e6
1.0174179786161937 1.7036694461374073e6 1.6187416425943135e6
1.0604483893965573 1.6274724306944306e6 1.5457856915061122e6
0.7878035084235423 1.5154850436045108e6 1.4395449492920153e6
0.6410717471086231 1.2562694401534728e6 1.193953426516418e6
0.4094421230078244 884292.5173888167 840501.7191501296
0.16310946065185408 452111.83390265447 429776.32267347845
0.050038637665269774 150617.65114497146 143149.66280335686
0.005950755662038262 22597.37523059803 21478.765402121582
0.14690955742655895 684.4130323276913 649.2890935133674
13.636161777301462 269329.6635444795 255375.1142460339
9.952310781522588 1.0600265869499114e6 1.0066000092273622e6
22.151993822843075 1.1952323710941602e6 1.1337909207873147e6
12.43620367235956 1.2297619414780021e6 1.1664301287770732e6
7.979233546623258 1.489852622305148e6 1.4139301914811803e6
4.5805837622655625 1.5694730977728448e6 1.4898631439082883e6
3.865819447044607 1.7339743084450928e6 1.6458552177571529e6
3.382787559866831 1.9297254503999732e6 1.832422424488704e6
1.9718454671409338 1.6247335926142263e6 1.542956657006315e6
1.9208332282036216 1.6420838448882257e6 1.557908840294823e6
1.2512829766944982 1.620918006491163e6 1.5387005094592075e6
1.0174179786161937 1.7036694461374073e6 1.6187416425943135e6
1.0604483893965573 1.6274724306944306e6 1.5457856915061122e6
0.7878035084235423 1.5154850436045108e6 1.4395449492920153e6
0.6410717471086231 1.2562694401534728e6 1.193953426516418e6
0.4094421230078244 884292.5173888167 840501.7191501296
0.16310946065185408 452111.83390265447 429776.32267347845
0.050038637665269774 150617.65114497146 143149.66280335686
0.005950755662038262 22597.37523059803 21478.765402121582

VECTORS S-cyl-mean float
8.938793663179094e-16 1.65295798549097e-16 1.9178840625087597e-18
-2.367102656912624e-17 -2.96723532234782e-18 3.3258483560057997e-19
5.270073890489775e-15 8.721933714988825e-16 -3.08708560153642e-17
-5.291703965176098e-15 -8.55048783823703e-16 2.7811412119270497e-17
2.1246286880083126e-15 3.42291119787436e-16 -9.007375146159149e-18
1.0850606069892343e-14 1.7163799368889163e-15 -4.44820117381324e-17
-8.324932855284383e-15 -1.3071559041879388e-15 3.105727427924848e-17
-8.28031562557354e-15 -1.2881454371309806e-15 2.920788152885503e-17
1.0808913094247955e-14 1.6724386715438225e-15 -3.606447165116163e-17
1.0369125026922435e-15 1.5916790441155395e-16 -3.3065173236511e-18
-2.8503070158011475e-15 -4.3574852285141165e-16 8.77866580192576e-18
-9.017898888866895e-15 -1.3701129074344878e-15 2.7567234937905438e-17
4.538701334641035e-15 6.856845969957941e-16 -1.3948840102915308e-17
-1.428577437286679e-15 -2.1438392451557036e-16 4.4659070122342596e-18
-3.2823946248030246e-15 -4.943558931848025e-16 1.0101452435851049e-17
3.938909628962164e-15 5.931151162406179e-16 -1.2026309077153169e-17
1.3127854811091359e-15 1.9695001023925767e-16 -4.15028651232476e-18
8.255993064084763e-15 1.2488825326581276e-15 -2.4171144927706827e-17
-5.588594872983896e-16 -8.482909434548704e-17 1.54652841177494e-18
-1.2312057104380311e-15 -1.8701578601640566e-16 2.9082231785742798e-18
9.086617733986054e-16 -2.6015459077105818e-17 1.9178840625087597e-18
-2.385279743663673e-17 -4.0747851627541997e-19 3.3258483560057997e-19
5.320716044462222e-15 4.736885714379451e-16 -3.08708560153642e-17
-5.3307855028110956e-15 -5.621078195487668e-16 2.7811412119270497e-17
2.137227098161426e-15 2.5193372834489463e-16 -9.007375146159149e-18
1.0902487601060604e-14 1.3481009904525563e-15 -4.44820117381324e-17
-8.358031042039724e-15 -1.0753979278142458e-15 3.105727427924848e-17
-8.3081398620919e-15 -1.0944211064477287e-15 2.920788152885503e-17
1.084017151935108e-14 1.456136951021362e-15 -3.606447165116163e-17
1.0395165963888086e-15 1.411637554986509e-16 -3.3065173236511e-18
-2.856614590551951e-15 -3.922753376623758e-16 8.77866580192576e-18
-9.035616006474965e-15 -1.2479395548177716e-15 2.7567234937905438e-17
4.546697250500721e-15 6.304897175361212e-16 -1.3948840102915308e-17
-1.4308521997084216e-15 -1.9863520333727895e-16 4.4659070122342596e-18
-3.2872019923863676e-15 -4.613082302684578e-16 1.0101452435851049e-17
3.94414741661726e-15 5.572214660576041e-16 -1.2026309077153169e-17
1.3143222433640822e-15 1.8641906163961118e-16 -4.15028651232476e-18
8.264152893004075e-15 1.1936942722685379e-15 -2.4171144927706827e-17
-5.592899104570262e-16 -8.194325995385855e-17 1.54652841177494e-18
-1.2319059945269537e-15 -1.8234589735748778e-16 2.9082231785742798e-18

VECTORS L-cart-variance float
0.003827622340937563 6730.26148462261 6395.817261376178
2.262197078634423 100382.64683662933 95217.3311838115
0.3476725764549124 187037.4217736246 177550.91147657332
44.4144344663801 246208.37712238714 233521.8009146763
74.42191948505273 276222.73079850397 261899.09054303245
67.6968507497612 346304.7281154095 328526.38069910696
62.1767482120443 378589.6095377727 359216.06779417326
60.20737127996007 426521.945968924 404637.1030290919
61.631863987765975 479496.9705125378 455099.5028642324
44.096203511536515 409705.05707118905 388907.69345645787
25.85007199975377 415695.4053893641 394650.26545980445
29.597370452763496 413094.9172293345 391840.4409637125
21.18731743913735 432585.0814216682 410766.5255418681
12.470662368487467 418148.7255494234 396944.0017267769
2.6831700548404123 385405.5336398793 365851.83288074646
0.5963665364604758 323159.4385987146 306921.83356925397
0.9410281676258664 225739.02446090485 214413.94410108944
1.0240924237923787 119841.22303153446 113843.03027676247
0.2881967335474968 41576.9225727056 39488.69072691539
0.05521840768223106 7194.34956090846 6833.665996690489
0.003827622340937563 6730.26148462261 6395.817261376178
2.262197078634423 100382.64683662933 95217.3311838115
0.3476725764549124 187037.4217736246 177550.91147657332
44.4144344663801 246208.37712238714 233521.8009146763
74.42191948505273 276222.73079850397 261899.09054303245
67.6968507497612 346304.7281154095 328526.38069910696
62.1767482120443 378589.6095377727 359216.06779417326
60.20737127996007 426521.945968924 404637.1030290919
61.631863987765975 479496.9705125378 455099.5028642324
44.096203511536515 409705.05707118905 388907.69345645787
25.85007199975377 415695.4053893641 394650.26545980445
29.597370452763496 413094.9172293345 391840.4409637125
21.18731743913735 432585.0814216682 410766.5255418681
12.470662368487467 418148.7255494234 396944.0017267769
2.6831700548404123 385405.5336398793 365851.83288074646
0.5963665364604758 323159.4385987146 306921.83356925397
0.9410281676258664 225739.02446090485 214413.94410108944
1.0240924237923787 119841.22303153446 113843.03027676247
0.2881967335474968 41576.9225727056 39488.69072691539
0.05521840768223106 7194.34956090846 6833.665996690489

VECTORS centroid-cell-mean float
-0.043463854073062545 -0.00013727610964110707 0.011609336609336275
-0.04920694186713547 -0.00015300049144383637 0.0263620199146508
-0.04768612441769516 -0.00013445538404770324 0.04039893960946483
-0.03949176935756759 -9.580058176723013e-5 0.05372009569377844
-0.0325203527340723 -6.945377067791138e-5 0.06632548816759146
-0.026059865066004467 -4.68859644616623e-5 0.07821511703090439
-0.020397336123535698 -3.074335356219518e-5 0.08938898228371668
-0.015728055260341375 -1.9522534018926424e-5 0.09984708392602851
-0.011861351265889608 -1.187584130639355e-5 0.10958942195783981
-0.008825370772832299 -7.012550799993087e-6 0.11861599637915096
-0.006621898931261721 -4.1962905242134e-6 0.12692680718996124
-0.004962808773784465 -2.494096634709576e-6 0.13452185439027162
-0.003589635707354711 -1.330342315697097e-6 0.1414011379800816
-0.0024576536401716698 -6.465471959326517e-7 0.14756465795939072
-0.0015577101221786445 -4.867551013806646e-7 0.15301241432819973
-0.0008817456178149485 -3.579514483097067e-7 0.15774440708650816
-0.00043932306010800395 1.5336028711406553e-7 0.16176063623431594
-0.00020707453581434652 4.946891588537651e-7 0.16506110177162325
-0.00010247039907993961 3.1424408839039817e-7 0.16764580369843032
-6.15518021967676e-5 -1.0452136872313918e-7 0.16951474201473707
-0.016298945277398467 0.0005872827219614654 0.00290233415233409
-0.018452603200175798 0.000673356872194817 0.006590504978662715
-0.01788229665663569 0.0007273366252840116 0.010099734902366207
-0.014809413509087831 0.0007172741167346737 0.013430023923444636
-0.012195132275277127 0.0006860195087766049 0.0165813720418979
-0.009772449399751687 0.0006505444203144004 0.019553779257726122
-0.007649001046325881 0.0006133193064168428 0.022347245570929188
-0.005898020722628016 0.0005782164567418696 0.024961770981507144
-0.004448006724708603 0.0005445529422387873 0.027397355489459978
-0.0033095140398121115 0.0005125284356706331 0.0296539990947877
-0.0024832120992231434 0.00048241910991815817 0.0317317017974904
-0.0018610532901691746 0.0004545713401617306 0.03363046359756795
-0.001346113390258017 0.00042919760276977016 0.03535028449502027
-0.000921620115064376 0.0004062174901948068 0.03689116448984763
-0.0005841412958169919 0.0003847444442641764 0.03825310358204981
-0.00033065460668060603 0.00035904401867810495 0.039436101771627
-0.00016474614754050164 0.00032425807342565446 0.04044015905857902
-7.765295093037998e-5 0.0002758336125555564 0.04126527544290581
-3.842639965497736e-5 0.0002164187272855956 0.04191145092460764
-2.3081925823787848e-5 0.0001606685335089797 0.04237868550368429

SCALARS mu-cart-variance float
LOOKUP_TABLE default
1.608128540279157e-5
0.0006898259041497702
4.7491359060604454e-5
2.0520085977014784e-8
1.7347100612239552e-7
1.5702841319469948e-8
2.4887088852208466e-7
7.03207521313024e-8
3.584713792218078e-8
4.023197503792328e-10
0.00047422953688063284
7.54579382881062e-5
9.594751486794518e-9
2.401598452159572e-7
9.923273638308283e-8
4.927969108994032e-7
6.996970242715204e-7
9.083325247192182e-7
1.033344279401098e-6
1.4272411491983494e-6
1.608128540279157e-5
0.0006898259041497702
4.7491359060604454e-5
2.0520085977014784e-8
1.7347100612239552e-7
1.5702841319469948e-8
2.4887088852208466e-7
7.03207521313024e-8
3.584713792218078e-8