# vtk DataFile Version 4.0
 
ASCII
DATASET UNSTRUCTURED_GRID
POINTS 62 float
0.0 2.184482308559123 0.7836343466598349
0.0 7.146196544478078 -1.804242685908643
0.0 11.911102759178593 -4.203336138794228
0.0 16.281075038889647 -6.756810160944341
0.0 20.375390990168178 -9.258069877597165
0.0 24.237593118200962 -11.631697457480357
0.0 27.86490773494625 -13.882497069206584
0.0 31.2703583468411 -15.987911337934142
0.0 34.4507146464407 -17.953535320281528
0.0 37.40568956357611 -19.779866236366715
0.0 40.13528349546196 -21.466903398193725
0.0 42.63949614371642 -23.014647322575055
0.0 44.91831748738863 -24.423115366306785
0.0 46.97174753171542 -25.69230752031841
0.0 48.79948335190756 -26.822748465735767
0.0 50.399252549208384 -27.818374112660454
0.0 51.75580631513971 -28.705596172131596
0.0 52.86955438260596 -29.483704965941143
0.0 53.72722341563863 -30.17569058637251
0.0 54.35031558830506 -30.744310175467906
0.0 54.76039323613865 -31.15221667255357
-0.8152938918039478 0.4610912406653724 -2.2013665442425348
-0.9232602711185554 5.18970525609114 -5.192985001960721
-1.045017403566863 9.654880636835305 -8.111227487853698
-0.8624275731409438 14.032470371160993 -10.651507691586913
-0.7172432011617597 18.235948025811958 -12.963693791757919
-0.5835709082011334 22.213009009996348 -15.13837999708728
-0.458823694439046 25.968877647486266 -17.166517513366546
-0.35706975050238215 29.490037977041855 -19.071516672176255
-0.27205245991127286 32.77910024198054 -20.84885639947054
-0.20240159072431146 35.83597430484937 -22.49869281789756
-0.1506132401889805 38.660451839833655 -24.021386758352882
-0.11426271706148827 41.25219615865302 -25.417521382044423
-0.08424963388989035 43.6108638756759 -26.687691450332654
-0.059335794404298196 45.736382428404355 -27.83202264515077
-0.038970351202568594 47.629084023414585 -28.849939567830106
-0.02333805368457717 49.291244370106426 -29.737500574066935
-0.011931771028020786 50.73774413552342 -30.468931592491316
-0.005641151376299379 51.96823574076764 -31.044834647414113
-0.0026418300562744777 52.99633921110237 -31.441619163078904
-0.0014569859069231085 53.800466008561855 -31.696677584103547
-0.001005086180947595 54.35893040588191 -31.84757069190863
-0.6519578110959388 3.2853835429133422 -2.9004578722323218
-0.7381041280070318 7.948882122804504 -5.740027036768266
-0.7152918662654275 12.406778852757142 -8.40604397975755
-0.5923765403635137 16.682715152497085 -10.857560561072
-0.4878052910110849 20.74498190197426 -13.149498587701641
-0.39089797599006726 24.581020103199382 -15.30361088225605
-0.30596004185303555 28.18900161942147 -17.32306387047114
-0.23592082890512064 31.566060956293622 -19.212820734144508
-0.17792026898834412 34.71270348131331 -20.97200615109407
-0.1323805615924845 37.62878143663589 -22.60087604541397
-0.0993284839689258 40.3140904543298 -24.09978439274509
-0.07444213160676699 42.76837421676147 -25.469175148251633
-0.05384453561032071 44.9914754914181 -26.709320646634428
-0.036864804602575046 46.983453779884975 -27.8201178281246
-0.023365651832679663 48.744965135209874 -28.80043037551091
-0.013226184267224234 50.2802530476547 -29.642908348058345
-0.006589845901620062 51.592912540827356 -30.34132498222363
-0.0031061180372151964 52.68631283173183 -30.88984462297409
-0.0015370559861990949 53.55849433286704 -31.291861375423473
-0.0009232770329515139 54.198612258471876 -31.566158959507256

CELLS 40 140
4 0 21 22 1
4 1 22 23 2
4 2 23 24 3
4 3 24 25 4
4 4 25 26 5
4 5 26 27 6
4 6 27 28 7
4 7 28 29 8
4 8 29 30 9
4 9 30 31 10
4 10 31 32 11
4 11 32 33 12
4 12 33 34 13
4 13 34 35 14
4 14 35 36 15
4 15 36 37 16
4 16 37 38 17
4 17 38 39 18
4 18 39 40 19
4 19 40 41 20
1 42
1 43
1 44
1 45
1 46
1 47
1 48
1 49
1 50
1 51
1 52
1 53
1 54
1 55
1 56
1 57
1 58
1 59
1 60
1 61

CELL_TYPES 40
7
7
7
7
7
7
7
7
7
7
7
7
7
7
7
7
7
7
7
7
7
7
7
7
7
7
7
7
7
7
7
7
7
7
7
7
7
7
7
7

POINT_DATA 62

VECTORS centroid-point-cyl-mean float
2.3207855880440165 3.0943716057964698e-18 0.0
7.3704420981353245 -1.200241107702872e-17 0.0
12.63100960475472 -8.476702823151533e-17 0.0
17.6274753715045 9.301868584697257e-17 0.0
22.38008971967496 0.0 0.0
26.8841459954714 4.800964430811488e-17 0.0
31.13160464790725 3.600723323108616e-17 0.0
35.12048718468329 7.201446646217232e-17 0.0
38.84818104039217 1.200241107702872e-16 0.0
42.31345790709138 1.200241107702872e-17 0.0
45.515589887075954 -2.400482215405744e-17 0.0
48.45410841995267 -3.540711267723472e-16 0.0
51.128698497945216 4.800964430811488e-17 0.0
53.539142054218956 4.800964430811488e-17 0.0
55.685271038841556 -2.400482215405744e-16 0.0
57.56688801551495 3.8407715446491904e-16 0.0
59.18339918362044 -2.3404701600206e-16 0.0
60.53493734310794 3.3606751015680416e-16 0.0
61.62131805080491 4.320867987730339e-16 0.0
62.443329609444646 2.820566603101749e-16 0.0
63.00127991549284 8.116630490840671e-16 0.0
2.249137566786139 1.050210969240013e-17 0.8152938918039475
7.341671054718347 -6.301265815440077e-17 0.9232602711185551
12.609866433521468 -7.032662740447e-20 1.0450174035668625
17.617174598142793 -6.00120553851436e-18 0.8624275731409441
22.37425210206098 0.0 0.71724320116176
26.88100292426592 4.800964430811488e-17 0.5835709082011332
31.129920170261205 -7.201446646217232e-17 0.4588236944390458
35.119582686365646 3.66073537849376e-16 0.35706975050238243
38.84770554150603 -6.601326092365796e-17 0.2720524599112728
42.313215818369876 -3.600723323108616e-16 0.20240159072431135
45.51546504491059 1.50030138462859e-16 0.15061324018898056
48.45404091630215 -1.9203857723245952e-16 0.11426271706148837
51.12866439611837 -9.601928861622976e-17 0.08424963388989029
53.53912739443415 1.800361661554308e-16 0.05933579440429822
55.68526428039065 -3.720747433878903e-16 0.038970351202568594
57.566880338838864 -6.00120553851436e-18 0.023338053684577188
59.183396931485525 4.800964430811488e-17 0.011931771028020786
60.53494267192541 -4.83097045850406e-16 0.005641151376299383
61.62132248965717 -4.320867987730339e-16 0.0026418300562744785
62.44333040933231 -1.9203857723245952e-16 0.0014569859069231076
63.00127835090052 -4.815967444657774e-16 0.0010050861809475953
4.382510797777952 3.675738392340046e-17 0.651957811095939
9.804725258010654 3.300663046182898e-17 0.7381041280070315
14.986318323418896 1.800361661554308e-17 0.7152918662654278
19.904763404690428 2.400482215405744e-17 0.5923765403635137
24.561424779951377 1.1402290523177283e-16 0.48780529101108516
28.955604903876573 -1.3802772738583027e-16 0.39089797599006765
33.086377168861695 -1.4402893292434464e-16 0.30596004185303555
36.953331174047406 -7.201446646217232e-17 0.23592082890512064
40.55609479453262 -4.350874015422911e-16 0.17792026898834398
43.894473347179925 -2.820566603101749e-16 0.13238056159248454
46.96834569086603 1.4402893292434464e-16 0.09932848396892573
49.77763268655187 -2.100421938480026e-16 0.07444213160676702
52.32227705575913 -2.4604942707908875e-16 0.053844535610320744
54.60223333397025 -3.900783600034334e-17 0.036864804602575026
56.61745681190115 5.281060873892637e-16 0.02336565183267968
58.36784955664881 -5.401084984662924e-17 0.013226184267224226
59.85335935536436 -2.865575644640607e-16 0.006589845901620066
61.07397203911501 2.9105846861794643e-16 0.003106118037215195
62.02977433090083 5.101024707737206e-17 0.0015370559861990955
62.72090530438052 1.9203857723245952e-16 0.0009232770329515135

VECTORS centroid-point-mean float
0.0 0.05904006239348782 0.021179306666483884
0.0 0.19314044714805423 -0.048763315835363204
0.0 0.32192169619401406 -0.11360367942686114
0.0 0.44002905510512486 -0.1826164908363206
0.0 0.550686242977517 -0.25021810479990697
0.0 0.6550700842756998 -0.3143702015535032
0.0 0.7531056144580018 -0.3752026234920463
0.0 0.8451448201848908 -0.4321057118360387
0.0 0.9311003958497447 -0.48523068433190686
0.0 1.0109645827993525 -0.534590979361234
0.0 1.0847373917692402 -0.5801865783295296
0.0 1.1524188146950365 -0.6220174952046982
0.0 1.214008580740232 -0.660084199089337
0.0 1.2695066900463636 -0.6943866897382996
0.0 1.3189049554569585 -0.7249391477225514
0.0 1.3621419607894194 -0.7518479489907826
0.0 1.3988055760848535 -0.7758269235710841
0.0 1.428906875205565 -0.7968568909713417
0.0 1.4520871193415836 -0.8155592050370587
0.0 1.468927448332569 -0.8309273020396306
0.0 1.4800106280037497 -0.8419518019608693
-0.8152938918039475 0.012461925423389992 -0.059496393087635664
-0.9232602711185551 0.14026230421868172 -0.1403509459989347
-1.0450174035668625 0.26094271991446955 -0.219222364536579
-0.8624275731409441 0.3792559559773275 -0.28787858625909607
-0.71724320116176 0.49286346015708205 -0.3503701024799298
-0.5835709082011332 0.6003515948647687 -0.4091454053266643
-0.4588236944390458 0.7018615580401726 -0.46395993279367337
-0.35706975050238243 0.7970280534335643 -0.5154463965452816
-0.2720524599112728 0.8859216281616376 -0.5634826053910712
-0.20240159072431135 0.9685398460770116 -0.6080727788620731
-0.15061324018898056 1.0448770767522622 -0.6492266691446399
-0.11426271706148837 1.1149242205041363 -0.6869600373525206
-0.08424963388989029 1.1786719966398913 -0.7212889581170632
-0.05933579440429822 1.2361184440109292 -0.752216828247283
-0.038970351202568594 1.287272541173368 -0.7797280964278099
-0.023338053684577188 1.332195793786658 -0.8037162317315055
-0.011931771028020786 1.3712903820411761 -0.8234846376348568
-0.005641151376299383 1.4045469119126404 -0.8390495850652071
-0.0026418300562744785 1.4323334921919546 -0.8497734908939732
-0.0014569859069231076 1.4540666488800496 -0.8566669617324845
-0.0010050861809475953 1.469160281240053 -0.8607451538353279
-0.651957811095939 0.08879414980847003 -0.07839075330357352
-0.7381041280070315 0.21483465196769072 -0.1551358658585955
-0.7152918662654278 0.335318347371814 -0.22719037783127433
-0.5923765403635137 0.45088419331073293 -0.29344758273166016
-0.48780529101108516 0.5606751865398474 -0.35539185372164794
-0.39089797599006765 0.6643518946810654 -0.4136111049258193
-0.30596004185303555 0.761864908633012 -0.4681909154181188
-0.23592082890512064 0.8531367826025333 -0.5192654252471247
-0.17792026898834398 0.9381811751706319 -0.5668109770565721
-0.13238056159248454 1.0169940928820516 -0.6108344877138624
-0.09932848396892573 1.089570012279183 -0.6513455241282161
-0.07444213160676702 1.155902005858419 -0.6883560850878484
-0.053844535610320744 1.215985824092383 -0.7218735309900819
-0.036864804602575026 1.2698230751320279 -0.7518950764357695
-0.02336565183267968 1.3174314901408068 -0.7783900101489032
-0.013226184267224226 1.3589257580447192 -0.801159685082623
-0.006589845901620066 1.3944030416439874 -0.8200358103303277
-0.003106118037215195 1.4239544008576217 -0.8348606654857428
-0.0015370559861990955 1.447526873861267 -0.845725983119509
-0.0009232770329515135 1.4648273583370777 -0.8531394313379971

VECTORS centroid-point-cyl-variance float
1.683e-29 9.999999999999999e-33 0.0
1.1686e-28 6.0e-32 0.0
3.2986999999999997e-28 1.5999999999999999e-31 0.0
5.8708e-28 4.3e-31 0.0
9.8382e-28 7.199999999999999e-31 0.0
1.41125e-27 7.199999999999999e-31 0.0
1.7660299999999998e-27 6.0e-31 0.0
2.3606099999999997e-27 2.15e-30 0.0
2.7249399999999998e-27 1.2e-30 0.0
3.37854e-27 2.18e-30 0.0
3.78107e-27 1.73e-30 0.0
4.10174e-27 4.33e-30 0.0
5.0527999999999994e-27 3.0299999999999997e-30 0.0
5.4034799999999995e-27 3.88e-30 0.0
5.40758e-27 3.44e-30 0.0
5.9506499999999994e-27 3.26e-30 0.0
6.2508499999999996e-27 2.4199999999999997e-30 0.0
6.909909999999999e-27 3.8999999999999996e-30 0.0
6.99451e-27 4.33e-30 0.0
7.54987e-27 4.19e-30 0.0
7.60854e-27 3.18e-30 0.0
1.06e-29 9.999999999999999e-33 1.1e-31
9.289e-29 6.0e-32 4.999999999999999e-32
2.8194e-28 1.6999999999999998e-31 1.9999999999999997e-31
5.4274e-28 7.699999999999999e-31 1.1e-31
9.5891e-28 4.3e-31 1.1e-31
1.44775e-27 8.499999999999999e-31 4.999999999999999e-32
1.65311e-27 3.5e-31 4.999999999999999e-32
2.36607e-27 1.76e-30 7.999999999999999e-32
2.71948e-27 2.24e-30 0.0
3.28712e-27 2.02e-30 9.999999999999999e-33
3.9584599999999995e-27 3.01e-30 0.0
4.27503e-27 1.97e-30 9.999999999999999e-33
4.46333e-27 1.82e-30 0.0
4.9832099999999995e-27 3.68e-30 0.0
6.224919999999999e-27 2.7699999999999997e-30 0.0
5.7350599999999995e-27 1.88e-30 0.0
6.37502e-27 2.4699999999999997e-30 0.0
6.31771e-27 3.3499999999999996e-30 0.0
7.663119999999999e-27 2.63e-30 0.0
7.06683e-27 3.37e-30 0.0
6.90582e-27 2.1599999999999998e-30 0.0
3.4049999999999996e-29 1.9999999999999998e-32 4.999999999999999e-32
1.6723999999999998e-28 3.9999999999999997e-32 1.1e-31
3.9877999999999996e-28 2.4999999999999998e-31 1.1e-31
7.3479e-28 7.5e-31 0.0
1.06569e-27 4.3e-31 7.999999999999999e-32
1.45696e-27 7.9e-31 1.5e-31
1.93761e-27 7.5e-31 0.0
2.6417e-27 9.999999999999999e-31 0.0
2.9691899999999998e-27 2.28e-30 1.9999999999999998e-32
3.77562e-27 2.3099999999999998e-30 0.0
3.8806799999999995e-27 3.8199999999999995e-30 0.0
4.45924e-27 4.03e-30 0.0
4.7307799999999994e-27 3.61e-30 0.0
5.68867e-27 2.8099999999999998e-30 0.0
5.95611e-27 1.34e-30 0.0
6.175799999999999e-27 4.01e-30 0.0
6.3204399999999995e-27 3.6699999999999995e-30 0.0
6.9604e-27 3.6699999999999995e-30 0.0
6.627449999999999e-27 3.32e-30 0.0
7.117319999999999e-27 3.54e-30 0.0

VECTORS centroid-point-cart-variance float
0.0 2.7457247136952314 2.636386739979279
0.0 27.770524498694087 26.513211129975584
0.0 81.34603221549318 78.0798320454532
0.0 158.13543896947175 152.36547465146361
0.0 254.58290799949376 245.9196434230323
0.0 367.0598676838286 355.169492783054
0.0 491.9094704805499 476.559392397847
0.0 625.7697970640205 606.7778379121954
0.0 765.406371033877 742.6724023490406
0.0 907.8131552804368 881.307727871867
0.0 1050.198522928572 1019.9571281651423
0.0 1189.9837644240654 1156.1018834596591
0.0 1324.8030433709157 1287.4312387388698
0.0 1452.5034943967994 1411.8424173940766
0.0 1571.143705055216 1527.4406585646
0.0 1678.9857417584944 1632.5401479725977
0.0 1774.4435804746397 1725.6725939981009
0.0 1856.2232328454363 1805.5786505258718
0.0 1923.1881355839544 1871.2250089154209
0.0 1974.572150351424 1921.749074332586
0.0 2009.7988535464458 1956.463103148005
1.1e-31 2.466540955283242 2.588383718669735
4.999999999999999e-32 26.929933253785705 26.930828719875965
1.9999999999999997e-31 79.80687880487129 79.08570311819062
1.1e-31 156.16636382535765 153.97176783551905
1.1e-31 252.2835350333868 247.95794849412314
4.999999999999999e-32 364.5046454527401 357.55585076149725
4.999999999999999e-32 489.1743455639715 479.18971577697164
7.999999999999999e-32 622.8943118238751 609.5898375349259
0.0 762.43312875486 745.608727306875
9.999999999999999e-33 904.7799101998825 884.3205007542318
0.0 1047.1370585171987 1023.0072363638262
9.999999999999999e-33 1186.920110146 1159.1590008622948
0.0 1321.7575772091755 1290.4732202849623
0.0 1449.4910273132245 1414.8533158799034
0.0 1568.1755101748647 1530.408101302465
0.0 1676.0806485990454 1635.4443579330145
0.0 1771.6995405869793 1728.4163675024909
0.0 1853.7387248178413 1808.063803241493
0.0 1921.1372020243402 1873.2764891313093
0.0 1973.0084299022706 1923.3128946040656
0.0 2008.6467746661126 1957.6149850297081
4.999999999999999e-32 9.627492925759043 9.564878455637592
1.1e-31 48.42877039484202 47.63364592566826
1.1e-31 113.3076541879796 111.11802884099788
0.0 200.06443037395294 195.8457677831621
7.999999999999999e-32 304.796422905334 298.02650428138196
1.5e-31 423.772516170929 414.0421015923879
0.0 553.4565939470174 540.4521193408691
0.0 690.52330713707 674.0278987700665
1.9999999999999998e-32 831.8580493981681 811.7373169837904
0.0 974.5595451793489 950.7578494906013
0.0 1115.9394543240282 1088.4746288092047
0.0 1253.522342415986 1222.4804299142643
0.0 1385.0458390239314 1350.575114356549
0.0 1508.460923955664 1470.7651642535652
0.0 1621.9326745738576 1581.2622245345178
0.0 1723.8454656531185 1680.471860157592
0.0 1812.7981237965994 1767.0096837530118
0.0 1887.6044795730897 1839.700942595017
0.0 1947.2826275431944 1897.5996895102169
0.0 1991.0408994687411 1939.9974966532943

CELL_DATA 40

SCALARS Gamma-cyl-variance float
LOOKUP_TABLE default
0.0
0.04033753921797283
0.015719601088170266
0.1286863833638064
0.0959778623804122
0.06300117331474062
0.04220508146552884
0.02886227177134723
0.023538916625679723
0.01497043403770046
0.008321304304937188
0.007561165063609501
0.005078240405555217
0.002859125718113403
0.000872254419176233
0.00018051858370130743
1.3048222773832494e-5
9.02281228692755e-6
2.2219463284036275e-6
7.901777526091077e-7
0.0
0.04033753921797283
0.015719601088170266
0.1286863833638064
0.0959778623804122
0.06300117331474062
0.04220508146552884
0.02886227177134723
0.023538916625679723
0.01497043403770046
0.008321304304937188
0.007561165063609501
0.005078240405555217
0.002859125718113403
0.000872254419176233
0.00018051858370130743
1.3048222773832494e-5
9.02281228692755e-6
2.2219463284036275e-6
7.901777526091077e-7

SCALARS Gamma-cart-variance float
LOOKUP_TABLE default
0.0
0.04033753921797283
0.015719601088170266
0.1286863833638064
0.0959778623804122
0.06300117331474062
0.04220508146552884
0.02886227177134723
0.023538916625679723
0.01497043403770046
0.008321304304937188
0.007561165063609501
0.005078240405555217
0.002859125718113403
0.000872254419176233
0.00018051858370130743
1.3048222773832494e-5
9.02281228692755e-6
2.2219463284036275e-6
7.901777526091077e-7
0.0
0.04033753921797283
0.015719601088170266
0.1286863833638064
0.0959778623804122
0.06300117331474062
0.04220508146552884
0.02886227177134723
0.023538916625679723
0.01497043403770046
0.008321304304937188
0.007561165063609501
0.005078240405555217
0.002859125718113403
0.000872254419176233
0.00018051858370130743
1.3048222773832494e-5
9.02281228692755e-6
2.2219463284036275e-6
7.901777526091077e-7

VECTORS centroid-cell-cart-variance float
0.0 0.0934626570410777 0.0909376433740864
0.0 0.4817461233344778 0.46898583694849927
0.0 1.1312090561436527 1.1014933468094192
0.0 2.0000597805418074 1.947793770707268
0.0 3.0487026480657864 2.969232231684237
0.0 4.2396157563403465 4.129270250917685
0.0 5.537426692317402 5.393428330940131
0.0 6.908883066219335 6.729311605716641
0.0 8.322860764613637 8.106602470436398
0.0 9.750365901907136 9.49705845408728
0.0 11.164533785111418 10.874513115520433
0.0 12.54062807523931 12.214876827431903
0.0 13.856043168632887 13.496134366369297
0.0 15.090305471913933 14.698343613881432
0.0 16.22507198661477 15.803636961638654
0.0 17.244127251668335 16.7962243674644
0.0 18.133386106996774 17.662390592020902
0.0 18.880898405864652 18.39049048557962
0.0 19.476843397514937 18.97095460346415
0.0 19.913527250301193 19.396291685835884
0.0 0.006017183078599401 0.005978049034773494
0.0 0.03026798149677626 0.029771028703542673
0.0 0.07081728386748726 0.06944876802562372
0.0 0.12504026898372053 0.12240360486447627
0.0 0.19049776431583382 0.1862665651758638
0.0 0.26485782260683055 0.2587763134952425
0.0 0.3459103712168856 0.3377825745880432
0.0 0.4315770669606688 0.4212674367312916
0.0 0.5199112808738552 0.5073358231148691
0.0 0.6090997157370932 0.5942236559316256
0.0 0.6974621589525177 0.6802966430057532
0.0 0.7834514640099914 0.7640502686964152
0.0 0.8656536493899573 0.8441094464728427
0.0 0.9427880774722898 0.9192282276584781
0.0 1.0137079216086609 0.9882888903340735
0.0 1.0774034160331993 1.0502949125984948
0.0 1.132998827372875 1.1043810523456326
0.0 1.1797527997331816 1.1498130891218858
0.0 1.2170516422144964 1.1859998059438859
0.0 1.2444005621679632 1.212498435408309

VECTORS D-cart-variance float
0.14108291096305758 662.195911611098 671.4103404211417
12.650029837304068 260408.5057748497 264281.28157445847
9.4378411239557 1.0267085475288588e6 1.0398261595548963e6
22.080285256324633 1.1558303917289781e6 1.1742303676004482e6
12.105810596975633 1.1887145094204897e6 1.2079634977138813e6
8.195638534564123 1.4410288427350223e6 1.462958087485747e6
4.901074306583088 1.5184256781585098e6 1.5406644454141252e6
3.63824224914944 1.6787614481309815e6 1.7023308699262103e6
3.0519361683099957 1.8673676322760878e6 1.8950085686380004e6
1.8605379563455398 1.5723084065731768e6 1.595712349200835e6
1.6726278096259926 1.5905869889663192e6 1.6131665183585547e6
1.2363544300725928 1.5675910980060655e6 1.5902295609797847e6
0.9846944453621607 1.649482424469906e6 1.6721128700722475e6
0.9454269192154342 1.5752353215271991e6 1.5973289940039106e6
0.7593144122415074 1.4670585004842505e6 1.4871690342147928e6
0.5580406063991671 1.216922683238314e6 1.233283413550649e6
0.34685411630436436 856666.8707858543 867928.0331601248
0.15630306176187417 438126.44683744485 443794.0421620446
0.044243412197711184 145939.28483027066 147802.44294020094
0.005448677905920751 21897.96271125734 22174.052256257706
0.14108291096305758 662.195911611098 671.4103404211417
12.650029837304068 260408.5057748497 264281.28157445847
9.4378411239557 1.0267085475288588e6 1.0398261595548963e6
22.080285256324633 1.1558303917289781e6 1.1742303676004482e6
12.105810596975633 1.1887145094204897e6 1.2079634977138813e6
8.195638534564123 1.4410288427350223e6 1.462958087485747e6
4.901074306583088 1.5184256781585098e6 1.5406644454141252e6
3.63824224914944 1.6787614481309815e6 1.7023308699262103e6
3.0519361683099957 1.8673676322760878e6 1.8950085686380004e6
1.8605379563455398 1.5723084065731768e6 1.595712349200835e6
1.6726278096259926 1.5905869889663192e6 1.6131665183585547e6
1.2363544300725928 1.5675910980060655e6 1.5902295609797847e6
0.9846944453621607 1.649482424469906e6 1.6721128700722475e6
0.9454269192154342 1.5752353215271991e6 1.5973289940039106e6
0.7593144122415074 1.4670585004842505e6 1.4871690342147928e6
0.5580406063991671 1.216922683238314e6 1.233283413550649e6
0.34685411630436436 856666.8707858543 867928.0331601248
0.15630306176187417 438126.44683744485 443794.0421620446
0.044243412197711184 145939.28483027066 147802.44294020094
0.005448677905920751 21897.96271125734 22174.052256257706

VECTORS S-cyl-mean float
1.8732702955604047e-16 3.485696720142104e-17 2.7347203442234e-19
-4.1785078889220765e-15 -7.246087376790721e-16 9.06391315504712e-18
-1.370423451450621e-14 -2.261500716020232e-15 8.295731491438544e-17
1.1400503864168677e-14 1.8378037205045382e-15 -6.103888858782725e-17
-3.132462646759051e-15 -4.990075404311355e-16 1.4575508221852588e-17
-2.1163963867665107e-14 -3.3461965346584063e-15 8.746443743332494e-17
2.2776775741318014e-15 3.5817828411075304e-16 -8.460173973846159e-18
9.845907716984015e-15 1.5323773770428284e-15 -3.464228817571984e-17
-8.297417238485691e-17 -1.392309304445555e-17 1.8589804655847e-19
6.30985377164284e-15 9.691324273212656e-16 -2.0230418036979128e-17
5.01554061333703e-15 7.673525815960411e-16 -1.542655714842676e-17
9.126517883552136e-16 1.3708102023741722e-16 -2.96747740339078e-18
7.541954555513322e-15 1.138221240986794e-15 -2.3277100603459858e-17
-7.064091138993137e-15 -1.0650057475200697e-15 2.138987749179804e-17
1.4521131427023864e-16 2.198966402359666e-17 -4.2422161772501997e-19
2.9816077369334188e-15 4.496913919418149e-16 -9.01474301024055e-18
-1.6776788781284639e-15 -2.5227177278663456e-16 5.21713984377712e-18
2.208929906069269e-15 3.3457083568648335e-16 -6.422734707545139e-18
-2.4528558677985307e-15 -3.7201682124055744e-16 6.8198034238289996e-18
3.0803647602022865e-16 4.6810488960497026e-17 -7.256626777368999e-19
1.9047037530488604e-16 -5.2402572443003e-18 2.7347203442234e-19
-4.2321656359459755e-15 -2.715879791575478e-16 9.06391315504712e-18
-1.3835432264432724e-14 -1.2252522897090909e-15 8.295731491438544e-17
1.1484463319410648e-14 1.2066951301537058e-15 -6.103888858782725e-17
-3.150797656303743e-15 -3.6579350428715845e-16 1.4575508221852588e-17
-2.126510463025867e-14 -2.627874217793811e-15 8.746443743332494e-17
2.286748259571447e-15 2.9476976143831954e-16 -8.460173973846159e-18
9.879008606516707e-15 1.3020246347158156e-15 -3.464228817571984e-17
-8.323579901273905e-17 -1.2262445334726239e-17 1.8589804655847e-19
6.325709975552187e-15 8.595729092988894e-16 -2.0230418036979128e-17
5.026648690629138e-15 6.908549554802909e-16 -1.542655714842676e-17
9.144234490101864e-16 1.2471667409618544e-16 -2.96747740339078e-18
7.555227022173606e-15 1.0465040631929695e-15 -2.3277100603459858e-17
-7.0753935753601325e-15 -9.87130495934914e-16 2.138987749179804e-17
1.4542519312287622e-16 2.0527647725307478e-17 -4.2422161772501997e-19
2.9855791523026515e-15 4.225212068802954e-16 -9.01474301024055e-18
-1.679647429219219e-15 -2.3881369094036747e-16 5.21713984377712e-18
2.2111159558270862e-15 3.1980494665657416e-16 -6.422734707545139e-18
-2.4547434561656247e-15 -3.593507866857319e-16 6.8198034238289996e-18
3.082117597530447e-16 4.564212512157135e-17 -7.256626777368999e-19

VECTORS L-cart-variance float
0.004075554398689554 6525.818222071572 6598.932836371229
2.244988596225888 97091.45311057197 98501.54963668782
0.3608354322319607 181022.53170578863 183546.6062407041
45.87756084196473 237953.63337343253 241971.77098359566
72.1865351381557 266761.296127206 271462.1115085405
69.59476285472336 334624.04924811743 340248.81228587107
66.5076060914509 365867.51842424786 371879.389459288
59.22165746371947 412443.2425107333 419009.1497671361
56.43283746918459 463439.0737764401 471210.6743227161
43.37230887868029 396004.9818012901 402686.8941317366
29.404276193850553 401936.4502793923 408480.0703463215
26.403274720228268 399180.75325269235 405655.89051187
20.482521060351964 418213.6809620463 424938.3149939323
10.799768553103736 404166.0023981844 410760.6332402557
2.4427344371378195 372524.7712936709 378535.5908998074
0.4436498366896838 312555.82910365966 317520.943511636
0.7896581198655669 218347.93110121187 221753.6788679442
0.8678717282214484 115959.67293095772 117733.07348187926
0.23750210947861444 40226.4069832835 40831.68946599857
0.0426080741037261 6961.970966266949 7064.39979080603
0.004075554398689554 6525.818222071572 6598.932836371229
2.244988596225888 97091.45311057197 98501.54963668782
0.3608354322319607 181022.53170578863 183546.6062407041
45.87756084196473 237953.63337343253 241971.77098359566
72.1865351381557 266761.296127206 271462.1115085405
69.59476285472336 334624.04924811743 340248.81228587107
66.5076060914509 365867.51842424786 371879.389459288
59.22165746371947 412443.2425107333 419009.1497671361
56.43283746918459 463439.0737764401 471210.6743227161
43.37230887868029 396004.9818012901 402686.8941317366
29.404276193850553 401936.4502793923 408480.0703463215
26.403274720228268 399180.75325269235 405655.89051187
20.482521060351964 418213.6809620463 424938.3149939323
10.799768553103736 404166.0023981844 410760.6332402557
2.4427344371378195 372524.7712936709 378535.5908998074
0.4436498366896838 312555.82910365966 317520.943511636
0.7896581198655669 218347.93110121187 221753.6788679442
0.8678717282214484 115959.67293095772 117733.07348187926
0.23750210947861444 40226.4069832835 40831.68946599857
0.0426080741037261 6961.970966266949 7064.39979080603

VECTORS centroid-cell-mean float
-0.043463854073062545 0.010122618479590331 -0.0056857837063862444
-0.04920694186713547 0.022906679186880448 -0.013048507644943485
-0.04768612441769516 0.03505373567977339 -0.020083028026471494
-0.03949176935756759 0.04657086785542606 -0.026777082109381407
-0.0325203527340723 0.057474284556876754 -0.033102595354000126
-0.026059865066004467 0.06775972129096615 -0.0390669540791471
-0.020397336123535698 0.07742850115291608 -0.04466786661667561
-0.015728055260341375 0.08647987244074606 -0.04990663495260754
-0.011861351265889608 0.0949131613221937 -0.05478442619865724
-0.008825370772832299 0.10272797243494629 -0.05930192514243664
-0.006621898931261721 0.10992393759301687 -0.06345976950078498
-0.004962808773784465 0.11650059031448262 -0.06725876724409
-0.003589635707354711 0.1224576427859351 -0.07069941687979944
-0.0024576536401716698 0.1277950657671904 -0.07378176905339832
-0.0015577101221786445 0.13251288128016 -0.07650578562181572
-0.0008817456178149485 0.13661084281755287 -0.07887189354820602
-0.00043932306010800395 0.14008874363110616 -0.08088045093106218
-0.00020707453581434652 0.1429468599662935 -0.08253097929918937
-0.00010247039907993961 0.14518536771865448 -0.08382317399257908
-6.15518021967676e-5 0.1468041251614103 -0.0847572804892077
-0.016298945277398467 0.0022198537452117403 -0.0019597688325893284
-0.018452603200175798 0.005370866299192254 -0.0038783966464648804
-0.01788229665663569 0.008382958684295389 -0.005679759445781878
-0.014809413509087831 0.011272104832768281 -0.0073361895682915144
-0.012195132275277127 0.014016879663496145 -0.008884796343041252
-0.009772449399751687 0.016608797367026577 -0.010340277623145476
-0.007649001046325881 0.019046622715825332 -0.011704772885453006
-0.005898020722628016 0.021328419565063265 -0.012981635631178079
-0.004448006724708603 0.023454529379265798 -0.01417027442641427
-0.0033095140398121115 0.0254248523220512 -0.015270862192846499
-0.0024832120992231434 0.027239250306979608 -0.01628363810320532
-0.0018610532901691746 0.028897550146460487 -0.017208902127196227
-0.001346113390258017 0.0303996456023096 -0.018046838274752144
-0.000921620115064376 0.031745576878300694 -0.01879737691089409
-0.0005841412958169919 0.03293578725352023 -0.019459750253722635
-0.00033065460668060603 0.03397314395111802 -0.020028992127065413
-0.00016474614754050164 0.034860076041099496 -0.020500895258258194
-7.765295093037998e-5 0.03559886002144028 -0.020871516637143695
-3.842639965497736e-5 0.03618817184653176 -0.02114314957798777
-2.3081925823787848e-5 0.036620683958427054 -0.02132848578344984

SCALARS mu-cart-variance float
LOOKUP_TABLE default
1.5696251509441908e-5
0.0006330117112102065
4.431941326809352e-5
2.23669931584598e-8
1.6865927999344954e-7
1.6005336772419176e-8
2.6639338575295055e-7
6.773032977115968e-8
3.273481118429166e-8
3.6885566204583495e-10
0.0007368660559802898
2.6755861596852197e-5
9.163169101536945e-9
2.1593347752907665e-7
9.512129694335082e-8
4.2905548872080047e-7
5.944639008942763e-7
8.655232363285673e-7
9.104782870533844e-7
1.2942897389580437e-6
1.5696251509441908e-5
0.0006330117112102065
4.431941326809352e-5
2.23669931584598e-8
1.6865927999344954e-7
1.6005336772419176e-8
2.6639338575295055e-7
6.773032977115968e-8
3.273481118429166e-8
3.6885566204583495e-10
0.0007368660559802898
2.6755861596852197e-5
9.163169101536945e-9