# vtk DataFile Version 4.0
 
ASCII
DATASET UNSTRUCTURED_GRID
POINTS 152 float
0.0 -0.41360273670661296 -2.2836190458745635
0.0 -2.3232431187920963 -3.44875215264446
0.0 -4.165812669412617 -4.647903213636854
0.0 -5.969103650833259 -5.8329346185513495
0.0 -7.733364897165334 -7.003415374064488
0.0 -9.47673062033957 -8.127936103757037
0.0 -11.214681824295935 -9.179682922252788
0.0 -12.95114115951267 -10.151861599623103
0.0 -14.661906086758615 -11.086392163488528
0.0 -16.337185278753367 -12.000233690172248
0.0 -17.977070214885472 -12.893227732725459
0.0 -19.581759117999088 -13.765030959110863
0.0 -21.151457022326845 -14.615288239620249
0.0 -22.687821956047934 -15.44112778520689
0.0 -24.18975461399494 -16.244453648273762
0.0 -25.654847376310897 -17.02943594873843
0.0 -27.08274251654344 -17.796694286991613
0.0 -28.47402507584375 -18.54521534203496
0.0 -29.829116610885123 -19.274268956292044
0.0 -31.14801724765641 -19.983854911543762
0.0 -32.43072710878178 -20.673972995398827
0.0 -33.67724631352071 -21.344623001293773
0.0 -34.887574977768004 -21.995804728492917
0.0 -36.061713214053746 -22.62751798208841
0.0 -37.19966113154336 -23.239762573000203
0.0 -38.301418836037584 -23.83253831797606
0.0 -39.36698642997245 -24.405845039591544
0.0 -40.396364012419326 -24.95968256625005
0.0 -41.38955153056029 -25.494050989434854
0.0 -42.3465470366726 -26.00895368270076
0.0 -43.26735021772268 -26.50439118823777
0.0 -44.15196146909794 -26.980362821214797
0.0 -45.00038117064658 -27.436867923715536
0.0 -45.81260968667748 -27.87390586473841
0.0 -46.58864736596035 -28.291476040196617
0.0 -47.32849454172562 -28.689577872918104
0.0 -48.032359280630146 -29.06785098088183
0.0 -48.70090149051867 -29.42515237017239
0.0 -49.33513105952504 -29.759732863232014
0.0 -49.93557484179967 -30.07067992190399
0.0 -50.50193139357111 -30.358515662116105
0.0 -51.034357472216065 -30.622968572127437
0.0 -51.53879424840303 -30.853748242483707
0.0 -52.0151085840736 -31.05108527506651
0.0 -52.45881617409673 -31.222746714199435
0.0 -52.866858951544664 -31.374029287174352
0.0 -53.23845709904027 -31.506283677309003
0.0 -53.574341346182344 -31.618244223811743
0.0 -53.87385841329281 -31.711042440276522
0.0 -54.135721141992825 -31.786907750412894
0.0 -54.358815275775314 -31.847770103103777
-0.8152906147965383 -2.1369919493778076 0.7013786316880741
-0.840508508576773 -4.099766353426753 -0.37172364943062375
-0.8937965186568912 -6.0555101508338085 -1.374851164880403
-0.9506477078523391 -7.979809380112954 -2.3502901363690825
-1.020681877210228 -9.872160195565163 -3.2989132502465437
-1.048954977401727 -11.717095312722053 -4.24751062906715
-0.9930987765444168 -13.503722850658336 -5.214947563983491
-0.9074282632528687 -15.22235510805434 -6.218003645889801
-0.838943182597301 -16.89339065406291 -7.22134751661163
-0.780438039247949 -18.526543938414076 -8.208153255648998
-0.7250391551380654 -20.123811024953 -9.174963579006928
-0.6716005320170477 -21.685040937099203 -10.122039985793569
-0.6190912009117757 -23.209870176925026 -11.050012072888068
-0.5668551203523576 -24.696533925650442 -11.961936596083593
-0.5160737545272154 -26.146073472441287 -12.856009989639537
-0.46824322159258064 -27.560989295574867 -13.72790129813638
-0.4244759216876314 -28.94163893946685 -14.576991236480227
-0.3845740908079094 -30.28744073248839 -15.404287289485568
-0.34771109645469384 -31.598018802585845 -16.210440486646437
-0.3130568676883623 -32.873435258681695 -16.99534325215352
-0.28047282351476527 -34.11371085159586 -17.75895964453241
-0.25028172479700606 -35.31884691450702 -18.50128735464988
-0.22269967179244904 -36.488853049017656 -19.22230975204262
-0.19756508903558764 -37.62375330646519 -19.921985178572207
-0.17527331282135344 -38.72355320257506 -20.600304080721934
-0.15618952887338375 -39.78826250221937 -21.257249545237233
-0.13996799493970205 -40.81790968871182 -21.892772237571542
-0.12575834684109707 -41.81252926974713 -22.506812388644438
-0.11252036551224441 -42.772151719920465 -23.099317214908673
-0.10008619772204906 -43.69678195700745 -23.67027819852706
-0.0884564051429673 -44.586422199174315 -24.219691497522977
-0.07764813403823374 -45.44107503348906 -24.747552630963177
-0.06766754153321136 -46.26074333598575 -25.253856617410563
-0.05846867713071129 -47.04543063863573 -25.738597339311294
-0.05000632361003568 -47.795140163090714 -26.20176921660093
-0.0422455662862189 -48.509874748590505 -26.64336733157189
-0.03513713503927796 -49.18948417627015 -27.063651870930514
-0.028610254341892315 -49.833483474089604 -27.46346283089039
-0.02259956362415257 -50.440371248452244 -27.845400701443076
-0.017476911002663225 -51.0093701889231 -28.210811823755154
-0.013355710955940858 -51.54188610240847 -28.5572612688393
-0.010110762084772787 -52.037879840032744 -28.884816844537124
-0.007505342360435571 -52.490094393866165 -29.206048057293877
-0.005475063785670375 -52.89846580805799 -29.52106568189255
-0.003985447751437076 -53.2684590242253 -29.82040416179187
-0.0029419419370193198 -53.60366746528641 -30.097839505924323
-0.00222865752783443 -53.904665002276445 -30.35237774050001
-0.0017402354220029323 -54.16997588867895 -30.586574933464576
-0.0014049497009942318 -54.40009558193042 -30.799572927364967
-0.0011720086804816246 -54.59644879875336 -30.988904040451512
-0.0010052173229800666 -54.76026885706963 -31.15243210342155
-0.6209246712649916 -2.6808900954890493 -0.5929257814683339
-0.6503643852126241 -4.6193606626233 -1.6670474761517995
-0.6916665849409614 -6.530109364135769 -2.7070327169920825
-0.7392485943984627 -8.407297159379118 -3.7229950190578394
-0.7761138204794831 -10.247232755295821 -4.721327889470326
-0.765770157729804 -12.044233366847086 -5.711874200645219
-0.7126976399239822 -13.793007107493333 -6.703799768936968
-0.6548892921938138 -15.495035566577876 -7.694538406326991
-0.6072679581919687 -17.157361892867865 -8.671891021305331
-0.5645539478947554 -18.783165047967508 -9.630351490858187
-0.5237398826831674 -20.373173152380147 -10.568658673279725
-0.4840093998483088 -21.92724368529983 -11.487059421847004
-0.44472987047405005 -23.444811410762647 -12.386532753967765
-0.40609832807983987 -24.925674845539756 -13.267427648831257
-0.3691188660449235 -26.37072378679429 -14.128202932542491
-0.33476967873007946 -27.780684324747433 -14.96760097994748
-0.3033937546858278 -29.155500826031613 -15.785718150865495
-0.27460694522347623 -30.494940036493944 -16.582958453340378
-0.24778798655364606 -31.79893700529302 -17.359434385529458
-0.22257363420117282 -33.06752283590886 -18.115092074625046
-0.19903295561691423 -34.3007058400764 -18.84991712427993
-0.17736802372104568 -35.498490147732845 -19.56390238123302
-0.15759928531051376 -36.66088840728378 -20.257025937803224
-0.1398144006963529 -37.787911734089725 -20.92926854162138
-0.12429856563552642 -38.87956588524553 -21.58062022110672
-0.11105907142990716 -39.93586522985045 -22.211056088249244
-0.09964737816779967 -40.956833414721075 -22.82053518556119
-0.08935451713250306 -41.9424948139978 -23.40901529579303
-0.07972746121286005 -42.89286244975208 -23.976473864055354
-0.07070347607438114 -43.80793871536757 -24.52290674488608
-0.062289202192950394 -44.68772542310134 -25.04831079936388
-0.054493378339291916 -45.532224718521114 -25.552682311256444
-0.047301081998971 -46.34143909764856 -26.03601695732744
-0.040678125277780114 -47.11537118222714 -26.49831019658396
-0.03459445871109547 -47.8540233303412 -26.93955794470415
-0.029018512997061326 -48.557366324617206 -27.35981080766339
-0.023905271017938854 -49.2252704652785 -27.75929343206462
-0.01920368173726683 -49.85719958970866 -28.138934478800596
-0.015028677985055923 -50.45249127668134 -28.499881295091335
-0.01156223323447653 -51.011409388670685 -28.84167685772543
-0.008799927390267616 -51.53444833663885 -29.1634648217966
-0.006606039166953134 -52.01963430278948 -29.46866394001302
-0.00486765230478973 -52.46494792978115 -29.760771841888687
-0.003547691826415294 -52.871837406877525 -30.0372801900399
-0.0025977711331711486 -53.24275682427207 -30.293938375565293
-0.001938974799320156 -53.578789181659175 -30.528870587969543
-0.0014883348561890108 -53.8795901397611 -30.742673240376813
-0.0011794444211239365 -54.1448017714129 -30.93596628082211
-0.0009663593930534462 -54.37490158716711 -31.107922636767356
-0.0008164597512981341 -54.57058617315464 -31.25733578564198

CELLS 100 350
4 0 51 52 1
4 1 52 53 2
4 2 53 54 3
4 3 54 55 4
4 4 55 56 5
4 5 56 57 6
4 6 57 58 7
4 7 58 59 8
4 8 59 60 9
4 9 60 61 10
4 10 61 62 11
4 11 62 63 12
4 12 63 64 13
4 13 64 65 14
4 14 65 66 15
4 15 66 67 16
4 16 67 68 17
4 17 68 69 18
4 18 69 70 19
4 19 70 71 20
4 20 71 72 21
4 21 72 73 22
4 22 73 74 23
4 23 74 75 24
4 24 75 76 25
4 25 76 77 26
4 26 77 78 27
4 27 78 79 28
4 28 79 80 29
4 29 80 81 30
4 30 81 82 31
4 31 82 83 32
4 32 83 84 33
4 33 84 85 34
4 34 85 86 35
4 35 86 87 36
4 36 87 88 37
4 37 88 89 38
4 38 89 90 39
4 39 90 91 40
4 40 91 92 41
4 41 92 93 42
4 42 93 94 43
4 43 94 95 44
4 44 95 96 45
4 45 96 97 46
4 46 97 98 47
4 47 98 99 48
4 48 99 100 49
4 49 100 101 50
1 102
1 103
1 104
1 105
1 106
1 107
1 108
1 109
1 110
1 111
1 112
1 113
1 114
1 115
1 116
1 117
1 118
1 119
1 120
1 121
1 122
1 123
1 124
1 125
1 126
1 127
1 128
1 129
1 130
1 131
1 132
1 133
1 134
1 135
1 136
1 137
1 138
1 139
1 140
1 141
1 142
1 143
1 144
1 145
1 146
1 147
1 148
1 149
1 150
1 151

CELL_TYPES 100
7
7
7
7
7
7
7
7
7
7
7
7
7
7
7
7
7
7
7
7
7
7
7
7
7
7
7
7
7
7
7
7
7
7
7
7
7
7
7
7
7
7
7
7
7
7
7
7
7
7
7
7
7
7
7
7
7
7
7
7
7
7
7
7
7
7
7
7
7
7
7
7
7
7
7
7
7
7
7
7
7
7
7
7
7
7
7
7
7
7
7
7
7
7
7
7
7
7
7
7

POINT_DATA 152

VECTORS centroid-point-cyl-mean float
2.3207721065396085 3.00060276925718e-18 0.0
4.158286906814479 1.200241107702872e-17 0.0
6.241554251945157 3.375678115414328e-17 0.0
8.345856736050889 -5.101024707737206e-17 0.0
10.433252586532747 6.751356230828655e-17 0.0
12.484861575413621 4.875979500042918e-17 0.0
14.492607321434393 6.00120553851436e-17 0.0
16.455769543583376 -5.101024707737206e-17 0.0
18.381501062198126 -1.0202049415474412e-16 0.0
20.270896167931557 -2.4604942707908875e-16 0.0
22.122621338323487 1.0802169969325848e-16 0.0
23.93577589009021 1.6803375507840208e-16 0.0
25.7097410429301 1.800361661554308e-16 0.0
27.443864385112057 1.0802169969325848e-16 0.0
29.1380593488346 1.7403496061691643e-16 0.0
30.792415992156165 -3.00060276925718e-17 0.0
32.40674728759482 -1.3202652184731592e-16 0.0
33.98080511262545 1.3802772738583027e-16 0.0
35.51441456064382 2.400482215405744e-17 0.0
37.007478103566285 3.600723323108616e-16 0.0
38.45991705943681 2.6405304369463184e-16 0.0
39.87166726296894 -3.060614824642323e-16 0.0
41.24267587685578 -9.601928861622976e-17 0.0
42.57289900820003 2.880578658486893e-16 0.0
43.862299902662265 3.720747433878903e-16 0.0
45.11084755944381 -4.800964430811488e-17 0.0
46.318515657069554 -1.6803375507840208e-16 0.0
47.48528171161946 -2.400482215405744e-16 0.0
48.61112641929643 -7.201446646217232e-17 0.0
49.696033217934044 6.00120553851436e-18 0.0
50.73998765394225 0.0 0.0
51.74297710349793 -4.800964430811488e-17 0.0
52.70499053189274 -1.2602531630880155e-16 0.0
53.62601826035719 6.00120553851436e-18 0.0
54.506051773384165 6.901386369291513e-16 0.0
55.34508355863595 -2.880578658486893e-16 0.0
56.14309840675254 3.8407715446491904e-16 0.0
56.900065008724546 5.401084984662924e-17 0.0
57.61594273073604 4.800964430811488e-17 0.0
58.290714747261326 -2.880578658486893e-16 0.0
58.92439688013722 4.800964430811488e-17 0.0
59.51698788389288 -2.880578658486893e-16 0.0
60.068303565106625 -2.370476187713172e-16 0.0
60.578390683249644 -2.4304882430983155e-16 0.0
61.04741851025918 -9.901989138548693e-17 0.0
61.475478762796214 -2.880578658486893e-16 0.0
61.86258340419866 1.0202049415474412e-16 0.0
62.20870854208343 -9.601928861622976e-17 0.0
62.51386112682973 1.9203857723245952e-16 0.0
62.778051960035214 -9.451898723160116e-17 0.0
63.00127981815945 -3.8107655169566184e-16 0.0
2.2491479668297107 1.12522603847144e-18 0.8152906147965383
4.116583853662665 0.0 0.8405085085767725
6.209623089401193 -1.200241107702872e-17 0.8937965186568915
8.318727154321907 2.700542492331462e-17 0.9506477078523395
10.408764362764378 -2.850572630794321e-17 1.0206818772102288
12.46321263204043 3.600723323108616e-17 1.0489549774017275
14.475710998859096 1.3202652184731592e-16 0.9930987765444168
16.44334711596175 6.00120553851436e-17 0.9074282632528681
18.372112228768202 -3.600723323108616e-17 0.8389431825973012
20.263430365320925 -1.2602531630880155e-16 0.7804380392479483
22.11668435467046 -1.0802169969325848e-16 0.7250391551380657
23.931082171888388 -1.5603134400137336e-16 0.671600532017048
25.706046768040554 -1.200241107702872e-17 0.6190912009117754
27.44096782312041 2.1604339938651696e-16 0.5668551203523576
29.135788145852747 -1.800361661554308e-17 0.5160737545272159
30.79063826883375 -1.800361661554308e-17 0.46824322159258047
32.40535662526937 -9.601928861622976e-17 0.4244759216876317
33.9797164941235 2.4604942707908875e-16 0.3845740908079094
35.51356322617709 -4.200843876960052e-17 0.3477110964546936
37.006816101432726 2.9405907138720363e-16 0.31305686768836216
38.459406076048865 3.720747433878903e-16 0.28047282351476527
39.871275138246006 2.6405304369463184e-16 0.2502817247970059
41.242376132277855 3.600723323108616e-17 0.222699671792449
42.57267088545193 -1.6803375507840208e-16 0.19756508903558773
43.86212604116309 2.0404098830948824e-16 0.17527331282135347
45.11071370721161 -2.100421938480026e-16 0.1561895288733837
46.31841132424583 3.600723323108616e-16 0.139967994939702
47.48519988197488 2.100421938480026e-16 0.12575834684109707
48.61106271772796 4.080819766189765e-16 0.1125203655122444
49.695983976513894 -1.7403496061691643e-16 0.10008619772204906
50.73994975123861 1.50030138462859e-16 0.08845640514296735
51.74294793903305 -3.66073537849376e-16 0.07764813403823377
52.704967963662526 -2.880578658486893e-16 0.06766754153321132
53.6260005684733 -9.00180830777154e-17 0.05846867713071127
54.50603758566124 -1.7403496061691643e-16 0.05000632361003566
55.34507178502006 -9.00180830777154e-17 0.0422455662862189
56.14309045749498 -6.00120553851436e-18 0.03513713503927796
56.900069119695026 -2.7605545477166054e-16 0.02861025434189232
57.615947374885955 2.880578658486893e-16 0.02259956362415258
58.29070038030024 -1.5603134400137336e-16 0.017476911002663232
58.924385394931456 -7.801567200068668e-17 0.013355710955940852
59.51700246474239 6.00120553851436e-18 0.01011076208477279
60.068321539743025 -5.101024707737206e-17 0.007505342360435571
60.578387266754696 2.9105846861794643e-16 0.005475063785670372
61.04740151053279 -5.761157316973786e-16 0.00398544775143708
61.47546753505333 -2.400482215405744e-16 0.0029419419370193224
61.86258759144867 1.9203857723245952e-16 0.002228657527834429
62.20872007958784 4.800964430811488e-17 0.0017402354220029325
62.51387119536958 2.400482215405744e-16 0.0014049497009942311
62.778056636560684 4.50090415388577e-17 0.0011720086804816246
63.00127833033912 -1.9503918000171672e-16 0.0010052173229800666
2.745675269659749 -2.025406869248596e-17 0.6209246712649911
4.910961231687311 3.00060276925718e-17 0.6503643852126235
7.068971243288475 2.550512353868603e-17 0.6916665849409612
9.194745099133195 3.00060276925718e-17 0.739248594398462
11.282584640989768 9.901989138548693e-17 0.7761138204794836
13.330006162004185 7.201446646217232e-17 0.7657701577298041
15.335839605621917 -3.00060276925718e-17 0.7126976399239818
17.300348218921954 -9.601928861622976e-17 0.6548892921938139
19.224379340000326 1.50030138462859e-16 0.6072679581919687
21.108078052173862 1.800361661554308e-17 0.5645539478947551
22.951312172709336 -1.7403496061691643e-16 0.5237398826831668
24.753919887475742 4.200843876960052e-17 0.484009399848309
26.515757121970783 -1.8903797446320232e-16 0.4447298704740503
28.2367473856772 1.5903194677063053e-16 0.40609832807984025
29.916904772093392 -1.1102230246251565e-16 0.36911886604492333
31.556227604804032 -7.201446646217232e-17 0.3347696787300796
33.154669745833665 1.1702350800103e-16 0.3033937546858278
34.71218631683371 -9.901989138548693e-17 0.2746069452234762
36.228750418032654 9.601928861622976e-17 0.24778798655364595
37.70434494027845 1.0202049415474412e-16 0.22257363420117296
39.138954977358274 4.050813738497193e-16 0.1990329556169143
40.53256812923538 -1.6803375507840208e-16 0.17736802372104576
41.88517444939385 -3.3006630461828976e-16 0.15759928531051387
43.19676556075309 7.50150692314295e-17 0.1398144006963529
44.46733421909611 3.630729350801188e-16 0.12429856563552641
45.69687455627724 -1.200241107702872e-16 0.11105907142990722
46.88538183183171 -1.200241107702872e-16 0.09964737816779974
48.03285196967709 -2.5805183815611744e-16 0.08935451713250309
49.13928111080878 2.400482215405744e-17 0.07972746121286002
50.204665616930335 -4.320867987730339e-16 0.07070347607438117
51.22900230720913 1.050210969240013e-16 0.062289202192950394
52.212288411042756 9.601928861622976e-17 0.05449337833929196
53.15452150704891 -4.83097045850406e-16 0.04730108199897099
54.055699467433016 1.9203857723245952e-16 0.040678125277780135
54.91582040866662 9.601928861622976e-17 0.03459445871109548
55.734882002335105 -2.370476187713172e-16 0.029018512997061336
56.51288016220108 2.9705967415646083e-16 0.023905271017938847
57.24980335800545 1.9203857723245952e-16 0.01920368173726683
57.9456392652451 1.9503918000171672e-16 0.01502867798505592
58.600394297172 4.380880043115483e-16 0.011562233234476528
59.214078104567996 1.4102833015508744e-16 0.008799927390267618
59.786658272606175 1.9353887861708812e-16 0.006606039166953131
60.318109236775804 -2.400482215405744e-16 0.004867652304789729
60.808464805438675 4.650934292348629e-17 0.0035476918264152916
61.25776568363497 -5.236051832353778e-16 0.0025977711331711495
61.66602459660977 -2.880578658486893e-16 0.001938974799320156
62.03323457303538 -5.26605786004635e-16 0.0014883348561890101
62.359390380228874 -4.320867987730339e-16 0.0011794444211239363
62.644495156312196 7.501506923142999e-19 0.0009663593930534463
62.88855154714634 2.9030831792563215e-16 0.0008164597512981336

VECTORS centroid-point-mean float
0.0 -0.011178452343420313 -0.06171943367228304
0.0 -0.06279035456194576 -0.0932095176390369
0.0 -0.1125895316057431 -0.12561900577396612
0.0 -0.16132712569819155 -0.15764688158246623
0.0 -0.20900986208554367 -0.18928149659633398
0.0 -0.25612785460376514 -0.21967394875018664
0.0 -0.3030995087647467 -0.24809953843926064
0.0 -0.3500308421489832 -0.2743746378276476
0.0 -0.3962677320745476 -0.29963222063482
0.0 -0.4415455480744044 -0.32433064027492103
0.0 -0.48586676256445993 -0.34846561439798074
0.0 -0.5292367329188811 -0.37202786375974783
0.0 -0.5716610006034162 -0.3950077902599993
0.0 -0.6131843771904691 -0.41732777797856224
0.0 -0.6537771517295785 -0.4390392877911739
0.0 -0.6933742534137917 -0.4602550256415723
0.0 -0.7319660139606181 -0.48099173748625434
0.0 -0.7695682452930567 -0.5012220362712118
0.0 -0.8061923408347156 -0.5209261880078876
0.0 -0.8418383039906951 -0.540104186798473
0.0 -0.876506138075165 -0.5587560269026655
0.0 -0.9101958463113491 -0.576881702737662
0.0 -0.9429074318315465 -0.5944812088781817
0.0 -0.9746408976771064 -0.6115545400564333
0.0 -1.0053962467984465 -0.6281016911621619
0.0 -1.035173482055046 -0.6441226572425908
0.0 -1.0639726062154498 -0.6596174335024693
0.0 -1.0917936219572524 -0.6745860153040464
0.0 -1.1186365278529546 -0.6890284051198546
0.0 -1.1445012712613973 -0.702944694127041
0.0 -1.1693878437222052 -0.7163348969793943
0.0 -1.1932962559215419 -0.7291989951679642
0.0 -1.2162265181255583 -0.7415369709112252
0.0 -1.2381786401804438 -0.7533488071550892
0.0 -1.2591526315124157 -0.7646344875728781
0.0 -1.2791485011276904 -0.7753939965653417
0.0 -1.2981718724494355 -0.7856175940778771
0.0 -1.3162405808247992 -0.7952743883830298
0.0 -1.3333819205276742 -0.8043171044116637
0.0 -1.3496101308594204 -0.8127210789703694
0.0 -1.3649170646910762 -0.8205004233004285
0.0 -1.3793069587085125 -0.8276477992466853
0.0 -1.3929403850919417 -0.8338850876346853
0.0 -1.4058137455154711 -0.8392185209477356
0.0 -1.417805842543128 -0.8438580193026815
0.0 -1.4288340257173902 -0.847946737491193
0.0 -1.4388772188929486 -0.8515211804677999
0.0 -1.447955171518408 -0.8545471411840928
0.0 -1.4560502273862637 -0.8570552010885502
0.0 -1.463127598432211 -0.8591056148760149
0.0 -1.4691571696155181 -0.8607505433271215
-0.8152906147965383 -0.05775653917237313 0.018956179234811132
-0.8405085085767725 -0.11080449603855964 -0.01004658511974813
-0.8937965186568915 -0.16366243650901974 -0.037158139591363895
-0.9506477078523395 -0.21567052378683316 -0.06352135503700435
-1.0206818772102288 -0.2668151404206759 -0.08915981757423234
-1.0489549774017275 -0.31667825169518543 -0.1147975845693836
-0.9930987765444168 -0.3649654824502191 -0.14094452875631183
-0.9074282632528681 -0.41141500292037997 -0.16805415259161788
-0.8389431825973012 -0.45657812578547613 -0.19517155450301635
-0.7804380392479483 -0.5007174037409107 -0.22184197988240353
-0.7250391551380657 -0.5438867844581791 -0.24797198862180986
-0.671600532017048 -0.5860821874891566 -0.2735686482646905
-0.6190912009117754 -0.627293788565529 -0.29864897494291986
-0.5668551203523576 -0.6674738898824311 -0.32329558367793176
-0.5160737545272159 -0.7066506343902919 -0.3474597294497175
-0.46824322159258047 -0.7448916025830875 -0.37102435940908896
-0.4244759216876317 -0.7822064578234127 -0.39397273612108935
-0.3845740908079094 -0.8185794792564259 -0.41633208890501366
-0.3477110964546936 -0.8540005081779777 -0.43812001315260074
-0.31305686768836216 -0.8884712232075946 -0.4593336014095497
-0.28047282351476527 -0.921992185178248 -0.47997188228465903
-0.2502817247970059 -0.9545634301217892 -0.5000347933689131
-0.222699671792449 -0.9861852175409977 -0.5195218851903373
-0.19756508903558773 -1.0168581974720092 -0.5384320318532989
-0.17527331282135347 -1.0465825189884952 -0.5567649751546441
-0.1561895288733837 -1.0753584460059085 -0.57452025797938
-0.139967994939702 -1.1031867483435416 -0.591696546961392
-0.12575834684109707 -1.1300683586417903 -0.6082922267201173
-0.1125203655122444 -1.1560041005383674 -0.6243058706732031
-0.10008619772204906 -1.180994106946123 -0.6397372486088354
-0.08845640514296735 -1.2050384378154972 -0.6545862566898102
-0.07764813403823377 -1.228137163067243 -0.6688527738098099
-0.06766754153321132 -1.2502903604320204 -0.6825366653354165
-0.05846867713071127 -1.271498125368508 -0.6956377659273302
-0.05000632361003566 -1.2917605449483704 -0.7081559247729945
-0.0422455662862189 -1.3110776959078272 -0.720091008961391
-0.03513713503927796 -1.3294455182775435 -0.7314500505656856
-0.02861025434189232 -1.346850904705097 -0.7422557521862266
-0.02259956362415258 -1.3632532769851673 -0.752578397336299
-0.017476911002663232 -1.378631626727622 -0.7624543736149988
-0.013355710955940852 -1.3930239487137146 -0.7718178721307899
-0.01011076208477279 -1.4064291848657193 -0.7806707255280251
-0.007505342360435571 -1.4186511998341904 -0.7893526501971192
-0.005475063785670372 -1.4296882650826153 -0.7978666400511459
-0.00398544775143708 -1.439688081735794 -0.805956869237611
-0.0029419419370193224 -1.4487477693320354 -0.8134551217817266
-0.002228657527834429 -1.4568828378993335 -0.8203345335270198
-0.0017402354220029325 -1.4640534023966965 -0.8266641873909268
-0.0014049497009942311 -1.470272853565656 -0.8324208899287738
-0.0011720086804816246 -1.4755796972635744 -0.837537947039221
-0.0010052173229800666 -1.4800072664072528 -0.8419576244167961
-0.6209246712649911 -0.07245648906727081 -0.01602502112076645
-0.6503643852126235 -0.1248475854763033 -0.0450553371932923
-0.6916665849409612 -0.17648944227393662 -0.07316304640519074
-0.739248594398462 -0.2272242475507828 -0.10062148700156265
-0.7761138204794836 -0.27695223662961227 -0.1276034564721711
-0.7657701577298041 -0.3255198207255909 -0.15437497839581726
-0.7126976399239818 -0.37278397587819034 -0.181183777538837
-0.6548892921938139 -0.41878474504263674 -0.20796049746829573
-0.6072679581919687 -0.463712483591013 -0.23437543300824956
-0.5645539478947551 -0.5076531094045178 -0.26027977002319325
-0.5237398826831668 -0.5506263014156678 -0.2856394236021524
-0.484009399848309 -0.5926282077107947 -0.31046106545532115
-0.4447298704740503 -0.6336435516422201 -0.3347711555126398
-0.40609832807984025 -0.6736668877172752 -0.35857912564408745
-0.36911886604492333 -0.7127222645079394 -0.3818433225011484
-0.3347696787300796 -0.7508293060742378 -0.4045297562147963
-0.3033937546858278 -0.7879865088116481 -0.4266410311044694
-0.2746069452234762 -0.8241875685538725 -0.4481880663064937
-0.24778798655364595 -0.8594307298727638 -0.4691739023116058
-0.22257363420117296 -0.893716833402924 -0.48959708309797145
-0.1990329556169143 -0.9270461037858303 -0.5094572195751309
-0.17736802372104576 -0.9594186526414078 -0.5287541184117024
-0.15759928531051387 -0.9908348218184615 -0.5474871875081913
-0.1398144006963529 -1.021294911732133 -0.5656559065303031
-0.12429856563552641 -1.0507990779795886 -0.5832600059758523
-0.11105907142990722 -1.0793477089148538 -0.6002988131959246
-0.09964737816779974 -1.1069414436410856 -0.6167712212313734
-0.08935451713250309 -1.1335809409188367 -0.6326760890754759
-0.07972746121286002 -1.1592665526959782 -0.6480128071366279
-0.07070347607438117 -1.183998343658556 -0.6627812633752894
-0.062289202192950394 -1.207776362786497 -0.6769813729557754
-0.05449337833929196 -1.2306006680681114 -0.6906130354393595
-0.04730108199897099 -1.2524713269634495 -0.7036761339818183
-0.040678125277780135 -1.273388410330437 -0.7161705458536164
-0.03459445871109548 -1.2933519819010877 -0.728096160667673
-0.029018512997061336 -1.3123612520166512 -0.7394543461530586
-0.023905271017938847 -1.330412715277771 -0.7502511738395782
-0.01920368173726683 -1.3474918808029088 -0.7605117426702833
-0.01502867798505592 -1.3635808453156848 -0.7702670620294931
-0.011562233234476528 -1.3786867402343144 -0.7795047799385237
-0.008799927390267618 -1.3928229280172395 -0.788201751940441
-0.006606039166953131 -1.4059360622375208 -0.796450376757099
-0.004867652304789729 -1.4179715656697334 -0.8043451849158995
-0.0035476918264152916 -1.4289685785642268 -0.8118183835145827
-0.0025977711331711495 -1.438993427682999 -0.8187550912314878
-0.001938974799320156 -1.448075383288056 -0.8251046104856544
-0.0014883348561890101 -1.45620513891243 -0.8308830605507254
-0.0011794444211239363 -1.4633730208489648 -0.8361071967789676
-0.0009663593930534463 -1.4695919347882733 -0.8407546658585744
-0.0008164597512981336 -1.474880707382526 -0.8447928590714003

VECTORS centroid-point-cyl-variance float
1.1419999999999999e-29 9.999999999999999e-33 0.0
2.735e-29 1.9999999999999998e-32 0.0
4.629e-29 4.999999999999999e-32 0.0
7.59e-29 3.9999999999999997e-32 0.0
1.1829e-28 1.1e-31 0.0
1.7611e-28 9.999999999999999e-32 0.0
2.7691e-28 1.9999999999999997e-31 0.0
3.193e-28 3.9999999999999995e-31 0.0
4.390299999999999e-28 3.3e-31 0.0
4.0526e-28 4.4e-31 0.0
5.7958e-28 3.3e-31 0.0
6.6691e-28 7.1e-31 0.0
6.6861e-28 6.8999999999999995e-31 0.0
7.2285e-28 7.299999999999999e-31 0.0
7.9074e-28 8.499999999999999e-31 0.0
9.0297e-28 1.1299999999999999e-30 0.0
9.1832e-28 4.3e-31 0.0
1.09571e-27 1.47e-30 0.0
1.2362499999999999e-27 2.6599999999999998e-30 0.0
1.2499e-27 1.34e-30 0.0
1.3385899999999999e-27 1.2299999999999999e-30 0.0
1.44639e-27 2.49e-30 0.0
1.7110999999999998e-27 1.99e-30 0.0
1.56237e-27 3.37e-30 0.0
1.69336e-27 1.74e-30 0.0
2.19687e-27 2.94e-30 0.0
2.06588e-27 1.2299999999999999e-30 0.0
2.07543e-27 2.8799999999999997e-30 0.0
2.15594e-27 3.7699999999999995e-30 0.0
3.0224e-27 2.13e-30 0.0
2.4779599999999997e-27 1.5399999999999998e-30 0.0
2.73858e-27 2.4699999999999997e-30 0.0
2.6580799999999997e-27 1.69e-30 0.0
3.07425e-27 3.9199999999999995e-30 0.0
2.85047e-27 3.79e-30 0.0
2.9364399999999997e-27 3.4999999999999996e-30 0.0
2.8531999999999997e-27 2.75e-30 0.0
3.54501e-27 1.79e-30 0.0
3.31714e-27 4.35e-30 0.0
3.09336e-27 3.16e-30 0.0
3.32123e-27 3.33e-30 0.0
3.39901e-27 3.6699999999999995e-30 0.0
3.64053e-27 3.1e-30 0.0
4.5356499999999994e-27 2.7599999999999998e-30 0.0
4.32688e-27 3.91e-30 0.0
4.15768e-27 5.03e-30 0.0
3.68965e-27 2.7199999999999997e-30 0.0
4.07035e-27 3.57e-30 0.0
3.5491099999999995e-27 5.08e-30 0.0
3.85476e-27 2.55e-30 0.0
4.34189e-27 3.44e-30 0.0
5.92e-30 0.0 0.0
1.524e-29 9.999999999999999e-33 1.9999999999999997e-31
3.433e-29 3.9999999999999997e-32 4.999999999999999e-32
6.600999999999999e-29 6.0e-32 1.9999999999999997e-31
8.852e-29 8.999999999999999e-32 7.9e-31
1.5487e-28 1.6999999999999998e-31 1.9999999999999997e-31
1.9938999999999998e-28 2.4e-31 0.0
2.6369e-28 1.7999999999999998e-31 4.4e-31
2.9951e-28 1.9999999999999997e-31 9.999999999999999e-33
4.2334e-28 3.1e-31 4.4e-31
4.557499999999999e-28 5.1e-31 1.1e-31
5.2669999999999995e-28 6.1e-31 4.999999999999999e-32
6.1437e-28 3.9999999999999995e-31 1.1e-31
6.9623999999999995e-28 7.4e-31 0.0
1.06535e-27 9.2e-31 3.1e-31
1.0946799999999999e-27 5.6e-31 4.999999999999999e-32
1.1407399999999999e-27 9.2e-31 1.1e-31
1.43001e-27 7.5e-31 0.0
1.66335e-27 5.6e-31 4.999999999999999e-32
1.64015e-27 7.299999999999999e-31 9.999999999999999e-33
1.4777699999999999e-27 1.19e-30 0.0
1.68381e-27 1.66e-30 3.0e-32
1.78615e-27 2.09e-30 0.0
1.89395e-27 1.4399999999999998e-30 9.999999999999999e-33
1.7643199999999998e-27 2.4599999999999998e-30 0.0
2.23917e-27 2.54e-30 0.0
2.08907e-27 1.5099999999999999e-30 0.0
2.0727e-27 2.58e-30 0.0
2.1805e-27 2.2e-30 0.0
2.09726e-27 2.29e-30 0.0
2.3060299999999998e-27 2.58e-30 0.0
2.5612e-27 2.7e-30 0.0
2.90915e-27 3.29e-30 0.0
2.50935e-27 3.06e-30 0.0
2.7508599999999997e-27 2.02e-30 0.0
3.0524199999999998e-27 3.3999999999999996e-30 0.0
2.81636e-27 1.71e-30 0.0
3.0974499999999997e-27 2.8299999999999997e-30 0.0
3.0824399999999997e-27 2.48e-30 0.0
3.46587e-27 3.1299999999999997e-30 0.0
3.74969e-27 5.11e-30 0.0
3.73605e-27 3.58e-30 0.0
3.64189e-27 4.01e-30 0.0
3.21071e-27 1.2799999999999999e-30 0.0
4.01304e-27 2.74e-30 0.0
3.53137e-27 2.9299999999999997e-30 0.0
3.96528e-27 2.69e-30 0.0
3.69784e-27 2.13e-30 0.0
4.6311699999999996e-27 2.7599999999999998e-30 0.0
3.60369e-27 4.35e-30 0.0