# vtk DataFile Version 4.0
[MyVLM domain - lattices] 
ASCII
DATASET UNSTRUCTURED_GRID
POINTS 152 float
0.0 1.1867036931983266 1.9080246442064424
0.0 3.3625338608426683 2.446983470535801
0.0 5.504143380985559 2.9434695918997713
0.0 7.604078154124329 3.4397573072894616
0.0 9.66227845091903 3.9361853586246163
0.0 11.685154664862873 4.3963985978306095
0.0 13.678016851696789 4.790282202322727
0.0 15.642235637990868 5.110062962552537
0.0 17.569452586816944 5.403143929911161
0.0 19.456245273656723 5.688934638348234
0.0 21.302656798496734 5.967190655693696
0.0 23.10875023775742 6.2375542577910785
0.0 24.87459495895857 6.49963204188648
0.0 26.60076184256154 6.7501863839983125
0.0 28.286870022142125 6.99137728495382
0.0 29.93208462709747 7.22793953122468
0.0 31.53628138215093 7.4605779229280085
0.0 33.09966508192534 7.6881310120425566
0.0 34.62238326983393 7.909762038291282
0.0 36.10443590333068 8.125471242964625
0.0 37.54582294100582 8.335258860909075
0.0 38.946544342585824 8.539125120527158
0.0 40.3066000689334 8.737070243777445
0.0 41.62599008204751 8.929094446174547
0.0 42.90471434506336 9.115197936789118
0.0 44.1427728222524 9.29538091824785
0.0 45.34016547902231 9.469643586733481
0.0 46.496892281917034 9.637986131984787
0.0 47.612952921293484 9.800410310075018
0.0 48.68834355678395 9.956937900811642
0.0 49.72306340771135 10.107573331634493
0.0 50.71711302357234 10.252313486193128
0.0 51.67049293226764 10.391155370613758
0.0 52.583203640102056 10.524096113499256
0.0 53.455245631784415 10.651132965929142
0.0 54.28661937042764 10.772263301459594
0.0 55.07739857534501 10.887069037089413
0.0 55.82781636008053 10.994228120214517
0.0 56.53824264349406 11.091642636730437
0.0 57.208869862146685 11.178221224666773
0.0 57.83956318093413 11.254728571899035
0.0 58.430366719360926 11.320914464283153
0.0 58.98332547641943 11.365181136212808
0.0 59.49839302864592 11.387791868233842
0.0 59.97402101825953 11.397527833678968
0.0 60.4091542831481 11.400373154251726
0.0 60.80352564504463 11.397843073200297
0.0 61.1573905292808 11.388489001485029
0.0 61.47052503109519 11.373580766108482
0.0 61.742485568938335 11.355634043047791
0.0 61.97288814684201 11.336826581656295
-0.7686761955390344 1.7515682552460292 -1.2954814770809917
-0.8409029948616161 3.979684240187282 -1.053050255811452
-0.8940476007249757 6.160620817856318 -0.7795989608145779
-0.9506443374492793 8.302516230497952 -0.5212818573769975
-1.0210144815146838 10.405119951093916 -0.27667813617472103
-1.048631451549771 12.463132289950133 -0.015731763396101606
-0.9920275022819518 14.472941200589279 0.2820421944773397
-0.9074715353829097 16.43106158541982 0.6364087080560417
-0.8388231939293685 18.34446010244112 1.0078578964847327
-0.7803448823218929 20.216675266601122 1.3763218442706728
-0.7251531968841737 22.048094153916754 1.7396053342362647
-0.671766762046156 23.839263469967154 2.0946078449698686
-0.6188683613166902 25.589448823262572 2.445494317575754
-0.5668565661826578 27.298409034519416 2.793632547740282
-0.5162677046190278 28.966289516055486 3.138197861229121
-0.4681223452427161 30.594068055256084 3.473644950220579
-0.42442582165628834 32.18185717747273 3.7993356517342853
-0.3846819074085718 33.7294513444255 4.116435631280436
-0.3476243488905531 35.23672017165096 4.425684335896134
-0.3131098246080671 36.70367308067619 4.727028333446034
-0.28048746260446866 38.13032606849998 5.0203769004417405
-0.2502235469699514 39.516677090107 5.3057416347416275
-0.2227998260917326 40.86272622597687 5.583122079922947
-0.19746739264611052 42.168489116161204 5.852429536845392
-0.17533279734900953 43.43395952668164 6.113699360157096
-0.15613374469432648 44.659147625758536 6.366873883014833
-0.13998404755873647 45.84405884615255 6.611922294701818
-0.12578653595324127 46.9887075326282 6.84876324201587
-0.11250427274737486 48.09310425891484 7.077336758357902
-0.10008179164308317 49.157251103689646 7.29763105496386
-0.08845752889585208 50.18114957769181 7.509637564006015
-0.07764231497362577 51.1648004712779 7.713351803149546
-0.06766212708627829 52.10820454537194 7.9087694569797975
-0.0584684819534103 53.01136293122681 8.095884109843025
-0.050013688763705585 53.874276651168785 8.27468996383871
-0.042252254921319045 54.69694661956671 8.445181833323455
-0.03513536582041269 55.47931646726667 8.60767940365498
-0.028615518964613278 56.22120478747792 8.76321148386774
-0.022687693716904638 56.92212393570505 8.914543643322949
-0.017408965386693863 57.581821681805515 9.063106350242316
-0.013252482528008399 58.200708544202385 9.206571438956537
-0.010166684094042405 58.77876354883983 9.345057859246978
-0.00760098697125575 59.31356328119761 9.492309477823861
-0.005464879873870877 59.80509982958213 9.64837116413115
-0.0039015967321000085 60.25519952779849 9.80288526446345
-0.002883995165670249 60.66507120176569 9.948996186363187
-0.0022477517166190047 61.034928867716026 10.085490183463083
-0.00179874084072329 61.36431386555544 10.214968446415982
-0.0014595970466816986 61.653409484350945 10.336391491268394
-0.0012027506489664258 61.90270031643438 10.447011058338795
-0.0010073243559101815 62.112605856389195 10.54444807562269
-0.603592196400244 2.717874380042616 -0.33632338549188645
-0.6506064733449719 4.910949051994878 -0.013436823430315046
-0.6917594768153456 7.0622040850215875 0.3100730555768131
-0.7393720571114861 9.173658143727371 0.6227578356573656
-0.7761172248991705 11.244023729864258 0.9319192822178448
-0.7652471076868961 13.271423998522238 1.248201511674631
-0.712312139124323 15.254032605964369 1.5819622340594257
-0.6548605234921042 17.192281661048828 1.9307508382607537
-0.607188028594223 19.088637995950048 2.280577223815702
-0.564561779702275 20.944151291713386 2.625488353695343
-0.5238449845988737 22.759184988488236 2.9634230563878976
-0.48398817126106725 24.533685259550644 3.2946865984143034
-0.4446468478122555 26.267366296858256 3.6208998777291126
-0.4061716015506322 27.960215939553546 3.942131861982543
-0.369146268698154 29.612503420396784 4.25685565631595
-0.3347055625871267 31.224517713429357 4.563432407502161
-0.3034153983993225 32.79623400372137 4.862002848001841
-0.27461484611217185 34.32757036249858 5.153031618982944
-0.24777531506198255 35.818499866268255 5.436671411160302
-0.22259898270470088 37.269032036483125 5.712868225692128
-0.19901662859040753 38.67917209492657 5.981592448373291
-0.1773837648981315 40.04891929497135 6.242848313537291
-0.15760020702669117 41.37827952217439 6.496602442532128
-0.13980007124817 42.66725629445493 6.742834884246392
-0.124299953266251 43.915851078079534 6.9815373230690945
-0.11104417209489861 45.124069714625996 7.212676629766411
-0.09966396881699166 46.29191961216019 7.436210791108915
-0.08935905326273105 47.41941007222995 7.65208705539764
-0.07971977414642176 48.50654532073636 7.860281456356491
-0.07070224520210072 49.55332612607996 8.06078963616947
-0.06228744145105419 50.5597533222741 8.253606864911786
-0.05448916577246402 51.525827625723686 8.438729079649363
-0.04729897838988322 52.45154987527075 8.616151523072684
-0.04068081401891846 53.336921002384145 8.785868912559199
-0.03459972888188424 54.181941851802314 8.947876457359405
-0.029020357778149403 54.98660090078409 9.102239506185537
-0.023906581794384738 55.75084733745741 9.24924622748401
-0.019238704755569217 56.47450564664044 9.389892017314628
-0.015036247163849435 57.157368669771564 9.525351730261624
-0.011498042968013347 57.79950296513807 9.655247895520297
-0.00878218748326905 58.401043272427714 9.778816366349092
-0.006662876649486808 58.96133408573659 9.899774701463558
-0.004899700066922485 59.479713479675574 10.021876866288961
-0.0035124287272390825 59.95666401488092 10.142386123462076
-0.0025445969616638467 60.39299843626252 10.256693167551326
-0.0019244050808584702 60.78908501707974 10.362709417116355
-0.0015174347090033604 61.14483054676748 10.460963495540314
-0.0012218767077768707 61.4601357012619 10.55201869758083
-0.0009983803858680466 61.73516750029868 10.634927807247228
-0.0008287781268287279 61.970161529281384 10.708354753323567

CELLS 100 350
4 0 51 52 1
4 1 52 53 2
4 2 53 54 3
4 3 54 55 4
4 4 55 56 5
4 5 56 57 6
4 6 57 58 7
4 7 58 59 8
4 8 59 60 9
4 9 60 61 10
4 10 61 62 11
4 11 62 63 12
4 12 63 64 13
4 13 64 65 14
4 14 65 66 15
4 15 66 67 16
4 16 67 68 17
4 17 68 69 18
4 18 69 70 19
4 19 70 71 20
4 20 71 72 21
4 21 72 73 22
4 22 73 74 23
4 23 74 75 24
4 24 75 76 25
4 25 76 77 26
4 26 77 78 27
4 27 78 79 28
4 28 79 80 29
4 29 80 81 30
4 30 81 82 31
4 31 82 83 32
4 32 83 84 33
4 33 84 85 34
4 34 85 86 35
4 35 86 87 36
4 36 87 88 37
4 37 88 89 38
4 38 89 90 39
4 39 90 91 40
4 40 91 92 41
4 41 92 93 42
4 42 93 94 43
4 43 94 95 44
4 44 95 96 45
4 45 96 97 46
4 46 97 98 47
4 47 98 99 48
4 48 99 100 49
4 49 100 101 50
1 102
1 103
1 104
1 105
1 106
1 107
1 108
1 109
1 110
1 111
1 112
1 113
1 114
1 115
1 116
1 117
1 118
1 119
1 120
1 121
1 122
1 123
1 124
1 125
1 126
1 127
1 128
1 129
1 130
1 131
1 132
1 133
1 134
1 135
1 136
1 137
1 138
1 139
1 140
1 141
1 142
1 143
1 144
1 145
1 146
1 147
1 148
1 149
1 150
1 151

CELL_TYPES 100
9
9
9
9
9
9
9
9
9
9
9
9
9
9
9
9
9
9
9
9
9
9
9
9
9
9
9
9
9
9
9
9
9
9
9
9
9
9
9
9
9
9
9
9
9
9
9
9
9
9
1
1
1
1
1
1
1
1
1
1
1
1
1
1
1
1
1
1
1
1
1
1
1
1
1
1
1
1
1
1
1
1
1
1
1
1
1
1
1
1
1
1
1
1
1
1
1
1
1
1

CELL_DATA 100

VECTORS S float
-1.4029459399142998e-19 3.286223518761662e-17 4.0920396664417996e-19
1.0255735986644e-18 -1.7399359952623784e-16 -1.6186367830957999e-18
1.7920958819107e-19 -2.443876415305344e-17 -1.9518723287486e-19
-2.22940453758e-21 -1.378837776461242e-17 -2.0576428447673999e-19
4.603423119951e-19 1.7159595468213366e-16 2.70993384548815e-18
-1.9158925989365e-19 -6.096216300420437e-17 -9.2720759215817e-19
8.5464148350626e-19 3.129708295371905e-16 4.4752131531352895e-18
-2.13966448930361e-18 -8.291540743338956e-16 -1.1356017619103429e-17
7.0870894536811995e-19 2.661948047068649e-16 3.54460234798876e-18
2.34022599858729e-18 7.900606449394659e-16 1.034395162068734e-17
-1.81366365871716e-18 -5.91478939435217e-16 -7.455997772995989e-18
-2.4377314276630298e-18 -7.834582616601428e-16 -9.650439689959289e-18
-2.9508599277455497e-18 -9.524112769420903e-16 -1.1490992168716929e-17
2.8098717393351998e-18 9.656443689034793e-16 1.1400301973988669e-17
-7.147422367003e-20 -2.667705746200865e-17 -3.0878371036702e-19
2.52358260260308e-18 9.9228801897697e-16 1.1312989999881899e-17
1.0516750602693e-19 4.43403332932671e-17 5.0022700248821e-19
-1.5774544627419199e-18 -7.052845376802576e-16 -7.810585928944819e-18
-1.78948151068534e-18 -8.624454989216145e-16 -9.38741208475011e-18
7.0040694070339e-19 3.534022422038073e-16 3.79203034459838e-18
1.1817049622651199e-18 6.176656158661283e-16 6.54564805168191e-18
-1.2738460407059e-19 -7.180203193107568e-17 -7.5142246539806e-19
-8.4176638398465e-19 -4.89130042648074e-16 -5.0687707177622496e-18
-1.80445023253382e-18 -1.083886948427395e-15 -1.1103169435987549e-17
-8.088758726364e-19 -4.996981612138205e-16 -5.05900877842546e-18
1.26723404479527e-18 8.4039906016031535e-16 8.40182736059046e-18
-8.8865114915151e-19 -6.139116134576446e-16 -6.06765140897103e-18
-8.11598141694e-20 -5.793851454076894e-17 -5.6634313871614995e-19
-5.5838076150488e-19 -4.1248156118695445e-16 -3.98794382180906e-18
3.8497781774671e-19 2.9307647639482216e-16 2.8030075922619997e-18
-1.3450928209139999e-20 -1.0521929511427739e-17 -9.955701376902e-20
-1.1231352677398599e-18 -9.020004466773606e-16 -8.44342436792444e-18
-3.2499840641122e-19 -2.645148291293555e-16 -2.45021182513681e-18
-2.8439925745144e-19 -2.395889656771834e-16 -2.1939441386071297e-18
4.5404072110371e-19 3.9025407586264424e-16 3.53361028833728e-18
-5.8240793587002e-19 -5.089846308967877e-16 -4.5571804465491595e-18
4.8855885674426e-19 4.3750110668435136e-16 3.8728135404463094e-18
1.1274718771349999e-19 1.0225337173280217e-16 8.9515539799563e-19
5.160140303283099e-19 4.772687501418891e-16 4.13188597700039e-18
-6.5358650016649e-19 -6.161570559241932e-16 -5.27622039136426e-18
9.2773472688224e-19 8.827191811835422e-16 7.47170976387785e-18
-3.5248024203214997e-19 -3.4419406175226565e-16 -2.88292136296663e-18
2.1284124820409998e-20 2.140343121057801e-17 1.7745022798215e-19
-1.0964380627123e-19 -1.1216736854270613e-16 -9.210998501660899e-19
-1.8677766625929e-19 -1.9402866674513938e-16 -1.5790494090136798e-18
2.2886137523992997e-19 2.3843880696214443e-16 1.9246182906727697e-18
-2.9275011218442e-19 -3.09275023301091e-16 -2.4771576881192e-18
2.7514464789804e-19 2.946033215753974e-16 2.34312348746099e-18
2.3179254995994e-19 2.501557521414279e-16 1.97733681807548e-18
-1.1785918531926999e-19 -1.2851646115371012e-16 -1.01034309631811e-18
-1.4029459399142998e-19 3.286223518761662e-17 4.0920396664417996e-19
1.0255735986644e-18 -1.7399359952623784e-16 -1.6186367830957999e-18
1.7920958819107e-19 -2.443876415305344e-17 -1.9518723287486e-19
-2.22940453758e-21 -1.378837776461242e-17 -2.0576428447673999e-19
4.603423119951e-19 1.7159595468213366e-16 2.70993384548815e-18
-1.9158925989365e-19 -6.096216300420437e-17 -9.2720759215817e-19
8.5464148350626e-19 3.129708295371905e-16 4.4752131531352895e-18
-2.13966448930361e-18 -8.291540743338956e-16 -1.1356017619103429e-17
7.0870894536811995e-19 2.661948047068649e-16 3.54460234798876e-18
2.34022599858729e-18 7.900606449394659e-16 1.034395162068734e-17
-1.81366365871716e-18 -5.91478939435217e-16 -7.455997772995989e-18
-2.4377314276630298e-18 -7.834582616601428e-16 -9.650439689959289e-18
-2.9508599277455497e-18 -9.524112769420903e-16 -1.1490992168716929e-17
2.8098717393351998e-18 9.656443689034793e-16 1.1400301973988669e-17
-7.147422367003e-20 -2.667705746200865e-17 -3.0878371036702e-19
2.52358260260308e-18 9.9228801897697e-16 1.1312989999881899e-17
1.0516750602693e-19 4.43403332932671e-17 5.0022700248821e-19
-1.5774544627419199e-18 -7.052845376802576e-16 -7.810585928944819e-18
-1.78948151068534e-18 -8.624454989216145e-16 -9.38741208475011e-18
7.0040694070339e-19 3.534022422038073e-16 3.79203034459838e-18
1.1817049622651199e-18 6.176656158661283e-16 6.54564805168191e-18
-1.2738460407059e-19 -7.180203193107568e-17 -7.5142246539806e-19
-8.4176638398465e-19 -4.89130042648074e-16 -5.0687707177622496e-18
-1.80445023253382e-18 -1.083886948427395e-15 -1.1103169435987549e-17
-8.088758726364e-19 -4.996981612138205e-16 -5.05900877842546e-18
1.26723404479527e-18 8.4039906016031535e-16 8.40182736059046e-18
-8.8865114915151e-19 -6.139116134576446e-16 -6.06765140897103e-18
-8.11598141694e-20 -5.793851454076894e-17 -5.6634313871614995e-19
-5.5838076150488e-19 -4.1248156118695445e-16 -3.98794382180906e-18
3.8497781774671e-19 2.9307647639482216e-16 2.8030075922619997e-18
-1.3450928209139999e-20 -1.0521929511427739e-17 -9.955701376902e-20
-1.1231352677398599e-18 -9.020004466773606e-16 -8.44342436792444e-18
-3.2499840641122e-19 -2.645148291293555e-16 -2.45021182513681e-18
-2.8439925745144e-19 -2.395889656771834e-16 -2.1939441386071297e-18
4.5404072110371e-19 3.9025407586264424e-16 3.53361028833728e-18
-5.8240793587002e-19 -5.089846308967877e-16 -4.5571804465491595e-18
4.8855885674426e-19 4.3750110668435136e-16 3.8728135404463094e-18
1.1274718771349999e-19 1.0225337173280217e-16 8.9515539799563e-19
5.160140303283099e-19 4.772687501418891e-16 4.13188597700039e-18
-6.5358650016649e-19 -6.161570559241932e-16 -5.27622039136426e-18
9.2773472688224e-19 8.827191811835422e-16 7.47170976387785e-18
-3.5248024203214997e-19 -3.4419406175226565e-16 -2.88292136296663e-18
2.1284124820409998e-20 2.140343121057801e-17 1.7745022798215e-19
-1.0964380627123e-19 -1.1216736854270613e-16 -9.210998501660899e-19
-1.8677766625929e-19 -1.9402866674513938e-16 -1.5790494090136798e-18
2.2886137523992997e-19 2.3843880696214443e-16 1.9246182906727697e-18
-2.9275011218442e-19 -3.09275023301091e-16 -2.4771576881192e-18
2.7514464789804e-19 2.946033215753974e-16 2.34312348746099e-18
2.3179254995994e-19 2.501557521414279e-16 1.97733681807548e-18
-1.1785918531926999e-19 -1.2851646115371012e-16 -1.01034309631811e-18

SCALARS Gamma float
LOOKUP_TABLE default
-0.0
-0.0
-0.0
50.96578481546573
54.550816172245675
54.59771916107755
52.49850272372961
47.829838972185286
44.81349290224738
47.36964732488481
53.892485764807624
54.538316577288505
50.5292579329
45.650072909625614
44.63300319136528
43.82820137171549
40.291660804768924
38.15088085065156
33.44661235534703
33.79734961943093
33.31564057709858
34.942727542425715
36.579283335117566
34.50778528652831
36.606275798238514
37.85993138077341
37.97670587525323
38.09377935200305
38.313427253756856
38.587889642869655
38.929595251901816
39.234163874305395
37.27636266589037
37.58270923069684
37.90418053839521
38.21499717594447
38.46980921209268
40.79452074102147
40.72234960581658
40.35598188460935
39.63981079419551
38.41394377598746
36.379764987730404
33.76391128122271
31.10323400135319
28.481276895434096
25.655523139702687
22.934414730374154
20.178374315808874
17.627698391613837
-0.0
-0.0
-0.0
50.96578481546573
54.550816172245675
54.59771916107755
52.49850272372961
47.829838972185286
44.81349290224738
47.36964732488481
53.892485764807624
54.538316577288505
50.5292579329
45.650072909625614
44.63300319136528
43.82820137171549
40.291660804768924
38.15088085065156
33.44661235534703
33.79734961943093
33.31564057709858
34.942727542425715
36.579283335117566
34.50778528652831
36.606275798238514
37.85993138077341
37.97670587525323
38.09377935200305
38.313427253756856
38.587889642869655
38.929595251901816
39.234163874305395
37.27636266589037
37.58270923069684
37.90418053839521
38.21499717594447
38.46980921209268
40.79452074102147
40.72234960581658
40.35598188460935
39.63981079419551
38.41394377598746
36.379764987730404
33.76391128122271
31.10323400135319
28.481276895434096
25.655523139702687
22.934414730374154
20.178374315808874
17.627698391613837

VECTORS Ftot float
114.79202495775576 -4.587883142832359e-14 39.356169166627645
138.38058068582484 -1.0220969785514045e-13 87.67839184267976
141.93266950726849 -1.5191187869549293e-13 130.31433910213042
1262.6198358108877 1.59474416984185e-14 -13.680169998192646
1292.7601667384909 2.559998414133248e-13 -219.60396007542354
1386.3325743646167 3.3393438276275246e-13 -286.45843081458133
1469.7381747423983 3.2719732713348346e-13 -280.6791924866669
1460.1930402070382 3.207224968966497e-13 -275.1248985739256
1476.0039975024079 3.440229821828329e-13 -295.1127189267651
1666.7744270884518 4.395898707040564e-13 -377.09271959974546
2024.6187361271125 5.741082155608106e-13 -492.48638965143766
2181.253047744198 6.423094851426001e-13 -550.9913824656751
2145.053444604748 6.421385044189779e-13 -550.8447103279242
2056.0861295241466 5.907598524705728e-13 -506.77063837180236
2126.417783052787 5.737770719794679e-13 -492.2023252496202
2196.748717918501 5.712418697728355e-13 -490.0275565423633
2120.3523200894515 5.196632466152349e-13 -445.78194358372383
2098.41197001038 4.940415779944524e-13 -423.80294601169186
1918.7279925686187 4.2637749447536325e-13 -365.75876671208414
2014.7525232679336 4.338103150128997e-13 -372.1348520079244
2058.34505624563 4.3318570684760814e-13 -371.59904532212255
2235.7070160336925 4.418218451745134e-13 -379.00737091278376
2415.4176490667955 4.676066681844072e-13 -401.1263269697693
2347.862993930841 4.4480557397238987e-13 -381.56689851322017
2561.1494291180397 4.773653533082218e-13 -409.4976051959098
2722.608919483895 4.78704897087519e-13 -410.6467040273935
2800.548631867572 4.781380786678504e-13 -410.1604710324209
2876.109081025504 4.804700075302979e-13 -412.1608660716539
2957.794069753495 4.827795633832666e-13 -414.14206890571506
3041.9459411757375 4.870375577990868e-13 -417.794697870369
3129.8519980828723 4.929509679420377e-13 -422.86738962585173
3213.3451958234796 4.982764465127916e-13 -427.4357369223882
3105.990759751018 4.802609639502429e-13 -411.98154253084624
3184.193006815568 4.8117361585744e-13 -412.7644413478314
3261.0500921708326 4.884646650435761e-13 -419.018911137893
3335.267521278179 4.968911502869264e-13 -426.2473903382731
3403.422688645335 5.005018893754109e-13 -429.34478523606947
3654.5173132501727 5.365829090145648e-13 -460.29611220788735
3691.358617550782 5.374015936334015e-13 -460.9984032068067
3698.557901456025 5.340871094912979e-13 -458.1551442454156
3669.521287917249 5.311445874663474e-13 -455.63096498920675
3590.2230771834397 5.117088694673245e-13 -438.95845216290604
3430.4392555365334 4.796544719453422e-13 -411.46127640374647
3209.221555727709 4.453245333075773e-13 -382.0120766215193
2977.7798901028978 4.1060227072549803e-13 -352.2263301784498
2744.1208891517035 3.803913767622981e-13 -326.31056431269764
2486.3755786928386 3.4253872529427954e-13 -293.8394810657726
2234.218963284714 3.058377953935741e-13 -262.35637740387347
1974.5001495622628 2.698208586679917e-13 -231.46002258170924
1731.5623833287711 2.3546818050874885e-13 -201.99131618987175
114.79202495775576 -4.587883142832359e-14 39.356169166627645
138.38058068582484 -1.0220969785514045e-13 87.67839184267976
141.93266950726849 -1.5191187869549293e-13 130.31433910213042
1262.6198358108877 1.59474416984185e-14 -13.680169998192646
1292.7601667384909 2.559998414133248e-13 -219.60396007542354
1386.3325743646167 3.3393438276275246e-13 -286.45843081458133
1469.7381747423983 3.2719732713348346e-13 -280.6791924866669
1460.1930402070382 3.207224968966497e-13 -275.1248985739256
1476.0039975024079 3.440229821828329e-13 -295.1127189267651
1666.7744270884518 4.395898707040564e-13 -377.09271959974546
2024.6187361271125 5.741082155608106e-13 -492.48638965143766
2181.253047744198 6.423094851426001e-13 -550.9913824656751
2145.053444604748 6.421385044189779e-13 -550.8447103279242
2056.0861295241466 5.907598524705728e-13 -506.77063837180236
2126.417783052787 5.737770719794679e-13 -492.2023252496202
2196.748717918501 5.712418697728355e-13 -490.0275565423633
2120.3523200894515 5.196632466152349e-13 -445.78194358372383
2098.41197001038 4.940415779944524e-13 -423.80294601169186
1918.7279925686187 4.2637749447536325e-13 -365.75876671208414
2014.7525232679336 4.338103150128997e-13 -372.1348520079244
2058.34505624563 4.3318570684760814e-13 -371.59904532212255
2235.7070160336925 4.418218451745134e-13 -379.00737091278376
2415.4176490667955 4.676066681844072e-13 -401.1263269697693
2347.862993930841 4.4480557397238987e-13 -381.56689851322017
2561.1494291180397 4.773653533082218e-13 -409.4976051959098
2722.608919483895 4.78704897087519e-13 -410.6467040273935
2800.548631867572 4.781380786678504e-13 -410.1604710324209
2876.109081025504 4.804700075302979e-13 -412.1608660716539
2957.794069753495 4.827795633832666e-13 -414.14206890571506
3041.9459411757375 4.870375577990868e-13 -417.794697870369
3129.8519980828723 4.929509679420377e-13 -422.86738962585173
3213.3451958234796 4.982764465127916e-13 -427.4357369223882
3105.990759751018 4.802609639502429e-13 -411.98154253084624
3184.193006815568 4.8117361585744e-13 -412.7644413478314
3261.0500921708326 4.884646650435761e-13 -419.018911137893
3335.267521278179 4.968911502869264e-13 -426.2473903382731
3403.422688645335 5.005018893754109e-13 -429.34478523606947
3654.5173132501727 5.365829090145648e-13 -460.29611220788735
3691.358617550782 5.374015936334015e-13 -460.9984032068067
3698.557901456025 5.340871094912979e-13 -458.1551442454156
3669.521287917249 5.311445874663474e-13 -455.63096498920675
3590.2230771834397 5.117088694673245e-13 -438.95845216290604
3430.4392555365334 4.796544719453422e-13 -411.46127640374647
3209.221555727709 4.453245333075773e-13 -382.0120766215193
2977.7798901028978 4.1060227072549803e-13 -352.2263301784498
2744.1208891517035 3.803913767622981e-13 -326.31056431269764
2486.3755786928386 3.4253872529427954e-13 -293.8394810657726
2234.218963284714 3.058377953935741e-13 -262.35637740387347
1974.5001495622628 2.698208586679917e-13 -231.46002258170924
1731.5623833287711 2.3546818050874885e-13 -201.99131618987175

VECTORS D float
90.63822697381276 0.7739006906131665 -31.07509772614702
59.095126413675 0.6966509299724514 -37.44286679541046
12.090717280170768 0.17732258891196873 -11.100994838651113
525.6321085973226 9.304731301944184 -629.210249614824
511.29032591323113 10.49309271678003 -751.288019973381
469.50482206962505 10.915433026653355 -814.6832437500976
407.6919587241358 10.512965944963812 -813.0745974769721
343.65772938934055 9.686683797552918 -772.0193708422927
306.78090058480376 9.360602588485195 -764.3063679710464
319.10135115585564 10.455975843602694 -870.810752692687
356.7589701885925 12.216144084847196 -1055.879168172314
353.69903483085113 12.760419736672988 -1125.2833929823407
320.3361964286512 12.134027157918151 -1087.969721135621
277.4601822787807 10.999702391377951 -1000.0987890354214
258.24315831351953 10.685229175798915 -982.9151985230051
244.35002501479136 10.526492071285018 -977.8095301401867
214.92386956036003 9.648888348242991 -900.467048714651
196.42048464238766 9.070776416959276 -858.7477025062713
165.16191451811423 7.834018890846016 -751.2153998898758
162.04439387004362 7.883796661943457 -764.6691012662419
155.84580098463078 7.7673986700922715 -761.0887111982631
156.90351927712373 8.001533207438834 -791.184004890709
160.71844683847397 8.376513398733037 -835.013453452844
148.3784081809408 7.876583180253441 -793.022858129643
154.6147026586386 8.336289527357625 -848.129117506191
154.35736936029 8.440292111726139 -867.5279982400547
151.4807189162767 8.388008524303588 -870.865678601506
149.27182706519454 8.358431678640528 -876.4827454633728
147.51065214683345 8.340712182533133 -883.3517346641347
146.3296494491218 8.343521775607636 -892.4783645756496
145.68244946593313 8.365421072709418 -903.8030734661743
145.03526732206757 8.376649236998496 -914.1593790488467
136.96102317458963 7.946823580046324 -876.0731515730995
136.0920519320602 7.921085904436843 -882.6611504466538
136.19976397171175 7.9423877293497895 -894.6627286382644
136.52049540313567 7.9683815276032295 -907.4238773527115
136.22795113890132 7.951644399769243 -915.4607005727217
143.96494294073983 8.397165716578174 -977.3388530349744
142.82046452855334 8.318888289169093 -978.7401691060977
140.717386291492 8.180562405768192 -972.7573624789392
138.10678708031637 8.000630763928527 -962.3549263170958
132.68662477914188 7.665689549739348 -931.4351304782175
124.39878944758124 7.165389112306177 -879.1853022587808
114.90069490890576 6.597480747451118 -817.0886184055602
105.41388892328946 6.0334357076838 -753.8386320427652
96.6430461804896 5.51399804547936 -694.6151257580666
86.7276402885076 4.933221307294362 -626.1658951411143
77.23994206529684 4.380935923342632 -559.8895825633608
67.85334528552175 3.8383880798180803 -493.5541320646035
59.10850444018078 3.335831616005551 -431.21564947604935
90.63822697381276 0.7739006906131665 -31.07509772614702
59.095126413675 0.6966509299724514 -37.44286679541046
12.090717280170768 0.17732258891196873 -11.100994838651113
525.6321085973226 9.304731301944184 -629.210249614824
511.29032591323113 10.49309271678003 -751.288019973381
469.50482206962505 10.915433026653355 -814.6832437500976
407.6919587241358 10.512965944963812 -813.0745974769721
343.65772938934055 9.686683797552918 -772.0193708422927
306.78090058480376 9.360602588485195 -764.3063679710464
319.10135115585564 10.455975843602694 -870.810752692687
356.7589701885925 12.216144084847196 -1055.879168172314
353.69903483085113 12.760419736672988 -1125.2833929823407
320.3361964286512 12.134027157918151 -1087.969721135621
277.4601822787807 10.999702391377951 -1000.0987890354214
258.24315831351953 10.685229175798915 -982.9151985230051
244.35002501479136 10.526492071285018 -977.8095301401867
214.92386956036003 9.648888348242991 -900.467048714651
196.42048464238766 9.070776416959276 -858.7477025062713
165.16191451811423 7.834018890846016 -751.2153998898758
162.04439387004362 7.883796661943457 -764.6691012662419
155.84580098463078 7.7673986700922715 -761.0887111982631
156.90351927712373 8.001533207438834 -791.184004890709
160.71844683847397 8.376513398733037 -835.013453452844
148.3784081809408 7.876583180253441 -793.022858129643
154.6147026586386 8.336289527357625 -848.129117506191
154.35736936029 8.440292111726139 -867.5279982400547
151.4807189162767 8.388008524303588 -870.865678601506
149.27182706519454 8.358431678640528 -876.4827454633728
147.51065214683345 8.340712182533133 -883.3517346641347
146.3296494491218 8.343521775607636 -892.4783645756496
145.68244946593313 8.365421072709418 -903.8030734661743
145.03526732206757 8.376649236998496 -914.1593790488467
136.96102317458963 7.946823580046324 -876.0731515730995
136.0920519320602 7.921085904436843 -882.6611504466538
136.19976397171175 7.9423877293497895 -894.6627286382644
136.52049540313567 7.9683815276032295 -907.4238773527115
136.22795113890132 7.951644399769243 -915.4607005727217
143.96494294073983 8.397165716578174 -977.3388530349744
142.82046452855334 8.318888289169093 -978.7401691060977
140.717386291492 8.180562405768192 -972.7573624789392
138.10678708031637 8.000630763928527 -962.3549263170958
132.68662477914188 7.665689549739348 -931.4351304782175
124.39878944758124 7.165389112306177 -879.1853022587808
114.90069490890576 6.597480747451118 -817.0886184055602
105.41388892328946 6.0334357076838 -753.8386320427652
96.6430461804896 5.51399804547936 -694.6151257580666
86.7276402885076 4.933221307294362 -626.1658951411143
77.23994206529684 4.380935923342632 -559.8895825633608
67.85334528552175 3.8383880798180803 -493.5541320646035
59.10850444018078 3.335831616005551 -431.21564947604935

VECTORS L float
24.153797983943015 -0.7739006906132124 70.43126689277467
79.28545427214985 -0.6966509299725533 125.12125863809021
129.84195222709772 -0.17732258891212063 141.41533394078152
736.987727213565 -9.304731301944164 615.5300796166315
781.4698408252599 -10.493092716779776 531.6840598979575
916.8277522949917 -10.915433026653025 528.2248129355164
1062.0462160182624 -10.512965944963486 532.3954049903055
1116.5353108176978 -9.6866837975526 496.8944722683672
1169.2230969176042 -9.360602588484852 469.1936490442812
1347.6730759325962 -10.455975843602253 493.7180330929416
1667.8597659385196 -12.216144084846622 563.3927785208763
1827.554012913347 -12.760419736672347 574.2920105166656