# vtk DataFile Version 4.0
[MyVLM domain - lattices] 
ASCII
DATASET UNSTRUCTURED_GRID
POINTS 152 float
0.0 -2.2244301063855696 -0.31738683046912564
0.0 -4.035893192909085 1.0029597229297547
0.0 -5.792823691600248 2.3243926679718374
0.0 -7.522814191486264 3.614028437554981
0.0 -9.226085790652748 4.871603537241331
0.0 -10.878909351449016 6.125397252075256
0.0 -12.461628819415552 7.398834755575114
0.0 -13.96917059234934 8.69796253139374
0.0 -15.432474814661658 9.985907551273607
0.0 -16.86421015990271 11.247571877997865
0.0 -18.264217086304217 12.483145646042017
0.0 -19.632262106005477 13.692907115402898
0.0 -20.96808844359519 14.8771622990994
0.0 -22.269582890100512 16.03842962151682
0.0 -23.538155285933875 17.175028900278654
0.0 -24.776896043482054 18.283277125320364
0.0 -25.986265188350245 19.362626059474266
0.0 -27.165504639181915 20.41397914892052
0.0 -28.31406823949449 21.43798727760931
0.0 -29.431956146779147 22.434650257849984
0.0 -30.519168514321038 23.40396790696441
0.0 -31.57570549119931 24.345940047286962
0.0 -32.60156722228715 25.260566506164512
0.0 -33.59675384825172 26.147847115956463
0.0 -34.56126550555421 27.007781714034707
0.0 -35.49510232644979 27.840370142783673
0.0 -36.398264438987646 28.645612249600255
0.0 -37.27075196701098 29.423507886893912
0.0 -38.11256605671519 30.17405568868214
0.0 -38.923720923859996 30.89723871328222
0.0 -39.704219458251515 31.59305351675733
0.0 -40.45405962583645 32.2615025231978
0.0 -41.17323947250247 32.902588061424005
0.0 -41.86175712407821 33.51631236498643
0.0 -42.51961078633325 34.102677572165604
0.0 -43.146798744978135 34.66168572597214
0.0 -43.74304811571421 35.193662037249354
0.0 -44.30749598998835 35.699634880365466
0.0 -44.83877305161836 36.18123614280004
0.0 -45.33616696466854 36.63931475346358
0.0 -45.80017684370224 37.073275890782085
0.0 -46.23063937303568 37.483314186808414
0.0 -46.61998464878764 37.878451101688626
0.0 -46.96838451512997 38.25848183951355
0.0 -47.281570475901354 38.616575859992444
0.0 -47.56344838914783 38.9480783427668
0.0 -47.81500725966006 39.25181063782427
0.0 -48.035301588092196 39.52889954740702
0.0 -48.225160195156946 39.7783573214531
0.0 -48.38622507173337 39.99822711143338
0.0 -48.519917642761555 40.18681492906889
-0.7686761955390344 -0.1334899853109588 2.174498570720918
-0.8409029948616161 -1.7514084232678073 3.7255026543765073
-0.8940476007249757 -3.3627632779016863 5.2204258962180745
-0.9506443374492793 -4.937429492043127 6.695169941354446
-1.0210144815146838 -6.476334433116271 8.148629596326238
-1.048631451549771 -7.999095783934191 9.557425417162602
-0.9920275022819518 -9.51908413526514 10.905622954280366
-0.9074715353829097 -11.049200155463273 12.177847789821596
-0.8388231939293685 -12.563655601294029 13.40483315530778
-0.7803448823218929 -14.049352071174443 14.602189117882656
-0.7251531968841737 -15.504856738851862 15.771623253380374
-0.671766762046156 -16.928145882700544 16.915547339318838
-0.6188683613166902 -18.32193797495907 18.030721626641352
-0.5668565661826578 -19.68712578085708 19.116082159178138
-0.5162677046190278 -21.02317103251617 20.172270419607074
-0.4681223452427161 -22.326454287310323 21.203599891680895
-0.42442582165628834 -23.596559013936353 22.210566978076592
-0.3846819074085718 -24.834246046521244 23.192264951989998
-0.3476243488905531 -26.039998024841132 24.148118625733936
-0.3131098246080671 -27.21378007354655 25.078169562131453
-0.28048746260446866 -28.355532977085947 25.982488331528828
-0.2502235469699514 -29.465264305423773 26.861065912393748
-0.2227998260917326 -30.542973760651225 27.713902659760077
-0.19746739264611052 -31.588603448516153 28.541067569310833
-0.17533279734900953 -32.60217644512625 29.342533140011756
-0.15613374469432648 -33.58365511112275 30.11834422870386
-0.13998404755873647 -34.53301933623854 30.868524801870265
-0.12578653595324127 -35.45021602094203 31.593138141068486
-0.11250427274737486 -36.33520602481544 32.29223089203202
-0.10008179164308317 -37.18798165328952 32.96581222479144
-0.08845752889585208 -38.00853731411188 33.613888803933605
-0.07764231497362577 -38.79687008164622 34.23646411609607
-0.06766212708627829 -39.552977139205694 34.83354151807553
-0.0584684819534103 -40.27685429926971 35.40512600036468
-0.050013688763705585 -40.968497777527475 35.951222072929504
-0.042252254921319045 -41.62790418929064 36.47183376948451
-0.03513536582041269 -42.25528219435733 36.96671241896565
-0.028615518964613278 -42.851303300134 37.43505775000881
-0.022687693716904638 -43.4177726038223 37.874718531538974
-0.017408965386693863 -43.95562377724412 38.28458205680809
-0.013252482528008399 -44.46333721818171 38.666459317218475
-0.010166684094042405 -44.940990565590894 39.02025778626558
-0.00760098697125575 -45.39755449136525 39.33528663349227
-0.005464879873870877 -45.83305828195439 39.611510956667
-0.0039015967321000085 -46.2407414590346 39.8569875801197
-0.002883995165670249 -46.61612935242248 40.077049208117124
-0.0022477517166190047 -46.95842974544043 40.27263996773093
-0.00179874084072329 -47.26934044470799 40.44173649182272
-0.0014595970466816986 -47.54818297526019 40.5851473553695
-0.0012027506489664258 -47.79316353798638 40.70501032490579
-0.0010073243559101815 -48.00272930391831 40.80317598993316
-0.603592196400244 -1.4893773156288685 2.2981970709691133
-0.6506064733449719 -3.146403998502226 3.7706422553356673
-0.6917594768153456 -4.777027024115119 5.210651077280547
-0.7393720571114861 -6.3737739697021505 6.6271288234797945
-0.7761172248991705 -7.9414107241566425 8.014395728722889
-0.7652471076868961 -9.48688474105782 9.364172140247408
-0.712312139124323 -11.016956535493767 10.668401189909343
-0.6548605234921042 -12.530026584660364 11.928989114756934
-0.607188028594223 -14.01696349899622 13.156818281105348
-0.564561779702275 -15.47388170953573 14.35651932972862
-0.5238449845988737 -16.899435882120866 15.52969556744282
-0.48398817126106725 -18.293825265322436 16.676109539047857
-0.4446468478122555 -19.658107825143016 17.794500409759333
-0.4061716015506322 -20.992328577019272 18.88481453226889
-0.369146268698154 -22.295490911111923 19.948239619932863
-0.3347055625871267 -23.566525141946542 20.986050474258388
-0.3034153983993225 -24.80552312611312 21.99813762482432
-0.27461484611217185 -26.012788136595436 22.984139644962703
-0.24777531506198255 -27.188419835179584 23.943937762381935
-0.22259898270470088 -28.332382976624707 24.877573980724407
-0.19901662859040753 -29.44465823163119 25.785071335752384
-0.1773837648981315 -30.52524836396394 26.66642653373912
-0.15760020702669117 -31.574131587255135 27.521665538666714
-0.13980007124817 -32.591294879341646 28.350803869744865
-0.124299953266251 -33.576732812593875 29.15384799537065
-0.11104417209489861 -34.53042376344016 29.930823685513285
-0.09966396881699166 -35.45234030969254 30.6817636206638
-0.08935905326273105 -36.34244802012481 31.406708834359694
-0.07971977414642176 -37.20073125186126 32.10567796905434
-0.07070224520210072 -38.027187160539455 32.77867441452683
-0.06228744145105419 -38.82181265892027 33.425701850005524
-0.05448916577246402 -39.58460509511183 34.046763435892075
-0.04729897838988322 -40.315561364000864 34.64186287271638
-0.04068081401891846 -41.014678017600374 35.21100426962932
-0.03459972888188424 -41.68195192897072 35.75419135317247
-0.029020357778149403 -42.31742575145453 36.27137329107149
-0.023906581794384738 -42.921287573647064 36.76232592806727
-0.019238704755569217 -43.494187094184454 37.22627498347611
-0.015036247163849435 -44.03689114493577 37.662306582663106
-0.011498042968013347 -44.54915334933103 38.07071434579067
-0.00878218748326905 -45.03047494600696 38.452092673505334
-0.006662876649486808 -45.48328239908647 38.80354981847132
-0.004899700066922485 -45.91002593548457 39.122165713959994
-0.0035124287272390825 -46.30891927674978 39.41006916373326
-0.0025445969616638467 -46.67695391242756 39.670845570933714
-0.0019244050808584702 -47.01276661779958 39.9061195635169
-0.0015174347090033604 -47.31670242727469 40.11547994548653
-0.0012218767077768707 -47.58912900539421 40.298488551304594
-0.0009983803858680466 -47.82942810082874 40.45588218421404
-0.0008287781268287279 -48.03672765502613 40.58870012312738

CELLS 100 350
4 0 51 52 1
4 1 52 53 2
4 2 53 54 3
4 3 54 55 4
4 4 55 56 5
4 5 56 57 6
4 6 57 58 7
4 7 58 59 8
4 8 59 60 9
4 9 60 61 10
4 10 61 62 11
4 11 62 63 12
4 12 63 64 13
4 13 64 65 14
4 14 65 66 15
4 15 66 67 16
4 16 67 68 17
4 17 68 69 18
4 18 69 70 19
4 19 70 71 20
4 20 71 72 21
4 21 72 73 22
4 22 73 74 23
4 23 74 75 24
4 24 75 76 25
4 25 76 77 26
4 26 77 78 27
4 27 78 79 28
4 28 79 80 29
4 29 80 81 30
4 30 81 82 31
4 31 82 83 32
4 32 83 84 33
4 33 84 85 34
4 34 85 86 35
4 35 86 87 36
4 36 87 88 37
4 37 88 89 38
4 38 89 90 39
4 39 90 91 40
4 40 91 92 41
4 41 92 93 42
4 42 93 94 43
4 43 94 95 44
4 44 95 96 45
4 45 96 97 46
4 46 97 98 47
4 47 98 99 48
4 48 99 100 49
4 49 100 101 50
1 102
1 103
1 104
1 105
1 106
1 107
1 108
1 109
1 110
1 111
1 112
1 113
1 114
1 115
1 116
1 117
1 118
1 119
1 120
1 121
1 122
1 123
1 124
1 125
1 126
1 127
1 128
1 129
1 130
1 131
1 132
1 133
1 134
1 135
1 136
1 137
1 138
1 139
1 140
1 141
1 142
1 143
1 144
1 145
1 146
1 147
1 148
1 149
1 150
1 151

CELL_TYPES 100
9
9
9
9
9
9
9
9
9
9
9
9
9
9
9
9
9
9
9
9
9
9
9
9
9
9
9
9
9
9
9
9
9
9
9
9
9
9
9
9
9
9
9
9
9
9
9
9
9
9
1
1
1
1
1
1
1
1
1
1
1
1
1
1
1
1
1
1
1
1
1
1
1
1
1
1
1
1
1
1
1
1
1
1
1
1
1
1
1
1
1
1
1
1
1
1
1
1
1
1

CELL_DATA 100

VECTORS S float
1.510723016933528e-17 2.3175470591755075e-15 -2.6926793131822723e-15
-4.118948492450434e-17 -4.617390169915133e-15 5.400473069949291e-15
-1.0355321767724637e-16 -9.22142098565463e-15 1.0812172005338064e-14
0.0 -0.0 0.0
-3.846487708311791e-17 9.305814282758268e-15 -1.07400527337915e-14
1.7620569841844587e-16 -3.7186530627398304e-14 4.299191969701606e-14
0.0 -0.0 0.0
0.0 -0.0 0.0
0.0 -0.0 0.0
-8.042641061723454e-17 1.8540064281263052e-14 -2.15418920939045e-14
0.0 -0.0 0.0
0.0 -0.0 0.0
0.0 -0.0 0.0
0.0 -0.0 0.0
0.0 -0.0 0.0
0.0 -0.0 0.0
6.341282660933827e-17 -1.849659791770377e-14 2.157928199061623e-14
0.0 -0.0 0.0
-5.562940182352511e-17 1.848899382511186e-14 -2.1585818947886698e-14
-1.0647075500214952e-16 3.6971626861134634e-14 -4.317709738975771e-14
-5.1357965671952416e-17 1.8482925758668467e-14 -2.159102555936674e-14
0.0 -0.0 0.0
-4.593593834019665e-17 1.84774567134289e-14 -2.159571833117033e-14
4.40038058815641e-17 -1.8472702499090167e-14 2.159978918858913e-14
4.2775241786400156e-17 -1.8470290809478082e-14 2.1601853962989276e-14
3.996900042483086e-17 -1.8467719048046734e-14 2.160405801204331e-14
0.0 -0.0 0.0
0.0 -0.0 0.0
7.156466291830308e-17 -3.692147273817711e-14 4.3220064751551803e-14
0.0 -0.0 0.0
0.0 -0.0 0.0
-3.2909261936710806e-17 1.845477359690878e-14 -2.1615129317532045e-14
3.235369755686844e-17 -1.845242916938863e-14 2.1617131584307527e-14
0.0 -0.0 0.0
0.0 -0.0 0.0
-5.986809396454042e-17 3.688955195764704e-14 -4.3247331015458606e-14
0.0 -0.0 0.0
-5.736238010945111e-17 3.6880655868026e-14 -4.3254921108318437e-14
2.807404849001109e-17 -1.843816419029693e-14 2.1629306047253797e-14
-2.749566574434626e-17 1.8436058970713786e-14 -2.163110123324851e-14
2.7188803411618288e-17 -1.843405144210422e-14 2.1632812464983383e-14
-5.3033492121956015e-17 3.6864160459256494e-14 -4.3268985761953883e-14
0.0 -0.0 0.0
2.5231458465086458e-17 -1.8428413763046147e-14 2.1637617625279158e-14
4.962351597657985e-17 -3.685353187808122e-14 4.327804285550789e-14
2.4704310321777377e-17 -1.8425273183820484e-14 2.1640292621518624e-14
-4.866843218489066e-17 3.6847762531581306e-14 -4.32829561789068e-14
0.0 -0.0 0.0
1.194463457823272e-17 -9.211147940482642e-15 1.0821414079538135e-14
0.0 -0.0 0.0
1.510723016933528e-17 2.3175470591755075e-15 -2.6926793131822723e-15
-4.118948492450434e-17 -4.617390169915133e-15 5.400473069949291e-15
-1.0355321767724637e-16 -9.22142098565463e-15 1.0812172005338064e-14
0.0 -0.0 0.0
-3.846487708311791e-17 9.305814282758268e-15 -1.07400527337915e-14
1.7620569841844587e-16 -3.7186530627398304e-14 4.299191969701606e-14
0.0 -0.0 0.0
0.0 -0.0 0.0
0.0 -0.0 0.0
-8.042641061723454e-17 1.8540064281263052e-14 -2.15418920939045e-14
0.0 -0.0 0.0
0.0 -0.0 0.0
0.0 -0.0 0.0
0.0 -0.0 0.0
0.0 -0.0 0.0
0.0 -0.0 0.0
6.341282660933827e-17 -1.849659791770377e-14 2.157928199061623e-14
0.0 -0.0 0.0
-5.562940182352511e-17 1.848899382511186e-14 -2.1585818947886698e-14
-1.0647075500214952e-16 3.6971626861134634e-14 -4.317709738975771e-14
-5.1357965671952416e-17 1.8482925758668467e-14 -2.159102555936674e-14
0.0 -0.0 0.0
-4.593593834019665e-17 1.84774567134289e-14 -2.159571833117033e-14
4.40038058815641e-17 -1.8472702499090167e-14 2.159978918858913e-14
4.2775241786400156e-17 -1.8470290809478082e-14 2.1601853962989276e-14
3.996900042483086e-17 -1.8467719048046734e-14 2.160405801204331e-14
0.0 -0.0 0.0
0.0 -0.0 0.0
7.156466291830308e-17 -3.692147273817711e-14 4.3220064751551803e-14
0.0 -0.0 0.0
0.0 -0.0 0.0
-3.2909261936710806e-17 1.845477359690878e-14 -2.1615129317532045e-14
3.235369755686844e-17 -1.845242916938863e-14 2.1617131584307527e-14
0.0 -0.0 0.0
0.0 -0.0 0.0
-5.986809396454042e-17 3.688955195764704e-14 -4.3247331015458606e-14
0.0 -0.0 0.0
-5.736238010945111e-17 3.6880655868026e-14 -4.3254921108318437e-14
2.807404849001109e-17 -1.843816419029693e-14 2.1629306047253797e-14
-2.749566574434626e-17 1.8436058970713786e-14 -2.163110123324851e-14
2.7188803411618288e-17 -1.843405144210422e-14 2.1632812464983383e-14
-5.3033492121956015e-17 3.6864160459256494e-14 -4.3268985761953883e-14
0.0 -0.0 0.0
2.5231458465086458e-17 -1.8428413763046147e-14 2.1637617625279158e-14
4.962351597657985e-17 -3.685353187808122e-14 4.327804285550789e-14
2.4704310321777377e-17 -1.8425273183820484e-14 2.1640292621518624e-14
-4.866843218489066e-17 3.6847762531581306e-14 -4.32829561789068e-14
0.0 -0.0 0.0
1.194463457823272e-17 -9.211147940482642e-15 1.0821414079538135e-14
0.0 -0.0 0.0

SCALARS Gamma float
LOOKUP_TABLE default
-0.0
-0.0
-0.0
51.88741095845452
55.78553724942435
55.75254242334056
53.41147108379847
48.568646441746395
45.361198261454525
48.156457113895186
55.0119010597521
55.70525725380788
52.01918663017994
47.23376773153219
46.23365966741323
45.45015697616193
41.86907608201371
39.67408522591012
34.967753305339045
35.36318512099746
34.794346635234284
36.316108556493674
37.83116261563923
35.678175695148916
37.73345886639831
39.01888986894644
39.10357417595595
39.18994379851963
39.37974215796507
39.61480479165872
39.93044087720487
40.21138276218263
38.179131651865255
38.48045656599634
38.7818073849039
39.074302646860346
39.31151071685278
41.66242730948358
41.56408074002027
41.16942539034908
40.41919399058587
39.15796022189372
37.07468462075816
34.400500517557155
31.694345893582742
29.010094120192996
26.131676695924284
23.347370894774343
20.54574735724571
17.94920413029003
-0.0
-0.0
-0.0
51.88741095845452
55.78553724942435
55.75254242334056
53.41147108379847
48.568646441746395
45.361198261454525
48.156457113895186
55.0119010597521
55.70525725380788
52.01918663017994
47.23376773153219
46.23365966741323
45.45015697616193
41.86907608201371
39.67408522591012
34.967753305339045
35.36318512099746
34.794346635234284
36.316108556493674
37.83116261563923
35.678175695148916
37.73345886639831
39.01888986894644
39.10357417595595
39.18994379851963
39.37974215796507
39.61480479165872
39.93044087720487
40.21138276218263
38.179131651865255
38.48045656599634
38.7818073849039
39.074302646860346
39.31151071685278
41.66242730948358
41.56408074002027
41.16942539034908
40.41919399058587
39.15796022189372
37.07468462075816
34.400500517557155
31.694345893582742
29.010094120192996
26.131676695924284
23.347370894774343
20.54574735724571
17.94920413029003

VECTORS Ftot float
117.70237842252922 -30.59413635075621 -25.671528528106975
141.57294368177728 -67.92035934947062 -56.99194847956917
144.77151686151888 -100.66078741690968 -84.46442959554359
1302.2098654225144 7.598411191283382 6.375824028139209
1329.866157446611 174.08500936561802 146.07466715218357
1423.3775443235104 225.54066550068467 189.251089237103
1502.6764417911927 218.74546641415367 183.54924018981862
1489.1027198285813 213.25767208781517 178.9444339946112
1499.4325862152343 227.87678174767908 191.21132351834322
1698.7337509461265 294.2746469223278 246.92574769734978
2070.319048528104 385.8340802927683 323.7532344692873
2232.591925333639 430.0315982231461 360.8393554636185
2210.9526833590267 436.6393004279401 366.3838759465904
2129.04895162228 405.31860127677356 340.102688840632
2204.0955513568438 394.459799024952 330.99107187610156
2279.21303283097 393.5795690966037 330.25247126787326
2203.605860672346 358.8237880723262 301.08890822912366
2182.3174152299166 342.01506542597383 286.9847152560082
2006.257006067328 296.5577636688419 248.84151011728446
2108.2211520433157 302.6178809099835 253.92655225921746
2149.809747299444 301.7452730173004 253.1943472983047
2323.9783594023593 305.5021909233375 256.3467757276237
2498.4495317751653 321.9339468693857 270.13465608154786
2427.4065258458677 306.6515542867492 257.31120610195114
2639.9028970035247 328.0883905547189 275.29884750801233
2805.6406454542357 330.05066059291863 276.94538757333595
2883.396353983391 329.1355294762199 276.1775013908352
2958.6222905869618 330.4016620547048 277.2399127704634
3039.8225625580826 331.85834146954335 278.46221193019795
3122.8010726143752 334.2874304380112 280.50045958773615
3210.2025226473797 337.9860148231755 283.6039403812055
3293.2455459774333 341.320363033285 286.40179073452504
3181.1293249318373 328.2954694288291 275.4726073149028
3259.581919108473 329.6764540474257 276.63139099902867
3335.9141178899536 334.2577146894514 280.47552511407946
3409.6139680630636 339.79700671124743 285.12354300655176
3477.2762496028054 341.89040303559295 286.88011109021795
3731.7423027792324 365.6251001757156 306.79588670659933
3767.144529793001 365.9209144702929 307.04410437207616
3772.606805083953 363.4433643217272 304.9651929561914
3741.237640950835 360.75130003936073 302.70628280975217
3659.194952206166 348.2953581816589 292.25450659098897
3495.4531344273396 326.38448045591576 273.86909717254736
3269.2572903686423 302.9346335141012 254.19233925250708
3033.939601424789 279.3523754857784 234.4044752386139
2794.6679647774813 258.66368409747236 217.0446019251457
2532.156878747324 232.93849985506782 195.4586093153765
2274.1280997794365 207.84951551082563 174.40645180551027
2010.2023398533963 183.42637777370717 153.9130059381023
1762.9282765740304 160.09027338731957 134.33168935436993
117.70237842252922 -30.59413635075621 -25.671528528106975
141.57294368177728 -67.92035934947062 -56.99194847956917
144.77151686151888 -100.66078741690968 -84.46442959554359
1302.2098654225144 7.598411191283382 6.375824028139209
1329.866157446611 174.08500936561802 146.07466715218357
1423.3775443235104 225.54066550068467 189.251089237103
1502.6764417911927 218.74546641415367 183.54924018981862
1489.1027198285813 213.25767208781517 178.9444339946112
1499.4325862152343 227.87678174767908 191.21132351834322
1698.7337509461265 294.2746469223278 246.92574769734978
2070.319048528104 385.8340802927683 323.7532344692873
2232.591925333639 430.0315982231461 360.8393554636185
2210.9526833590267 436.6393004279401 366.3838759465904
2129.04895162228 405.31860127677356 340.102688840632
2204.0955513568438 394.459799024952 330.99107187610156
2279.21303283097 393.5795690966037 330.25247126787326
2203.605860672346 358.8237880723262 301.08890822912366
2182.3174152299166 342.01506542597383 286.9847152560082
2006.257006067328 296.5577636688419 248.84151011728446
2108.2211520433157 302.6178809099835 253.92655225921746
2149.809747299444 301.7452730173004 253.1943472983047
2323.9783594023593 305.5021909233375 256.3467757276237
2498.4495317751653 321.9339468693857 270.13465608154786
2427.4065258458677 306.6515542867492 257.31120610195114
2639.9028970035247 328.0883905547189 275.29884750801233
2805.6406454542357 330.05066059291863 276.94538757333595
2883.396353983391 329.1355294762199 276.1775013908352
2958.6222905869618 330.4016620547048 277.2399127704634
3039.8225625580826 331.85834146954335 278.46221193019795
3122.8010726143752 334.2874304380112 280.50045958773615
3210.2025226473797 337.9860148231755 283.6039403812055
3293.2455459774333 341.320363033285 286.40179073452504
3181.1293249318373 328.2954694288291 275.4726073149028
3259.581919108473 329.6764540474257 276.63139099902867
3335.9141178899536 334.2577146894514 280.47552511407946
3409.6139680630636 339.79700671124743 285.12354300655176
3477.2762496028054 341.89040303559295 286.88011109021795
3731.7423027792324 365.6251001757156 306.79588670659933
3767.144529793001 365.9209144702929 307.04410437207616
3772.606805083953 363.4433643217272 304.9651929561914
3741.237640950835 360.75130003936073 302.70628280975217
3659.194952206166 348.2953581816589 292.25450659098897
3495.4531344273396 326.38448045591576 273.86909717254736
3269.2572903686423 302.9346335141012 254.19233925250708
3033.939601424789 279.3523754857784 234.4044752386139
2794.6679647774813 258.66368409747236 217.0446019251457
2532.156878747324 232.93849985506782 195.4586093153765
2274.1280997794365 207.84951551082563 174.40645180551027
2010.2023398533963 183.42637777370717 153.9130059381023
1762.9282765740304 160.09027338731957 134.33168935436993

VECTORS D float
93.39181708463305 23.764556203434367 20.97775577729435
61.79811621060116 29.18740001178129 25.426484809244393
13.980886265881587 9.590042612459952 8.31300000724153
547.3850860925928 490.0095164563331 423.6685384134897
533.557087719969 586.8663670738754 506.58468332024984
488.6028512122713 635.4438614023849 547.6344897671327
422.2603454153276 631.3956978838982 543.5421200998635
354.8948356163199 597.9809579332339 514.2928841353258
315.55783332036094 589.8752393714695 506.92970392502514
330.0264883398369 675.9788472427741 580.5501383199338
370.29562706781826 822.9439968480679 705.9338718457756
366.71546172951594 876.1521223092219 751.320338976789
335.74089023971857 856.454538835933 734.1836770595471
292.79629034326075 792.7688145475717 679.3714606769778
272.98795822352514 780.5427276897291 668.6890068022791
258.7772830486249 777.9200437920458 666.2483651507714
228.00828030991096 717.8562620750569 614.6376880626028
208.690146012161 685.7810461221766 587.0218671549591
176.3497853438049 603.0236287439608 516.0559320017754
173.30470956576283 614.9736818151958 526.1614833702498
166.37162562376614 611.1270882997319 522.7575717921868
166.46662968748203 631.5309175988031 540.1016614654261
169.68435851012427 663.4507928254257 567.292483992504
156.92380469626346 630.7160459486564 539.085105502946
163.00315182739251 672.5404937235162 574.7213189322919
162.92498557302181 688.8579386011479 588.5525264835395
159.67843166376474 690.7101680718741 590.0226283857002
157.18845212359946 694.5585607876094 593.1969571432635
155.21367431718096 699.5654628895632 597.3586458228862
153.73067852150203 705.8525317462734 602.67553808942
152.89521424190528 714.1779806279317 609.6560459503867
152.0761575183563 721.8011952137804 616.0348490141128
143.4125082382072 690.8828355749337 589.5244062873967
142.6510328937664 696.7624713939291 594.3780611229239
142.61700436752477 705.6161909208521 601.8095825032585
142.8495837544471 715.265210403856 609.9165056210966
142.41687892882732 721.0559237479058 614.7316510379127
150.28042995623085 768.7415960054558 655.2566294038947
148.98124238825244 769.3985387848646 655.6897409599336
146.69934937025116 764.3266026457269 651.2445469643419
143.79726943849997 755.3310508164527 643.4624158745476
138.2578316775832 731.6968627249631 623.219097571536
129.5780325091113 690.491584858228 588.0239547992797
119.64667272618857 641.5843632565626 546.2876484206547
109.77871842423302 592.0334424742596 504.0217694675994
100.59466742132848 545.2979527761961 464.1701847696117
90.2724363900583 491.59428268539796 418.40386080541
80.34713880327749 439.3207870441352 373.8707769008855
70.60810506553906 387.387366184961 329.6647670969254
61.51119580404711 338.49116662921534 288.028524661036
93.39181708463305 23.764556203434367 20.97775577729435
61.79811621060116 29.18740001178129 25.426484809244393
13.980886265881587 9.590042612459952 8.31300000724153
547.3850860925928 490.0095164563331 423.6685384134897
533.557087719969 586.8663670738754 506.58468332024984
488.6028512122713 635.4438614023849 547.6344897671327
422.2603454153276 631.3956978838982 543.5421200998635
354.8948356163199 597.9809579332339 514.2928841353258
315.55783332036094 589.8752393714695 506.92970392502514
330.0264883398369 675.9788472427741 580.5501383199338
370.29562706781826 822.9439968480679 705.9338718457756
366.71546172951594 876.1521223092219 751.320338976789
335.74089023971857 856.454538835933 734.1836770595471
292.79629034326075 792.7688145475717 679.3714606769778
272.98795822352514 780.5427276897291 668.6890068022791
258.7772830486249 777.9200437920458 666.2483651507714
228.00828030991096 717.8562620750569 614.6376880626028
208.690146012161 685.7810461221766 587.0218671549591
176.3497853438049 603.0236287439608 516.0559320017754
173.30470956576283 614.9736818151958 526.1614833702498
166.37162562376614 611.1270882997319 522.7575717921868
166.46662968748203 631.5309175988031 540.1016614654261
169.68435851012427 663.4507928254257 567.292483992504
156.92380469626346 630.7160459486564 539.085105502946
163.00315182739251 672.5404937235162 574.7213189322919
162.92498557302181 688.8579386011479 588.5525264835395
159.67843166376474 690.7101680718741 590.0226283857002
157.18845212359946 694.5585607876094 593.1969571432635
155.21367431718096 699.5654628895632 597.3586458228862
153.73067852150203 705.8525317462734 602.67553808942
152.89521424190528 714.1779806279317 609.6560459503867
152.0761575183563 721.8011952137804 616.0348490141128
143.4125082382072 690.8828355749337 589.5244062873967
142.6510328937664 696.7624713939291 594.3780611229239
142.61700436752477 705.6161909208521 601.8095825032585
142.8495837544471 715.265210403856 609.9165056210966
142.41687892882732 721.0559237479058 614.7316510379127
150.28042995623085 768.7415960054558 655.2566294038947
148.98124238825244 769.3985387848646 655.6897409599336
146.69934937025116 764.3266026457269 651.2445469643419
143.79726943849997 755.3310508164527 643.4624158745476
138.2578316775832 731.6968627249631 623.219097571536
129.5780325091113 690.491584858228 588.0239547992797
119.64667272618857 641.5843632565626 546.2876484206547
109.77871842423302 592.0334424742596 504.0217694675994
100.59466742132848 545.2979527761961 464.1701847696117
90.2724363900583 491.59428268539796 418.40386080541
80.34713880327749 439.3207870441352 373.8707769008855
70.60810506553906 387.387366184961 329.6647670969254
61.51119580404711 338.49116662921534 288.028524661036

VECTORS L float
24.310561337896157 -54.358692554190576 -46.64928430540132
79.7748274711761 -97.1077593612519 -82.41843328881357
130.7906305956373 -110.25083002936965 -92.77742960278516
754.8247793299216 -482.41110526504974 -417.29271438535056
796.309069726642 -412.7813577082574 -360.5100161680663
934.7746931112393 -409.9031959017003 -358.3834005300297
1080.4160963758652 -412.6502314697444 -359.99287991004473
1134.207884212262 -384.72328584541884 -335.34845014071476
1183.8747528948734 -361.99845762379056 -315.71838040668194
1368.70726260629 -381.70420032044615 -333.62439062258386
1700.0234214602858 -437.1099165552996 -382.1806373764884
1865.8764636041233 -446.12052408607553 -390.48098351317026
1875.2117931193081 -419.81523840799287 -367.7998011129567
1836.2526612790193 -387.45021327079814 -339.2687718363457
1931.1075931333191 -386.0829286647773 -337.6979349261776
2020.4357497823453 -384.34047469544186 -335.99589388289786
1975.5975803624347 -359.03247400273057 -313.54877983347916
1973.6272692177556 -343.76598069620275 -300.03715189895087
1829.9072207235229 -306.4658650751189 -267.21442188449106
1934.9164424775527 -312.3558009052124 -272.23493111103244
1983.4381216756783 -309.38181528243155 -269.56322449388216
2157.511729714877 -326.0287266754656 -283.7548857378024
2328.765173265041 -341.51684595603996 -297.15782791095614
2270.4827211496045 -324.06449166190725 -281.77389940099494
2476.899745176132 -344.4521031687973 -299.4224714242795
2642.715659881214 -358.8072780082296 -311.60713891020373
2723.7179223196263 -361.57463859565433 -313.84512699486504
2801.4338384633625 -364.1568987329048 -315.9570443728002
2884.6088882409017 -367.70712142001975 -318.8964338926882
2969.0703940928734 -371.5651013082621 -322.1750785016839
3057.307308405475 -376.1919658047563 -326.0521055691811
3141.1693884590773 -380.4808321804955 -329.6330582795878
3037.7168166936303 -362.58736614610467 -314.0517989724939
3116.9308862147072 -367.08601734650347 -317.74667012389517
3193.297113522429 -371.3584762314005 -321.33405738917895
3266.764384308617 -375.468203692609 -324.79296261454505
3334.8593706739784 -379.165520712313 -327.8515399476949
3581.461872823001 -403.11649582973996 -348.46074269729525
3618.1632874047477 -403.47762431457153 -348.6456365878572
3625.9074557137014 -400.88323832399965 -346.27935400815056
3597.4403715123344 -394.5797507770917 -340.7561330647953
3520.937120528584 -383.40150454330416 -330.964590980547
3365.875101918228 -364.107104402312 -314.15485762673234
3149.6106176424546 -338.64972974246126 -292.0953091681475
2924.160883000556 -312.6810669884812 -269.6172942289854
2694.0732973561535 -286.6342686787239 -247.12558284446604
2441.884442357266 -258.65578283033005 -222.94525149003343
2193.7809609761593 -231.47127153330948 -199.46432509537516
1939.5942347878574 -203.96098841125388 -175.7517611588232
1701.4170807699836 -178.4008932418958 -153.6968353066661
24.310561337896157 -54.358692554190576 -46.64928430540132
79.7748274711761 -97.1077593612519 -82.41843328881357
130.7906305956373 -110.25083002936965 -92.77742960278516
754.8247793299216 -482.41110526504974 -417.29271438535056
796.309069726642 -412.7813577082574 -360.5100161680663
934.7746931112393 -409.9031959017003 -358.3834005300297
1080.4160963758652 -412.6502314697444 -359.99287991004473
1134.207884212262 -384.72328584541884 -335.34845014071476