# vtk DataFile Version 4.0
[MyVLM domain - lattices] 
ASCII
DATASET UNSTRUCTURED_GRID
POINTS 152 float
0.0 0.07370322297134457 2.2457496595287165
0.0 1.6885480093072265 3.8004167785459626
0.0 3.2949931980555927 5.301191132345016
0.0 4.865446200189242 6.78095628802802
0.0 6.399685917622554 8.239975740032826
0.0 7.921441488006215 9.649970203315068
0.0 9.450368965799743 10.987514504356387
0.0 10.991541953206156 12.246562159503947
0.0 12.514020305814167 13.463986197015277
0.0 14.00513535007358 14.654884554107227
0.0 15.465046627752667 15.81906709630429
0.0 16.893987626712143 16.956255563609638
0.0 18.292215122363295 18.066143943004366
0.0 19.66184232367897 19.1462138101032
0.0 21.001459390246744 20.19814534728262
0.0 22.30797590967983 21.225621564607174
0.0 23.580931856373027 22.229190699244544
0.0 24.821085311682904 23.207949305014576
0.0 26.028982432091993 24.161246497967085
0.0 27.20462306010914 25.089082465792718
0.0 28.348007042449186 25.991457391169607
0.0 29.459134230032973 26.868371451763384
0.0 30.538004477987332 27.719824820227164
0.0 31.58461764564509 28.545817664201557
0.0 32.59897359654507 29.346350146314666
0.0 33.58107219843209 30.121422424182068
0.0 34.53091332325696 30.871034650406852
0.0 35.44849684717651 31.595186972579576
0.0 36.3338216239953 32.29388075668275
0.0 37.18687343795362 32.96713294439908
0.0 38.00764939924538 33.61494697966538
0.0 38.79615154192385 34.23732043839134
0.0 39.55238182010136 34.83425099175657
0.0 40.27634210794929 35.40573640621059
0.0 40.96803419969805 35.95177454347287
0.0 41.6274598096371 36.47236336053279
0.0 42.2548918220651 36.96717764654706
0.0 42.85119314553516 37.435189027147416
0.0 43.417733096229476 37.87476561485435
0.0 43.95522401008378 38.28505848075731
0.0 44.46316677253469 38.66666244643032
0.0 44.94172469926598 39.01938287982052
0.0 45.398467694158896 39.334198320781844
0.0 45.83322391304157 39.61131356522346
0.0 46.24026185207533 39.85755915343612
0.0 46.61567565321412 40.077589905778325
0.0 46.958476311667305 40.27258447226242
0.0 47.26960932678069 40.44141605064626
0.0 47.54824587784161 40.58507239099176
0.0 47.79274397397099 40.705510341828095
0.0 48.001682190228756 40.804423891434205
-0.7686761955390344 2.164643344045952 -0.24613574166131377
-0.8409029948616161 3.9730327789485003 1.077873847099225
-0.8940476007249757 5.72505361175415 2.405157904098794
-0.9506443374492793 7.450830899632374 3.699814784228572
-1.0210144815146838 9.149437275159025 4.962949680947936
-1.048631451549771 10.801255055521036 6.217942038227738
-0.9920275022819518 12.39291364995015 7.480726305651153
-0.9074715353829097 13.911512390092216 8.766676901076108
-0.8388231939293685 15.382839519181795 10.045060592981121
-0.7803448823218929 16.819993438801845 11.300267314222454
-0.7251531968841737 18.22440697520502 12.530589488965948
-0.671766762046156 19.59810385001707 13.733615339693708
-0.6188683613166902 20.938365590999407 14.912584615462432
-0.5668565661826578 22.244299432922396 16.068561272441894
-0.5162677046190278 23.51644364366444 17.200903827954217
-0.4681223452427161 24.758417665851557 18.305298798246657
-0.42442582165628834 25.970638030786915 19.381249780642232
-0.3846819074085718 27.15234390434357 20.429663501945114
-0.3476243488905531 28.303052646745346 21.451115149842472
-0.3131098246080671 29.422799133341734 22.44556316151126
-0.28048746260446866 30.511642579684263 23.412936966605205
-0.2502235469699514 31.569575415808504 24.353245586656612
-0.2227998260917326 32.59659793962325 25.266488666631613
-0.19746739264611052 33.59276804538066 26.1525972108472
-0.17533279734900953 34.558062656973036 27.01159872033763
-0.15613374469432648 35.492519413759126 27.843448338261883
-0.13998404755873647 36.39615842600607 28.648122098136852
-0.12578653595324127 37.26903279324545 29.425556718405023
-0.11250427274737486 38.11118165589504 30.175705553332882
-0.10008179164308317 38.9226127085241 30.89855943288987
-0.08845752889585208 39.70333154338502 31.59411169248911
-0.07764231497362577 40.45334108611408 32.26235884549308
-0.06766212708627829 41.17264415339814 32.90329753510506
-0.0584684819534103 41.86124493275779 33.51692277083235
-0.050013688763705585 42.519147208503824 34.10323004270898
-0.042252254921319045 43.1463543653246 34.66221531702043
-0.03513536582041269 43.74265774342197 35.19412726483077
-0.028615518964613278 44.3073858353895 35.69976615750409
-0.022687693716904638 44.83873354402554 36.18128322611541
-0.017408965386693863 45.33576719750819 36.6397911774128
-0.013252482528008399 45.80000639805522 37.07347901999394
-0.010166684094042405 46.23137350671077 37.482439280363366
-0.00760098697125575 46.62089785158128 37.87736278897821
-0.005464879873870877 46.96855014621715 38.258284448070015
-0.0039015967321000085 47.28109086894208 38.61714743330887
-0.002883995165670249 47.56299468993946 38.948619040428014
-0.0022477517166190047 47.81505382588693 39.25175514235577
-0.00179874084072329 48.03557047016489 39.528579106230566
-0.0014595970466816986 48.225223097738365 39.77828235707536
-0.0012027506489664258 48.38580550771798 39.99872712835569
-0.0010073243559101815 48.518870529072004 40.18806283056993
-0.603592196400244 2.521909950157741 1.0676725942985512
-0.6506064733449719 4.259725047433847 2.4438378955606295
-0.6917594768153456 5.961011616550551 3.7996331856693915
-0.7393720571114861 7.633242080273249 5.126153177948797
-0.7761172248991705 9.27165054970862 6.429077637609365
-0.7652471076868961 10.869289571277442 7.716686217413517
-0.712312139124323 12.419398629891624 8.997035785505265
-0.6548605234921042 13.923577248355292 10.268220104836363
-0.607188028594223 15.390956816229833 11.519356809091654
-0.564561779702275 16.825422902480856 12.74581525749709
-0.5238449845988737 18.228320841266388 13.945992143236612
-0.48398817126106725 19.59945138401561 15.120124921510302
-0.4446468478122555 20.93775656472596 16.26947442710257
-0.4061716015506322 22.24319136796078 17.39409430732177
-0.369146268698154 23.516752403559316 18.49279684881155
-0.3347055625871267 24.759509356996034 19.564307250064797
-0.3034153983993225 25.971370371680926 20.608734981502646
-0.27461484611217185 27.1520321746302 21.626441469793054
-0.24777531506198255 28.301395104057793 22.617545487227623
-0.22259898270470088 29.419494405204546 23.582005030163963
-0.19901662859040753 30.50634940737006 24.519797062839807
-0.1773837648981315 31.56195734678945 25.4309248789819
-0.15760020702669117 32.58634000983052 26.315362514608147
-0.13980007124817 33.5795104186564 27.17309445050884
-0.124299953266251 34.5414740008967 28.004114218286905
-0.11104417209489861 35.47225238012308 28.80839604797314
-0.09966396881699166 36.3718729785235 29.5859072590765
-0.08935905326273105 37.24037022732415 30.336606818059504
-0.07971977414642176 38.07775976940079 31.06047608246876
-0.07070224520210072 38.8840444491158 31.75751166252518
-0.06228744145105419 39.65922735370832 32.42770987900042
-0.05448916577246402 40.403311135070226 33.07106757149279
-0.04729897838988322 41.116298898314795 33.68758103947243
-0.04068081401891846 41.79819409142902 34.277246173788434
-0.03459972888188424 42.448999841352546 34.840059247899234
-0.029020357778149403 43.06867349474273 35.37607109407918
-0.023906581794384738 43.65702696300433 35.885505867587376
-0.019238704755569217 44.21341054750122 36.369137849107524
-0.015036247163849435 44.73705741636431 36.82788091327454
-0.011498042968013347 45.22821394616359 37.26144143992598
-0.00878218748326905 45.68737889826233 37.66922502841535
-0.006662876649486808 46.112125808537634 38.054123426078384
-0.004899700066922485 46.50000445007447 38.41905669964375
-0.0035124287272390825 46.852801101324324 38.76189604534953
-0.0025445969616638467 47.17352427274175 39.079056060053134
-0.0019244050808584702 47.46353718904507 39.36891211579901
-0.0015174347090033604 47.72249481582543 39.63187540858346
-0.0012218767077768707 47.95002948854151 39.86838410394448
-0.0009983803858680466 48.14675945852271 40.07770139863912
-0.0008287781268287279 48.31355678432121 40.258788013754895

CELLS 100 350
4 0 51 52 1
4 1 52 53 2
4 2 53 54 3
4 3 54 55 4
4 4 55 56 5
4 5 56 57 6
4 6 57 58 7
4 7 58 59 8
4 8 59 60 9
4 9 60 61 10
4 10 61 62 11
4 11 62 63 12
4 12 63 64 13
4 13 64 65 14
4 14 65 66 15
4 15 66 67 16
4 16 67 68 17
4 17 68 69 18
4 18 69 70 19
4 19 70 71 20
4 20 71 72 21
4 21 72 73 22
4 22 73 74 23
4 23 74 75 24
4 24 75 76 25
4 25 76 77 26
4 26 77 78 27
4 27 78 79 28
4 28 79 80 29
4 29 80 81 30
4 30 81 82 31
4 31 82 83 32
4 32 83 84 33
4 33 84 85 34
4 34 85 86 35
4 35 86 87 36
4 36 87 88 37
4 37 88 89 38
4 38 89 90 39
4 39 90 91 40
4 40 91 92 41
4 41 92 93 42
4 42 93 94 43
4 43 94 95 44
4 44 95 96 45
4 45 96 97 46
4 46 97 98 47
4 47 98 99 48
4 48 99 100 49
4 49 100 101 50
1 102
1 103
1 104
1 105
1 106
1 107
1 108
1 109
1 110
1 111
1 112
1 113
1 114
1 115
1 116
1 117
1 118
1 119
1 120
1 121
1 122
1 123
1 124
1 125
1 126
1 127
1 128
1 129
1 130
1 131
1 132
1 133
1 134
1 135
1 136
1 137
1 138
1 139
1 140
1 141
1 142
1 143
1 144
1 145
1 146
1 147
1 148
1 149
1 150
1 151

CELL_TYPES 100
9
9
9
9
9
9
9
9
9
9
9
9
9
9
9
9
9
9
9
9
9
9
9
9
9
9
9
9
9
9
9
9
9
9
9
9
9
9
9
9
9
9
9
9
9
9
9
9
9
9
1
1
1
1
1
1
1
1
1
1
1
1
1
1
1
1
1
1
1
1
1
1
1
1
1
1
1
1
1
1
1
1
1
1
1
1
1
1
1
1
1
1
1
1
1
1
1
1
1
1

CELL_DATA 100

VECTORS S float
-0.0 0.0 0.0
-7.842875292211146e-17 1.224403460102099e-14 7.212895213178602e-15
-0.0 0.0 0.0
-1.2163474404369e-19 -7.626937410611955e-16 -4.551473912614232e-16
0.0 0.0 0.0
8.641157129808088e-17 2.4402153169346158e-14 1.4571239504120134e-14
1.150127438608646e-16 3.661534689298807e-14 2.1836635949800273e-14
3.58478532949525e-17 1.2210384564423802e-14 7.270049205945866e-15
0.0 0.0 0.0
8.240399566170254e-17 2.442965628822814e-14 1.4525104824642412e-14
0.0 0.0 0.0
0.0 0.0 0.0
-8.734116897414811e-17 -2.4442239355872148e-14 -1.45038916755736e-14
0.0 0.0 0.0
7.462356743229779e-17 2.4451588166157637e-14 1.4488196382646098e-14
0.0 0.0 0.0
6.510548849180855e-17 2.4458140239553048e-14 1.4477178739106607e-14
6.143724187767432e-17 2.446100958534958e-14 1.4472346128982072e-14
0.0 0.0 0.0
-5.4389220545495837e-17 -2.4465990969735842e-14 -1.4463951556466466e-14
5.362061759906493e-17 2.4464711214379566e-14 1.4466118932619596e-14
0.0 0.0 0.0
-4.822246445744053e-17 -2.446802392320326e-14 -1.4460534113019153e-14
-9.35012024881934e-17 -4.893900993736803e-14 -2.8916065286628994e-14
9.108093400787122e-17 4.894186416008185e-14 2.89112418374725e-14
-8.507404950003516e-17 -4.894499763037179e-14 -2.8905955046568955e-14
0.0 0.0 0.0
0.0 0.0 0.0
-3.805071430163822e-17 -2.4477759447695726e-14 -1.444407876986967e-14
-3.692864545481899e-17 -2.4479217163961024e-14 -1.4441611068751878e-14
0.0 0.0 0.0
3.498124359276681e-17 2.4482184824936658e-14 1.4436584411021683e-14
0.0 0.0 0.0
0.0 0.0 0.0
0.0 0.0 0.0
3.209924284077084e-17 2.4488204445605333e-14 1.4426377910451404e-14
0.0 0.0 0.0
6.15744463980421e-17 4.898309413258955e-14 2.8841410602997304e-14
6.038802947795285e-17 4.898578450490217e-14 2.883684340406289e-14
-2.962520446588654e-17 -2.4494213455429703e-14 -1.441617829015107e-14
-2.936558184474206e-17 -2.4495479647519258e-14 -1.441402724594653e-14
0.0 0.0 0.0
2.780578027174098e-17 2.4497964304956915e-14 1.440980703194725e-14
-2.7325374372173637e-17 -2.4499105279323233e-14 -1.440786801656886e-14
0.0 0.0 0.0
0.0 0.0 0.0
0.0 0.0 0.0
3.91102196843101e-17 3.675433140718045e-14 2.160215542095455e-14
0.0 0.0 0.0
-1.2793136688552569e-17 -1.2252124592786748e-14 -7.199560475130608e-15
-0.0 0.0 0.0
-7.842875292211146e-17 1.224403460102099e-14 7.212895213178602e-15
-0.0 0.0 0.0
-1.2163474404369e-19 -7.626937410611955e-16 -4.551473912614232e-16
0.0 0.0 0.0
8.641157129808088e-17 2.4402153169346158e-14 1.4571239504120134e-14
1.150127438608646e-16 3.661534689298807e-14 2.1836635949800273e-14
3.58478532949525e-17 1.2210384564423802e-14 7.270049205945866e-15
0.0 0.0 0.0
8.240399566170254e-17 2.442965628822814e-14 1.4525104824642412e-14
0.0 0.0 0.0
0.0 0.0 0.0
-8.734116897414811e-17 -2.4442239355872148e-14 -1.45038916755736e-14
0.0 0.0 0.0
7.462356743229779e-17 2.4451588166157637e-14 1.4488196382646098e-14
0.0 0.0 0.0
6.510548849180855e-17 2.4458140239553048e-14 1.4477178739106607e-14
6.143724187767432e-17 2.446100958534958e-14 1.4472346128982072e-14
0.0 0.0 0.0
-5.4389220545495837e-17 -2.4465990969735842e-14 -1.4463951556466466e-14
5.362061759906493e-17 2.4464711214379566e-14 1.4466118932619596e-14
0.0 0.0 0.0
-4.822246445744053e-17 -2.446802392320326e-14 -1.4460534113019153e-14
-9.35012024881934e-17 -4.893900993736803e-14 -2.8916065286628994e-14
9.108093400787122e-17 4.894186416008185e-14 2.89112418374725e-14
-8.507404950003516e-17 -4.894499763037179e-14 -2.8905955046568955e-14
0.0 0.0 0.0
0.0 0.0 0.0
-3.805071430163822e-17 -2.4477759447695726e-14 -1.444407876986967e-14
-3.692864545481899e-17 -2.4479217163961024e-14 -1.4441611068751878e-14
0.0 0.0 0.0
3.498124359276681e-17 2.4482184824936658e-14 1.4436584411021683e-14
0.0 0.0 0.0
0.0 0.0 0.0
0.0 0.0 0.0
3.209924284077084e-17 2.4488204445605333e-14 1.4426377910451404e-14
0.0 0.0 0.0
6.15744463980421e-17 4.898309413258955e-14 2.8841410602997304e-14
6.038802947795285e-17 4.898578450490217e-14 2.883684340406289e-14
-2.962520446588654e-17 -2.4494213455429703e-14 -1.441617829015107e-14
-2.936558184474206e-17 -2.4495479647519258e-14 -1.441402724594653e-14
0.0 0.0 0.0
2.780578027174098e-17 2.4497964304956915e-14 1.440980703194725e-14
-2.7325374372173637e-17 -2.4499105279323233e-14 -1.440786801656886e-14
0.0 0.0 0.0
0.0 0.0 0.0
0.0 0.0 0.0
3.91102196843101e-17 3.675433140718045e-14 2.160215542095455e-14
0.0 0.0 0.0
-1.2793136688552569e-17 -1.2252124592786748e-14 -7.199560475130608e-15

SCALARS Gamma float
LOOKUP_TABLE default
-0.0
-0.0
-0.0
51.347535787102615
55.042948766678336
55.04795577088761
52.85452410257115
48.11789696972584
45.02980974088001
47.66006750411299
54.308391758010075
54.95323760400306
51.05666932735542
46.2090724201199
45.20288240845322
44.40518260374545
40.818328837761726
38.64744396779674
33.92835519849684
34.27769670110421
33.76447864543421
35.375953451127636
36.98666354118036
34.89363049234659
36.974180896297845
38.23146300812106
38.32918269853312
38.47706641670214
38.691909682167996
38.959767904152834
39.29349826289249
39.58993693927319
37.60414393624614
37.91406818316617
38.22806858197446
38.532476581478825
38.78152334147345
41.14325382299332
41.064539443270384
40.6896817909805
39.95916877054018
38.72018637008778
36.666751741381034
34.027440011834
31.348352940515483
28.70086319962291
25.853411857772905
23.106161252375355
20.329653639457778
17.760017965087975
-0.0
-0.0
-0.0
51.347535787102615
55.042948766678336
55.04795577088761
52.85452410257115
48.11789696972584
45.02980974088001
47.66006750411299
54.308391758010075
54.95323760400306
51.05666932735542
46.2090724201199
45.20288240845322
44.40518260374545
40.818328837761726
38.64744396779674
33.92835519849684
34.27769670110421
33.76447864543421
35.375953451127636
36.98666354118036
34.89363049234659
36.974180896297845
38.23146300812106
38.32918269853312
38.47706641670214
38.691909682167996
38.959767904152834
39.29349826289249
39.58993693927319
37.60414393624614
37.91406818316617
38.22806858197446
38.532476581478825
38.78152334147345
41.14325382299332
41.064539443270384
40.6896817909805
39.95916877054018
38.72018637008778
36.666751741381034
34.027440011834
31.348352940515483
28.70086319962291
25.853411857772905
23.106161252375355
20.329653639457778
17.760017965087975

VECTORS Ftot float
116.04628437053083 -19.763417058274456 34.2312424761047
139.73642744755423 -44.00173895819051 76.21324749696859
143.05964778049383 -65.33035988652247 113.15550260021634
1278.6402489399607 6.064695177456491 -10.504360179772561
1307.457226538218 111.31331174271733 -192.8003114971392
1400.2823737762874 144.7420648520914 -250.70061031625104
1482.5503059949924 141.29094507486843 -244.72309551909512
1471.4360985380226 138.18820759870712 -239.34899656783568
1485.2057165752058 148.01947116129662 -256.37724456084123
1679.1235743683783 189.9169236272852 -328.94576093963525
2041.214631835785 248.2543234250429 -429.98910137080964
2199.0603190519696 277.2545161605261 -480.21890861795623
2168.04654075888 278.7826030706267 -482.8656327846314
2081.6226669326375 257.28261917388005 -445.6265683135536
2154.361106861204 250.14017598321655 -433.2554938171501
2226.547776045421 249.2560360190863 -431.7241184782745
2148.0857589820957 226.63948165987668 -392.5510972359801
2125.753569250527 215.57302457911723 -373.3834313123243
1946.4663539528563 186.2445531671789 -322.585028718516
2043.4628955548828 189.56308508794345 -328.3328946118193
2086.3334467000295 189.180765681332 -327.6706979748487
2263.8220920973986 192.62429428081597 -333.6350644664715
2442.7618311769215 203.67390163094606 -352.7735458005832
2374.123694764252 193.85771114777134 -335.77140514695054
2586.9295220376125 207.80053342470242 -359.9210817314983
2749.344100722793 208.54220099692267 -361.20568764891004
2826.6180020012866 208.11128841270968 -360.4593251594324
2905.1598227582845 209.41074682845874 -362.7100531578327
2987.0976202015663 210.43738444926242 -364.48824167802627
3071.338250433106 212.24388294954204 -367.61718886430754
3159.180983797966 214.7498526069609 -371.95765563318304
3242.5521261260014 216.99964527037804 -375.8544108327172
3133.3880764072887 208.9883558931219 -361.97845059717275
3212.0098659295713 209.61363695223463 -363.0614691605664
3288.684043091878 212.69080408259754 -368.39127897373584
3362.7552766273884 216.3098990804603 -374.6597353874526
3430.8068611144517 217.7992034248654 -377.2392861798953
3685.5349776366447 233.5454206451455 -404.5125344324363
3722.1561197678234 233.8728715493632 -405.07969603552567
3728.9232780311936 232.40241175751282 -402.5327849655537
3698.8847817518777 230.93524485798463 -399.9915773523876
3618.5910695003386 222.69729676147435 -385.72303269911646
3457.268387788363 208.73150223813542 -361.53356701662636
3234.0556150374805 193.77475157909242 -335.6277149590247
3001.0502693616486 178.6806043680328 -309.4838850925454
2765.093674654075 165.50129461883017 -286.6566509982387
2505.3873200512435 149.03803671682329 -258.141451853853
2250.8035758177903 133.0353797743289 -230.42403697335803
1989.1744455070125 117.36670001276065 -203.28508753879566
1744.4474368478159 102.4277603049642 -177.41008495368413
116.04628437053083 -19.763417058274456 34.2312424761047
139.73642744755423 -44.00173895819051 76.21324749696859
143.05964778049383 -65.33035988652247 113.15550260021634
1278.6402489399607 6.064695177456491 -10.504360179772561
1307.457226538218 111.31331174271733 -192.8003114971392
1400.2823737762874 144.7420648520914 -250.70061031625104
1482.5503059949924 141.29094507486843 -244.72309551909512
1471.4360985380226 138.18820759870712 -239.34899656783568
1485.2057165752058 148.01947116129662 -256.37724456084123
1679.1235743683783 189.9169236272852 -328.94576093963525
2041.214631835785 248.2543234250429 -429.98910137080964
2199.0603190519696 277.2545161605261 -480.21890861795623
2168.04654075888 278.7826030706267 -482.8656327846314
2081.6226669326375 257.28261917388005 -445.6265683135536
2154.361106861204 250.14017598321655 -433.2554938171501
2226.547776045421 249.2560360190863 -431.7241184782745
2148.0857589820957 226.63948165987668 -392.5510972359801
2125.753569250527 215.57302457911723 -373.3834313123243
1946.4663539528563 186.2445531671789 -322.585028718516
2043.4628955548828 189.56308508794345 -328.3328946118193
2086.3334467000295 189.180765681332 -327.6706979748487
2263.8220920973986 192.62429428081597 -333.6350644664715
2442.7618311769215 203.67390163094606 -352.7735458005832
2374.123694764252 193.85771114777134 -335.77140514695054
2586.9295220376125 207.80053342470242 -359.9210817314983
2749.344100722793 208.54220099692267 -361.20568764891004
2826.6180020012866 208.11128841270968 -360.4593251594324
2905.1598227582845 209.41074682845874 -362.7100531578327
2987.0976202015663 210.43738444926242 -364.48824167802627
3071.338250433106 212.24388294954204 -367.61718886430754
3159.180983797966 214.7498526069609 -371.95765563318304
3242.5521261260014 216.99964527037804 -375.8544108327172
3133.3880764072887 208.9883558931219 -361.97845059717275
3212.0098659295713 209.61363695223463 -363.0614691605664
3288.684043091878 212.69080408259754 -368.39127897373584
3362.7552766273884 216.3098990804603 -374.6597353874526
3430.8068611144517 217.7992034248654 -377.2392861798953
3685.5349776366447 233.5454206451455 -404.5125344324363
3722.1561197678234 233.8728715493632 -405.07969603552567
3728.9232780311936 232.40241175751282 -402.5327849655537
3698.8847817518777 230.93524485798463 -399.9915773523876
3618.5910695003386 222.69729676147435 -385.72303269911646
3457.268387788363 208.73150223813542 -361.53356701662636
3234.0556150374805 193.77475157909242 -335.6277149590247
3001.0502693616486 178.6806043680328 -309.4838850925454
2765.093674654075 165.50129461883017 -286.6566509982387
2505.3873200512435 149.03803671682329 -258.141451853853
2250.8035758177903 133.0353797743289 -230.42403697335803
1989.1744455070125 117.36670001276065 -203.28508753879566
1744.4474368478159 102.4277603049642 -177.41008495368413

VECTORS D float
91.9137473660081 16.277064674421386 -26.752626365865254
60.36413073123221 19.58517560622336 -32.589865421267234
12.932631712297455 6.063765091136847 -10.138135219185699
534.5771520685062 326.25259164692625 -546.8466645922393
520.1073109158855 389.24067367655255 -653.7320172101734
476.87853543288617 421.1633491629874 -708.1415672453589
413.3382736734188 419.52122908131986 -705.6240043661148
348.02274915923897 397.53654139005585 -669.3971085173099
310.2372299033757 392.725979210841 -661.9007997861991
323.09723432392053 448.1697980615593 -755.606156444674
361.7210730242093 543.686240837554 -917.2114690614515
358.25454800959096 578.6914497927473 -976.7848328727515
325.72444949150724 561.5298421265836 -948.262457314663
282.7998474890959 517.2592259734942 -873.8718684569025
263.44636757867926 508.62273225713096 -859.7545588071351
249.4499688517109 506.2030253968685 -855.9527337928034
219.24273915268284 465.7864665944398 -787.8983075943856
200.3764547419236 444.1765448903774 -751.5932248942568
168.66871596145637 388.9377780763421 -658.3227624331076
165.46406301921832 395.83046491831124 -670.1753669328341
159.01742284137563 393.7975029628808 -666.5691637312069
159.89821119332686 408.77950287694296 -692.0621756040016
163.61481255185075 430.90003130974577 -729.6523144729097
151.168759661242 409.33414534626684 -693.2666000336378
157.32554618471593 437.2049552679791 -740.6100024654556
157.07525404168985 447.2184804572348 -757.7148189322725
154.0182088259556 448.5495730834103 -760.1117836915265
152.01330161596672 451.8812022063647 -766.0230497348807
150.21858243699066 455.33656330808077 -772.0350301620105
148.98440417394752 459.8666468764858 -779.8767917217906
148.28033957184095 465.48759320003785 -789.5765307163548
147.5748008895347 470.60349161764435 -798.4273622437835
139.28439665675253 450.6932950877007 -764.8164503844175
138.49275595429683 454.2441980939626 -771.0146186308297
138.5486311859624 460.17733032895995 -781.2612087801656
138.8400258575626 466.55437562216787 -792.2664764419567
138.50169025761073 470.47457702361123 -799.1029444576187
146.48175442971586 502.4113508686404 -853.5880011103915
145.30480641686765 502.9973275433599 -854.7569863711618
143.15185532296522 499.7913741937334 -849.4787771897857
140.42044951747135 494.128544283311 -840.0177841593944
134.96193831880308 478.3702651418503 -813.3827156192
126.52096732248467 451.4358321689937 -767.7255422050376
116.85012341610796 419.4601265468035 -713.4706371751026
107.20987700756554 386.9725183541972 -658.3192403057712
98.27140287717073 356.46711609168074 -606.5154789365562
88.18965035907166 321.3115666339649 -546.775875336147
78.52237738943259 287.2058354905078 -488.7998110078184
68.97914170522601 253.1556642101241 -430.89758965750343
60.08988270221134 221.1687426797399 -376.4890563511797
91.9137473660081 16.277064674421386 -26.752626365865254
60.36413073123221 19.58517560622336 -32.589865421267234
12.932631712297455 6.063765091136847 -10.138135219185699
534.5771520685062 326.25259164692625 -546.8466645922393
520.1073109158855 389.24067367655255 -653.7320172101734
476.87853543288617 421.1633491629874 -708.1415672453589
413.3382736734188 419.52122908131986 -705.6240043661148
348.02274915923897 397.53654139005585 -669.3971085173099
310.2372299033757 392.725979210841 -661.9007997861991
323.09723432392053 448.1697980615593 -755.606156444674
361.7210730242093 543.686240837554 -917.2114690614515
358.25454800959096 578.6914497927473 -976.7848328727515
325.72444949150724 561.5298421265836 -948.262457314663
282.7998474890959 517.2592259734942 -873.8718684569025
263.44636757867926 508.62273225713096 -859.7545588071351
249.4499688517109 506.2030253968685 -855.9527337928034
219.24273915268284 465.7864665944398 -787.8983075943856
200.3764547419236 444.1765448903774 -751.5932248942568
168.66871596145637 388.9377780763421 -658.3227624331076
165.46406301921832 395.83046491831124 -670.1753669328341
159.01742284137563 393.7975029628808 -666.5691637312069
159.89821119332686 408.77950287694296 -692.0621756040016
163.61481255185075 430.90003130974577 -729.6523144729097
151.168759661242 409.33414534626684 -693.2666000336378
157.32554618471593 437.2049552679791 -740.6100024654556
157.07525404168985 447.2184804572348 -757.7148189322725
154.0182088259556 448.5495730834103 -760.1117836915265
152.01330161596672 451.8812022063647 -766.0230497348807
150.21858243699066 455.33656330808077 -772.0350301620105
148.98440417394752 459.8666468764858 -779.8767917217906
148.28033957184095 465.48759320003785 -789.5765307163548
147.5748008895347 470.60349161764435 -798.4273622437835
139.28439665675253 450.6932950877007 -764.8164503844175
138.49275595429683 454.2441980939626 -771.0146186308297
138.5486311859624 460.17733032895995 -781.2612087801656
138.8400258575626 466.55437562216787 -792.2664764419567
138.50169025761073 470.47457702361123 -799.1029444576187
146.48175442971586 502.4113508686404 -853.5880011103915
145.30480641686765 502.9973275433599 -854.7569863711618
143.15185532296522 499.7913741937334 -849.4787771897857
140.42044951747135 494.128544283311 -840.0177841593944
134.96193831880308 478.3702651418503 -813.3827156192
126.52096732248467 451.4358321689937 -767.7255422050376
116.85012341610796 419.4601265468035 -713.4706371751026
107.20987700756554 386.9725183541972 -658.3192403057712
98.27140287717073 356.46711609168074 -606.5154789365562
88.18965035907166 321.3115666339649 -546.775875336147
78.52237738943259 287.2058354905078 -488.7998110078184
68.97914170522601 253.1556642101241 -430.89758965750343
60.08988270221134 221.1687426797399 -376.4890563511797

VECTORS L float
24.13253700452276 -36.04048173269585 60.98386884196994
79.37229671632201 -63.586914564413874 108.80311291823584
130.12701606819638 -71.39412497765932 123.29363781940202
744.0630968714545 -320.1878964694698 536.3423044124668
787.3499156223328 -277.92736193383524 460.9317057130341
923.4038383434013 -276.42128431089606 457.4409569291081
1069.2120323215738 -278.23028400645137 460.90090884701976
1123.4133493787838 -259.34833379134875 430.04811194947433
1174.9684866718303 -244.7065080495443 405.5235552253577
1356.0263400444578 -258.252874434274 426.66039550503876
1679.493558811576 -295.43191741251115 487.222367690642
1840.805771042379 -301.4369336322213 496.56592425479556
1842.322091267373 -282.7472390559568 465.39682453003127
1798.8228194435421 -259.9766067996141 428.2453001433489
1890.9147392825248 -258.48255627391444 426.49906498998524
1977.0978071937113 -256.9469893777822 424.22861531452907
1928.8430198294136 -239.14698493456314 395.3472103584055
1925.3771145086039 -228.60352031126024 378.20979358193256
1777.7976379913996 -202.69322490916338 335.7377337145918
1877.9988325356646 -206.26737983036782 341.8424723210148
1927.316023858654 -204.61673728154875 338.8984657563582
2103.923880904072 -216.15520859612707 358.4271111375303
2279.1470186250713 -227.22612967879974 376.87876867232643
2222.9549351030096 -215.47643419849553 357.49519488668733
2429.603975852897 -229.40442184327674 380.68892073395756
2592.268846681103 -238.6762794603121 396.50913128336236
2672.5997931753323 -240.4382846707006 399.6524585320941
2753.1465211423183 -242.47045537790595 403.312996577048
2836.8790377645755 -244.89917885881837 407.54678848398413
2922.3538462591587 -247.62276392694378 412.259602857483
3010.9006442261257 -250.73774059307715 417.618875083172
3094.977325236467 -253.6038463472663 422.57295141106636
2994.1036797505367 -241.70493919457863 402.8379997872447
3073.5171099752747 -244.6305611417282 407.95314947026344
3150.135411905916 -247.48652624636244 412.8699298064296
3223.915250769826 -250.24447654170746 417.606741054504
3292.305170856841 -252.6753735987458 421.8636582777235
3539.0532232069286 -268.865930223495 449.0754666779552
3576.8513133509564 -269.1244559939969 449.67729033563626
3585.7714227082283 -267.38896243622077 446.945992224232
3558.4643322344064 -263.1932994253266 440.0262068070071
3483.629131181536 -255.672968380376 427.6596829200836
3330.747420465879 -242.7043299308585 406.19197518841156
3117.205491621373 -225.68537496771117 377.842922216078
2893.8403923540836 -208.29191398616447 348.8353552132258
2666.8222717769054 -190.96582147285062 319.8588279383175
2417.197669692172 -172.2735299171416 288.63442348229404
2172.2811984283576 -154.1704557161788 258.3757740344603
1920.1953038017866 -135.7889641973635 227.6125021187079
1684.3575541456048 -118.7409823747758 199.07897139749576
24.13253700452276 -36.04048173269585 60.98386884196994
79.37229671632201 -63.586914564413874 108.80311291823584
130.12701606819638 -71.39412497765932 123.29363781940202
744.0630968714545 -320.1878964694698 536.3423044124668
787.3499156223328 -277.92736193383524 460.9317057130341
923.4038383434013 -276.42128431089606 457.4409569291081
1069.2120323215738 -278.23028400645137 460.90090884701976
1123.4133493787838 -259.34833379134875 430.04811194947433