# vtk DataFile Version 4.0
[MyVLM domain - lattices] 
ASCII
DATASET UNSTRUCTURED_GRID
POINTS 152 float
0.0 2.245749659528744 -0.07370322297134368
0.0 3.8004167785460083 -1.6885480093072405
0.0 5.301191132345077 -3.2949931980556215
0.0 6.780956288028098 -4.865446200189285
0.0 8.239975740032921 -6.3996859176226115
0.0 9.649970203315176 -7.921441488006287
0.0 10.98751450435651 -9.45036896579983
0.0 12.246562159504084 -10.991541953206255
0.0 13.463986197015426 -12.514020305814281
0.0 14.65488455410739 -14.00513535007371
0.0 15.819067096304465 -15.46504662775281
0.0 16.956255563609826 -16.8939876267123
0.0 18.066143943004565 -18.292215122363462
0.0 19.14621381010341 -19.661842323679153
0.0 20.198145347282843 -21.001459390246936
0.0 21.22562156460741 -22.30797590968003
0.0 22.22919069924479 -23.580931856373244
0.0 23.207949305014832 -24.82108531168313
0.0 24.161246497967355 -26.028982432092228
0.0 25.089082465792995 -27.204623060109387
0.0 25.991457391169895 -28.348007042449446
0.0 26.86837145176368 -29.459134230033243
0.0 27.71982482022747 -30.538004477987617
0.0 28.545817664201873 -31.584617645645384
0.0 29.34635014631499 -32.59897359654537
0.0 30.121422424182402 -33.5810721984324
0.0 30.87103465040719 -34.53091332325729
0.0 31.595186972579928 -35.44849684717683
0.0 32.29388075668311 -36.33382162399563
0.0 32.967132944399445 -37.18687343795397
0.0 33.61494697966575 -38.007649399245736
0.0 34.23732043839172 -38.79615154192421
0.0 34.83425099175695 -39.55238182010172
0.0 35.40573640621098 -40.27634210794966
0.0 35.95177454347327 -40.96803419969843
0.0 36.47236336053319 -41.627459809637486
0.0 36.967177646547455 -42.25489182206549
0.0 37.43518902714783 -42.851193145535554
0.0 37.87476561485476 -43.41773309622988
0.0 38.285058480757726 -43.95522401008419
0.0 38.66666244643074 -44.463166772535104
0.0 39.01938287982094 -44.9417246992664
0.0 39.33419832078227 -45.398467694159315
0.0 39.611313565223895 -45.833223913042
0.0 39.857559153436554 -46.240261852075754
0.0 40.07758990577876 -46.615675653214545
0.0 40.27258447226286 -46.95847631166774
0.0 40.4414160506467 -47.26960932678112
0.0 40.58507239099221 -47.54824587784205
0.0 40.70551034182854 -47.79274397397144
0.0 40.804423891434645 -48.0016821902292
-0.7686761955390344 -0.24613574166131946 -2.1646433440459734
-0.8409029948616161 1.0778738470992335 -3.9730327789485385
-0.8940476007249757 2.4051579040988162 -5.725053611754205
-0.9506443374492793 3.699814784228609 -7.450830899632444
-1.0210144815146838 4.962949680947988 -9.149437275159112
-1.048631451549771 6.217942038227802 -10.801255055521137
-0.9920275022819518 7.480726305651231 -12.392913649950268
-0.9074715353829097 8.766676901076199 -13.911512390092346
-0.8388231939293685 10.045060592981226 -15.382839519181935
-0.7803448823218929 11.300267314222573 -16.819993438802
-0.7251531968841737 12.53058948896608 -18.22440697520519
-0.671766762046156 13.733615339693856 -19.598103850017253
-0.6188683613166902 14.912584615462592 -20.938365590999602
-0.5668565661826578 16.068561272442064 -22.244299432922606
-0.5162677046190278 17.2009038279544 -23.516443643664662
-0.4681223452427161 18.305298798246856 -24.758417665851788
-0.42442582165628834 19.381249780642438 -25.970638030787164
-0.3846819074085718 20.429663501945335 -27.15234390434382
-0.3476243488905531 21.451115149842703 -28.303052646745613
-0.3131098246080671 22.4455631615115 -29.42279913334201
-0.28048746260446866 23.412936966605457 -30.511642579684544
-0.2502235469699514 24.353245586656875 -31.5695754158088
-0.2227998260917326 25.266488666631883 -32.59659793962356
-0.19746739264611052 26.152597210847485 -33.59276804538097
-0.17533279734900953 27.011598720337922 -34.558062656973355
-0.15613374469432648 27.84344833826218 -35.49251941375945
-0.13998404755873647 28.64812209813716 -36.39615842600641
-0.12578653595324127 29.42555671840534 -37.26903279324579
-0.11250427274737486 30.175705553333206 -38.11118165589539
-0.10008179164308317 30.89855943289021 -38.92261270852446
-0.08845752889585208 31.59411169248946 -39.703331543385396
-0.07764231497362577 32.26235884549343 -40.453341086114456
-0.06766212708627829 32.903297535105416 -41.172644153398515
-0.0584684819534103 33.516922770832714 -41.861244932758176
-0.050013688763705585 34.10323004270935 -42.51914720850422
-0.042252254921319045 34.6622153170208 -43.146354365324996
-0.03513536582041269 35.194127264831145 -43.742657743422384
-0.028615518964613278 35.69976615750447 -44.307385835389915
-0.022687693716904638 36.18128322611581 -44.838733544025956
-0.017408965386693863 36.6397911774132 -45.335767197508616
-0.013252482528008399 37.073479019994345 -45.80000639805564
-0.010166684094042405 37.482439280363764 -46.2313735067112
-0.00760098697125575 37.877362788978616 -46.62089785158172
-0.005464879873870877 38.258284448070434 -46.96855014621759
-0.0039015967321000085 38.61714743330929 -47.28109086894252
-0.002883995165670249 38.94861904042843 -47.5629946899399
-0.0022477517166190047 39.25175514235619 -47.81505382588737
-0.00179874084072329 39.528579106231 -48.03557047016533
-0.0014595970466816986 39.778282357075796 -48.22522309773882
-0.0012027506489664258 39.99872712835612 -48.38580550771844
-0.0010073243559101815 40.18806283057037 -48.51887052907245
-0.603592196400244 1.0676725942985614 -2.521909950157765
-0.6506064733449719 2.4438378955606543 -4.259725047433887
-0.6917594768153456 3.7996331856694314 -5.961011616550607
-0.7393720571114861 5.126153177948851 -7.6332420802733205
-0.7761172248991705 6.429077637609433 -9.271650549708706
-0.7652471076868961 7.7166862174136 -10.869289571277543
-0.712312139124323 8.997035785505359 -12.41939862989174
-0.6548605234921042 10.268220104836473 -13.923577248355421
-0.607188028594223 11.519356809091777 -15.390956816229975
-0.564561779702275 12.745815257497227 -16.825422902481012
-0.5238449845988737 13.945992143236763 -18.22832084126656
-0.48398817126106725 15.120124921510467 -19.59945138401579
-0.4446468478122555 16.269474427102743 -20.937756564726154
-0.4061716015506322 17.394094307321957 -22.24319136796099
-0.369146268698154 18.49279684881175 -23.516752403559536
-0.3347055625871267 19.56430725006501 -24.759509356996265
-0.3034153983993225 20.608734981502867 -25.971370371681164
-0.27461484611217185 21.62644146979329 -27.152032174630456
-0.24777531506198255 22.61754548722787 -28.30139510405806
-0.22259898270470088 23.582005030164222 -29.41949440520481
-0.19901662859040753 24.51979706284007 -30.50634940737034
-0.1773837648981315 25.43092487898218 -31.561957346789736
-0.15760020702669117 26.31536251460843 -32.58634000983083
-0.13980007124817 27.173094450509133 -33.57951041865672
-0.124299953266251 28.00411421828721 -34.541474000897026
-0.11104417209489861 28.80839604797345 -35.47225238012341
-0.09966396881699166 29.585907259076823 -36.37187297852384
-0.08935905326273105 30.33660681805983 -37.2403702273245
-0.07971977414642176 31.0604760824691 -38.07775976940114
-0.07070224520210072 31.75751166252552 -38.88404444911615
-0.06228744145105419 32.427709879000766 -39.65922735370868
-0.05448916577246402 33.07106757149315 -40.4033111350706
-0.04729897838988322 33.68758103947279 -41.11629889831518
-0.04068081401891846 34.277246173788804 -41.7981940914294
-0.03459972888188424 34.84005924789961 -42.44899984135294
-0.029020357778149403 35.37607109407956 -43.06867349474314
-0.023906581794384738 35.88550586758776 -43.65702696300474
-0.019238704755569217 36.36913784910793 -44.213410547501624
-0.015036247163849435 36.82788091327494 -44.73705741636472
-0.011498042968013347 37.26144143992639 -45.228213946164004
-0.00878218748326905 37.66922502841575 -45.68737889826275
-0.006662876649486808 38.054123426078796 -46.11212580853806
-0.004899700066922485 38.419056699644166 -46.500004450074904
-0.0035124287272390825 38.76189604534995 -46.85280110132476
-0.0025445969616638467 39.07905606005355 -47.17352427274219
-0.0019244050808584702 39.36891211579944 -47.46353718904551
-0.0015174347090033604 39.63187540858389 -47.722494815825875
-0.0012218767077768707 39.86838410394491 -47.95002948854195
-0.0009983803858680466 40.07770139863956 -48.14675945852316
-0.0008287781268287279 40.258788013755336 -48.31355678432166

CELLS 100 350
4 0 51 52 1
4 1 52 53 2
4 2 53 54 3
4 3 54 55 4
4 4 55 56 5
4 5 56 57 6
4 6 57 58 7
4 7 58 59 8
4 8 59 60 9
4 9 60 61 10
4 10 61 62 11
4 11 62 63 12
4 12 63 64 13
4 13 64 65 14
4 14 65 66 15
4 15 66 67 16
4 16 67 68 17
4 17 68 69 18
4 18 69 70 19
4 19 70 71 20
4 20 71 72 21
4 21 72 73 22
4 22 73 74 23
4 23 74 75 24
4 24 75 76 25
4 25 76 77 26
4 26 77 78 27
4 27 78 79 28
4 28 79 80 29
4 29 80 81 30
4 30 81 82 31
4 31 82 83 32
4 32 83 84 33
4 33 84 85 34
4 34 85 86 35
4 35 86 87 36
4 36 87 88 37
4 37 88 89 38
4 38 89 90 39
4 39 90 91 40
4 40 91 92 41
4 41 92 93 42
4 42 93 94 43
4 43 94 95 44
4 44 95 96 45
4 45 96 97 46
4 46 97 98 47
4 47 98 99 48
4 48 99 100 49
4 49 100 101 50
1 102
1 103
1 104
1 105
1 106
1 107
1 108
1 109
1 110
1 111
1 112
1 113
1 114
1 115
1 116
1 117
1 118
1 119
1 120
1 121
1 122
1 123
1 124
1 125
1 126
1 127
1 128
1 129
1 130
1 131
1 132
1 133
1 134
1 135
1 136
1 137
1 138
1 139
1 140
1 141
1 142
1 143
1 144
1 145
1 146
1 147
1 148
1 149
1 150
1 151

CELL_TYPES 100
9
9
9
9
9
9
9
9
9
9
9
9
9
9
9
9
9
9
9
9
9
9
9
9
9
9
9
9
9
9
9
9
9
9
9
9
9
9
9
9
9
9
9
9
9
9
9
9
9
9
1
1
1
1
1
1
1
1
1
1
1
1
1
1
1
1
1
1
1
1
1
1
1
1
1
1
1
1
1
1
1
1
1
1
1
1
1
1
1
1
1
1
1
1
1
1
1
1
1
1

CELL_DATA 100

VECTORS S float
-0.0 0.0 -0.0
-0.0 0.0 -0.0
-0.0 0.0 -0.0
-1.9021387028e-22 -2.836388645375178e-17 4.7717689133298065e-17
-6.688139965686781e-17 -1.4543810390910463e-14 2.4418572299336846e-14
0.0 0.0 -0.0
0.0 0.0 -0.0
-5.903361843219204e-17 -1.448809984003344e-14 2.4451687978612723e-14
0.0 0.0 -0.0
0.0 0.0 -0.0
0.0 0.0 -0.0
0.0 0.0 -0.0
0.0 0.0 -0.0
0.0 0.0 -0.0
-1.2177211156110576e-16 -2.885931806096535e-14 4.897243306590096e-14
5.895976400925596e-17 1.4430849549435543e-14 -2.4485519638637448e-14
1.0755883837153755e-16 2.884583732032953e-14 -4.898040800330921e-14
-1.0053900540681108e-16 -2.88318574191207e-14 4.898865335419162e-14
4.582355173094113e-17 1.4409260263298867e-14 -2.44982588322709e-14
-4.2636660899108905e-17 -1.439984652665363e-14 2.450379907423102e-14
4.08127433304683e-17 1.4395622429710366e-14 -2.450628401303465e-14
-3.712701302460783e-17 -1.4391300761613096e-14 2.4508828020123978e-14
3.5729284554684817e-17 1.4387601405253074e-14 -2.451100194133445e-14
3.434719854273632e-17 1.4384084942399315e-14 -2.4513067690236364e-14
0.0 0.0 -0.0
-3.10254825416981e-17 -1.4377412128318257e-14 2.451698645548095e-14
0.0 0.0 -0.0
-2.829941886066678e-17 -1.4371288953425672e-14 2.45205795181589e-14
0.0 0.0 -0.0
0.0 0.0 -0.0
2.524953934579511e-17 1.4362790793760543e-14 -2.4525561563840823e-14
2.4391616704415598e-17 1.4360078134686823e-14 -2.452715083251701e-14
-2.3760765378342868e-17 -1.4357437996461096e-14 2.4528697000658634e-14
2.298771702118926e-17 1.4354818632476934e-14 -2.4530230747791093e-14
0.0 0.0 -0.0
0.0 0.0 -0.0
-2.0923633481027778e-17 -1.434617429344977e-14 2.4535289121790252e-14
-2.038758053818116e-17 -1.4343818273276973e-14 2.4536667023784657e-14
0.0 0.0 -0.0
0.0 0.0 -0.0
-1.89784067266913e-17 -1.433724474303009e-14 2.454050977353262e-14
1.852706899076777e-17 1.4335238071779572e-14 -2.4541682361228467e-14
-5.3657387265463334e-17 -4.299992037298973e-14 7.362843249260558e-14
1.7480634880058518e-17 1.433151640928824e-14 -2.4543856640390122e-14
0.0 0.0 -0.0
1.698481982654673e-17 1.432835174766755e-14 -2.454570460706565e-14
0.0 0.0 -0.0
-8.19282084445572e-18 -7.162857917446357e-15 1.2273621758419218e-14
8.097280408060659e-18 7.162312363327414e-15 -1.2273940189717247e-14
1.5981027186086928e-17 1.432367853687391e-14 -2.454843263276464e-14
-0.0 0.0 -0.0
-0.0 0.0 -0.0
-0.0 0.0 -0.0
-1.9021387028e-22 -2.836388645375178e-17 4.7717689133298065e-17
-6.688139965686781e-17 -1.4543810390910463e-14 2.4418572299336846e-14
0.0 0.0 -0.0
0.0 0.0 -0.0
-5.903361843219204e-17 -1.448809984003344e-14 2.4451687978612723e-14
0.0 0.0 -0.0
0.0 0.0 -0.0
0.0 0.0 -0.0
0.0 0.0 -0.0
0.0 0.0 -0.0
0.0 0.0 -0.0
-1.2177211156110576e-16 -2.885931806096535e-14 4.897243306590096e-14
5.895976400925596e-17 1.4430849549435543e-14 -2.4485519638637448e-14
1.0755883837153755e-16 2.884583732032953e-14 -4.898040800330921e-14
-1.0053900540681108e-16 -2.88318574191207e-14 4.898865335419162e-14
4.582355173094113e-17 1.4409260263298867e-14 -2.44982588322709e-14
-4.2636660899108905e-17 -1.439984652665363e-14 2.450379907423102e-14
4.08127433304683e-17 1.4395622429710366e-14 -2.450628401303465e-14
-3.712701302460783e-17 -1.4391300761613096e-14 2.4508828020123978e-14
3.5729284554684817e-17 1.4387601405253074e-14 -2.451100194133445e-14
3.434719854273632e-17 1.4384084942399315e-14 -2.4513067690236364e-14
0.0 0.0 -0.0
-3.10254825416981e-17 -1.4377412128318257e-14 2.451698645548095e-14
0.0 0.0 -0.0
-2.829941886066678e-17 -1.4371288953425672e-14 2.45205795181589e-14
0.0 0.0 -0.0
0.0 0.0 -0.0
2.524953934579511e-17 1.4362790793760543e-14 -2.4525561563840823e-14
2.4391616704415598e-17 1.4360078134686823e-14 -2.452715083251701e-14
-2.3760765378342868e-17 -1.4357437996461096e-14 2.4528697000658634e-14
2.298771702118926e-17 1.4354818632476934e-14 -2.4530230747791093e-14
0.0 0.0 -0.0
0.0 0.0 -0.0
-2.0923633481027778e-17 -1.434617429344977e-14 2.4535289121790252e-14
-2.038758053818116e-17 -1.4343818273276973e-14 2.4536667023784657e-14
0.0 0.0 -0.0
0.0 0.0 -0.0
-1.89784067266913e-17 -1.433724474303009e-14 2.454050977353262e-14
1.852706899076777e-17 1.4335238071779572e-14 -2.4541682361228467e-14
-5.3657387265463334e-17 -4.299992037298973e-14 7.362843249260558e-14
1.7480634880058518e-17 1.433151640928824e-14 -2.4543856640390122e-14
0.0 0.0 -0.0
1.698481982654673e-17 1.432835174766755e-14 -2.454570460706565e-14
0.0 0.0 -0.0
-8.19282084445572e-18 -7.162857917446357e-15 1.2273621758419218e-14
8.097280408060659e-18 7.162312363327414e-15 -1.2273940189717247e-14
1.5981027186086928e-17 1.432367853687391e-14 -2.454843263276464e-14

SCALARS Gamma float
LOOKUP_TABLE default
-0.0
-0.0
-0.0
53.90356207392941
58.769585556415535
58.55282193674301
55.70015873012548
50.52031844131291
46.840326114013244
50.24970769600153
58.04641242192996
58.82619846987206
55.99632002671015
51.47471835787123
50.5376823544853
49.686400356456346
46.201531756008066
43.90497655781633
39.312253067738695
39.93985672810257
39.210853402087025
40.43462760030374
41.61768725415726
38.896650079301665
40.803388059118284
42.162973147351465
42.144797320548875
42.1285385349569
42.215916749370095
42.3598232879449
42.57412158686048
42.76577564316736
40.539473250922256
40.7586418516756
40.98717347862414
41.21055313652885
41.37595838201872
43.740160472480994
43.5510403937652
43.06297936850022
42.21929809808143
40.85512117903262
38.64101738423165
35.81865930472354
32.997458277441034
30.163114532156392
27.160426967680326
24.231182755240273
21.314504484896478
18.616936490494414
-0.0
-0.0
-0.0
53.90356207392941
58.769585556415535
58.55282193674301
55.70015873012548
50.52031844131291
46.840326114013244
50.24970769600153
58.04641242192996
58.82619846987206
55.99632002671015
51.47471835787123
50.5376823544853
49.686400356456346
46.201531756008066
43.90497655781633
39.312253067738695
39.93985672810257
39.210853402087025
40.43462760030374
41.61768725415726
38.896650079301665
40.803388059118284
42.162973147351465
42.144797320548875
42.1285385349569
42.215916749370095
42.3598232879449
42.57412158686048
42.76577564316736
40.539473250922256
40.7586418516756
40.98717347862414
41.21055313652885
41.37595838201872
43.740160472480994
43.5510403937652
43.06297936850022
42.21929809808143
40.85512117903262
38.64101738423165
35.81865930472354
32.997458277441034
30.163114532156392
27.160426967680326
24.231182755240273
21.314504484896478
18.616936490494414

VECTORS Ftot float
124.51278032461501 35.825590944583844 20.683914575732896
149.1036542195836 79.03487955701452 45.63080898761197
151.82604389174335 116.54573671923343 67.28771246775267
1396.209659230411 -0.3262370769969984 -0.18835306422385364
1424.4541935030986 -213.73279257194775 -123.39868532606445
1515.6941012306427 -271.6244838689139 -156.82246888021055
1587.6035664033022 -258.0964423507503 -149.01205046809037
1567.1305438865486 -249.4219255257284 -144.00381584407404
1564.1984907937108 -263.2287100537785 -151.97516660798695
1785.5697002128704 -349.0479747572703 -201.52294218620364
2196.586999756468 -464.5510318038626 -268.2086632642784
2370.155918745632 -512.7850811698709 -296.05660464984896
2388.5486678968778 -537.7454691491104 -310.46749136874035
2325.319088322525 -512.2646292795264 -295.7561216108583
2413.3946312007206 -502.30542504408555 -290.0061723646121
2495.980289135109 -500.334246803662 -288.8681120768828
2434.948475143861 -461.9169185480579 -266.6878572669636
2417.3165530724596 -443.2954343978454 -255.93673838012808
2257.4435687896366 -390.0842764039396 -225.21526198845484
2380.7047628218525 -401.8873373130837 -232.02976238161074
2421.9379432350256 -400.32735635569065 -231.1291069559292
2587.273852371042 -398.3777002671308 -230.00347248837195
2747.769319394791 -415.703651414436 -240.0066150472349
2645.2875354477965 -392.5461050578803 -226.63659942450624
2853.2749792959826 -416.62026467553227 -240.53582196027165
3029.480943762474 -422.38752757191327 -243.86555274598453
3105.438710243451 -419.4199430301583 -242.15221701195932
3178.163460126299 -419.64239687096426 -242.2806507968309
3256.234920850449 -420.67919415234826 -242.87924598633296
3336.376424674313 -422.43296130537084 -243.8917839242265
3419.8689301871386 -425.47225829681656 -245.64652286038495
3499.512146314208 -428.24769753282084 -247.24892345041147
3375.169736313538 -409.6090791083638 -236.48791208572848
3449.599010686191 -412.40400505658437 -238.1015633342987
3522.6424846885548 -416.54141069783174 -240.49029559501952
3592.943161443119 -422.34566955953125 -243.841386011268
3656.8756170061997 -423.39394707764774 -244.44660931853804
3914.9628595362865 -449.5015270206271 -259.5198276265068
3944.3717560780656 -448.6495337875991 -259.0279291040704
3943.310220493128 -444.5399446649578 -256.6552567178546
3905.2850529877824 -439.141860481541 -253.53867136145072
3814.94408851551 -425.54784258165625 -245.69016146758366
3640.483021573917 -398.223915329999 -229.91468471352158
3401.593994822868 -369.0676137418002 -213.08128614300114
3156.441007197229 -340.1655574102284 -196.39467613983442
2903.68622704204 -314.366233165111 -181.49942934200544
2629.990127545614 -282.95263312634887 -163.36277890341088
2358.5755698335415 -252.003339715237 -145.49419602127674
2083.942972944635 -222.17694942209704 -128.27392155657753
1827.2231776755325 -193.85288703022624 -111.9210165100872
124.51278032461501 35.825590944583844 20.683914575732896
149.1036542195836 79.03487955701452 45.63080898761197
151.82604389174335 116.54573671923343 67.28771246775267
1396.209659230411 -0.3262370769969984 -0.18835306422385364
1424.4541935030986 -213.73279257194775 -123.39868532606445
1515.6941012306427 -271.6244838689139 -156.82246888021055
1587.6035664033022 -258.0964423507503 -149.01205046809037
1567.1305438865486 -249.4219255257284 -144.00381584407404
1564.1984907937108 -263.2287100537785 -151.97516660798695
1785.5697002128704 -349.0479747572703 -201.52294218620364
2196.586999756468 -464.5510318038626 -268.2086632642784
2370.155918745632 -512.7850811698709 -296.05660464984896
2388.5486678968778 -537.7454691491104 -310.46749136874035
2325.319088322525 -512.2646292795264 -295.7561216108583
2413.3946312007206 -502.30542504408555 -290.0061723646121
2495.980289135109 -500.334246803662 -288.8681120768828
2434.948475143861 -461.9169185480579 -266.6878572669636
2417.3165530724596 -443.2954343978454 -255.93673838012808
2257.4435687896366 -390.0842764039396 -225.21526198845484
2380.7047628218525 -401.8873373130837 -232.02976238161074
2421.9379432350256 -400.32735635569065 -231.1291069559292
2587.273852371042 -398.3777002671308 -230.00347248837195
2747.769319394791 -415.703651414436 -240.0066150472349
2645.2875354477965 -392.5461050578803 -226.63659942450624
2853.2749792959826 -416.62026467553227 -240.53582196027165
3029.480943762474 -422.38752757191327 -243.86555274598453
3105.438710243451 -419.4199430301583 -242.15221701195932
3178.163460126299 -419.64239687096426 -242.2806507968309
3256.234920850449 -420.67919415234826 -242.87924598633296
3336.376424674313 -422.43296130537084 -243.8917839242265
3419.8689301871386 -425.47225829681656 -245.64652286038495
3499.512146314208 -428.24769753282084 -247.24892345041147
3375.169736313538 -409.6090791083638 -236.48791208572848
3449.599010686191 -412.40400505658437 -238.1015633342987
3522.6424846885548 -416.54141069783174 -240.49029559501952
3592.943161443119 -422.34566955953125 -243.841386011268
3656.8756170061997 -423.39394707764774 -244.44660931853804
3914.9628595362865 -449.5015270206271 -259.5198276265068
3944.3717560780656 -448.6495337875991 -259.0279291040704
3943.310220493128 -444.5399446649578 -256.6552567178546
3905.2850529877824 -439.141860481541 -253.53867136145072
3814.94408851551 -425.54784258165625 -245.69016146758366
3640.483021573917 -398.223915329999 -229.91468471352158
3401.593994822868 -369.0676137418002 -213.08128614300114
3156.441007197229 -340.1655574102284 -196.39467613983442
2903.68622704204 -314.366233165111 -181.49942934200544
2629.990127545614 -282.95263312634887 -163.36277890341088
2358.5755698335415 -252.003339715237 -145.49419602127674
2083.942972944635 -222.17694942209704 -128.27392155657753
1827.2231776755325 -193.85288703022624 -111.9210165100872

VECTORS D float
99.7522473367769 -28.322721270283132 -17.226505210367442
67.82821109071098 -35.61435139542368 -21.345127623651702
18.221994839441944 -13.875229269614803 -8.270586980669894
598.4090871119496 -594.1068724812194 -353.1408656372572
589.6770254359817 -718.75777292757 -426.48023045670936
536.9840320091577 -773.0125033314594 -458.04367873299157
460.0646744679524 -761.1734605759914 -450.4888521897596
385.2546240138605 -717.884241645351 -424.4302316121763
339.7431214001694 -701.6023298233376 -413.9379481002574
360.4008755669344 -814.8528756676908 -480.5278509675984
409.41087058459385 -1003.3132395167746 -591.4073501495253
403.99351866899667 -1064.1835219218656 -627.0273732104072
379.0028097841147 -1065.647254307874 -627.6360684086613
336.74518994225105 -1004.6784443553822 -591.4917105980528
315.7416102872096 -994.5094362554265 -585.2765284167939
298.8987233131925 -990.3389324387286 -582.9489979971277
266.3634602224231 -924.0811865515811 -543.6305437039002
245.03552503886857 -887.1128662461666 -521.5998868463256
210.33506344525253 -792.2799185898652 -465.60571209495424
208.2205356831215 -813.5934652736842 -477.7521710487901
199.5809975957267 -807.266140410445 -473.8765413570248
196.84457365036198 -822.3522642050627 -482.5775637010244
198.44320934160316 -854.480689453213 -501.27846115193194
181.6963554215219 -804.8213195877842 -472.0085470256732
187.14985741951972 -851.2141815322349 -499.07762785292044
187.55554854114254 -874.4433846935577 -512.5594838518438
183.11611398404696 -873.7365100399792 -512.011921617595
179.64700325309582 -875.9234904250109 -513.1634701733052
176.87196714607498 -879.985918759123 -515.4156567386555
174.62059110575973 -885.313757617179 -518.4099332629875
172.99345037229986 -892.618152918914 -522.5617260911563
171.4699121958714 -899.3748674555716 -526.3926099212582
161.0623101780137 -857.7833836067779 -501.93227876861505
160.0689277520777 -864.7004130070342 -505.8630759943516
159.47351452716183 -872.9597476758526 -510.5788958980452
159.2789954543713 -882.7211676735387 -516.1186600296276
158.25435768295873 -887.1931409727122 -518.6209998589283
166.11316606025022 -941.2619819940904 -550.1115599209954
164.1995638228335 -939.6976360445889 -549.0848778461102
161.26185219868947 -931.4083533323942 -544.133836068624
157.5227509452598 -917.5752496041478 -535.9510260488012
151.5338259798919 -889.628674797261 -519.5337134342209
141.77374569541152 -838.335882921548 -489.4952640243872
130.68788059384306 -777.8791387515198 -454.12191317946593
119.82238624298819 -717.4779859001704 -418.7971590751405
109.58234375227995 -659.7067551411361 -385.0225264623021
98.258759814084 -594.3920849775249 -346.85960995331095
87.28232856217917 -530.2441435138853 -309.39102147761463
76.61875033043017 -467.18910277159995 -272.5721187797316
66.71325981856064 -408.0761921709476 -238.06351045766314
99.7522473367769 -28.322721270283132 -17.226505210367442
67.82821109071098 -35.61435139542368 -21.345127623651702
18.221994839441944 -13.875229269614803 -8.270586980669894
598.4090871119496 -594.1068724812194 -353.1408656372572
589.6770254359817 -718.75777292757 -426.48023045670936
536.9840320091577 -773.0125033314594 -458.04367873299157
460.0646744679524 -761.1734605759914 -450.4888521897596
385.2546240138605 -717.884241645351 -424.4302316121763
339.7431214001694 -701.6023298233376 -413.9379481002574
360.4008755669344 -814.8528756676908 -480.5278509675984
409.41087058459385 -1003.3132395167746 -591.4073501495253
403.99351866899667 -1064.1835219218656 -627.0273732104072
379.0028097841147 -1065.647254307874 -627.6360684086613
336.74518994225105 -1004.6784443553822 -591.4917105980528
315.7416102872096 -994.5094362554265 -585.2765284167939
298.8987233131925 -990.3389324387286 -582.9489979971277
266.3634602224231 -924.0811865515811 -543.6305437039002
245.03552503886857 -887.1128662461666 -521.5998868463256
210.33506344525253 -792.2799185898652 -465.60571209495424
208.2205356831215 -813.5934652736842 -477.7521710487901
199.5809975957267 -807.266140410445 -473.8765413570248
196.84457365036198 -822.3522642050627 -482.5775637010244
198.44320934160316 -854.480689453213 -501.27846115193194
181.6963554215219 -804.8213195877842 -472.0085470256732
187.14985741951972 -851.2141815322349 -499.07762785292044
187.55554854114254 -874.4433846935577 -512.5594838518438
183.11611398404696 -873.7365100399792 -512.011921617595
179.64700325309582 -875.9234904250109 -513.1634701733052
176.87196714607498 -879.985918759123 -515.4156567386555
174.62059110575973 -885.313757617179 -518.4099332629875
172.99345037229986 -892.618152918914 -522.5617260911563
171.4699121958714 -899.3748674555716 -526.3926099212582
161.0623101780137 -857.7833836067779 -501.93227876861505
160.0689277520777 -864.7004130070342 -505.8630759943516
159.47351452716183 -872.9597476758526 -510.5788958980452
159.2789954543713 -882.7211676735387 -516.1186600296276
158.25435768295873 -887.1931409727122 -518.6209998589283
166.11316606025022 -941.2619819940904 -550.1115599209954
164.1995638228335 -939.6976360445889 -549.0848778461102
161.26185219868947 -931.4083533323942 -544.133836068624
157.5227509452598 -917.5752496041478 -535.9510260488012
151.5338259798919 -889.628674797261 -519.5337134342209
141.77374569541152 -838.335882921548 -489.4952640243872
130.68788059384306 -777.8791387515198 -454.12191317946593
119.82238624298819 -717.4779859001704 -418.7971590751405
109.58234375227995 -659.7067551411361 -385.0225264623021
98.258759814084 -594.3920849775249 -346.85960995331095
87.28232856217917 -530.2441435138853 -309.39102147761463
76.61875033043017 -467.18910277159995 -272.5721187797316
66.71325981856064 -408.0761921709476 -238.06351045766314

VECTORS L float
24.760532987838108 64.14831221486698 37.910419786100334
81.27544312887262 114.64923095243819 66.97593661126366
133.6040490523014 130.42096598884825 75.55829944842256
797.8005721184617 593.7806354042224 352.9525125730334
834.7771680671168 505.02498035562246 303.08154513064505
978.7100692214851 501.38801946254534 301.221209852781
1127.53889193535 503.07701822524126 301.47680172166935
1181.8759198726882 468.4623161196226 280.42641576810223
1224.4553693935413 438.37361976955924 261.9627814922705
1425.1688246459364 465.80490091042043 279.00490878139476
1787.1761291718744 538.7622077129123 323.198686885247
1966.1624000766353 551.3984407519949 330.97076856055827
2009.5458581127639 527.9017851587637 317.16857703992105
1988.5738983802744 492.41381507585595 295.7355889871947
2097.6530209135117 492.20401121134097 295.2703560521816
2197.0815658219167 490.0046856350663 294.0808859202447
2168.585014921438 462.1642680035232 276.9426864369366
2172.2810280335916 443.8174318483213 265.66314846619764
2047.1085053443842 402.1956421859257 240.39045010649946
2172.4842271387306 411.70612796060044 245.7224086671794
2222.3569456392993 406.9387840547543 242.74743440109552
2390.42927872068 423.9745639379319 252.57409121265243
2549.3261100531877 438.7770380387768 261.2718461046971
2463.5911800262747 412.27521452990396 245.37194760116697
2666.1251218764623 434.59391685670255 258.54180589264894
2841.925395221332 452.0558571216445 268.69393110585935
2922.3225962594042 454.31656700982074 269.85970460563567
2998.516456873203 456.28109355404666 270.8828193764744
3079.3629537043744 459.3067246067748 272.5364107523225
3161.755833568554 462.88079631180835 274.518149338761
3246.8754798148393 467.1458946220977 276.9152032307715
3328.042234118337 471.12716992275074 279.1436864708467
3214.1074261355243 448.174304498414 265.44436668288654
3289.530082934114 452.2964079504499 267.761512660053
3363.1689701613936 456.4183369780212 270.0886003030257
3433.6641659887478 460.37549811400766 272.27727401835966
3498.6212593232412 463.79919389506455 274.17439054039033
3748.849693476037 491.7604549734631 290.5917322944886
3780.1721922552333 491.04810225699015 290.05694874203994
3782.0483682944387 486.8684086674364 287.4785793507693
3747.7623020425226 478.43338912260685 282.4123546873506
3663.410262535619 464.0808322156048 273.84355196663716
3498.709275878506 440.1119675915491 259.58057931086574
3270.9061142290257 408.81152500972 241.04062703646503
3036.6186209542416 377.31242848994196 222.40248293530604
2794.1038832897602 345.3405219760251 203.5230971202966
2531.7313677315306 311.43945185117593 183.49683104990007
2271.293241271363 278.2408037986483 163.89682545633795
2007.3242226142054 245.01215334950297 144.29819722315412
1760.509917856972 214.2233051407214 126.14249394757597
24.760532987838108 64.14831221486698 37.910419786100334