# vtk DataFile Version 4.0
[MyVLM domain - lattices] 
ASCII
DATASET UNSTRUCTURED_GRID
POINTS 152 float
0.0 -2.0851063963073795 0.837349995179893
0.0 -2.9937061705550696 2.8865351954843006
0.0 -3.8545361425842355 4.909394944634005
0.0 -4.707933978999691 6.891247532665102
0.0 -5.554222903579236 8.831975315743467
0.0 -6.358713237785293 10.744204304293035
0.0 -7.092669752358572 12.638393266439007
0.0 -7.748675337076149 14.5172418095268
0.0 -8.371961457123716 16.364287026576573
0.0 -8.98104847423642 18.17278805718889
0.0 -9.57570315395222 19.942829791765536
0.0 -10.155584159853852 21.67453646660227
0.0 -10.720316111402614 23.3680447090417
0.0 -11.266809703751886 25.02447893409257
0.0 -11.797125985702346 26.643088981340068
0.0 -12.315782837921393 28.222230476699288
0.0 -12.823452772853361 29.761658645658315
0.0 -13.31902754969526 31.261776854881848
0.0 -13.801708741083678 32.722875708164395
0.0 -14.27149657725527 34.144955121706644
0.0 -14.728391282297956 35.5280150139473
0.0 -15.172393074150882 36.87205530556295
0.0 -15.603502164604457 38.17707591946823
0.0 -16.021718759300324 39.443076780815694
0.0 -16.42704305773138 40.67005781699586
0.0 -16.81947525324177 41.858018957637206
0.0 -17.19901553302688 43.006960134606196
0.0 -17.56566407813334 44.116881282007256
0.0 -17.91942256418675 45.18778178996253
0.0 -18.2603117732375 46.219654094424264
0.0 -18.58833592989952 47.21249665775874
0.0 -18.903492060585826 48.166310562263114
0.0 -19.205777308575296 49.081096847698845
0.0 -19.495188934012678 49.95685651129168
0.0 -19.77172431390858 50.79359050773169
0.0 -20.035380942139483 51.59129974917323
0.0 -20.285759888548803 52.35012943431886
0.0 -20.52159966522427 53.070538707219534
0.0 -20.740898465826533 53.75325616579753
0.0 -20.94261492488396 54.398660836087515
0.0 -21.127478699074835 55.00648714477737
0.0 -21.295251036841734 55.57682199032739
0.0 -21.43486547904629 56.11369323446264
0.0 -21.54657324506138 56.61700944080912
0.0 -21.638753232958592 57.08372093987285
0.0 -21.71711542520861 57.511749467996296
0.0 -21.783105650090775 57.90056878672193
0.0 -21.835341680031277 58.250681985743576
0.0 -21.875035169853433 58.561648058771375
0.0 -21.90458654963588 58.832593320707254
0.0 -21.926073803625794 59.06276144713797
-0.7686761955390344 0.9716435669303517 1.9499159953927414
-0.8409029948616161 0.3459871402362795 4.1020841521903035
-0.8940476007249757 -0.30202547746725594 6.202403083649822
-0.9506443374492793 -0.9283543988266243 8.266901997888457
-1.0210144815146838 -1.5343553443194644 10.29508745300636
-1.048631451549771 -2.1487074476107066 12.276521098004956
-0.9920275022819518 -2.7909572047608533 14.20408859013402
-0.9074715353829097 -3.479964131219362 16.070925627137267
-0.8388231939293685 -4.17802833746539 17.89075384663541
-0.7803448823218929 -4.866001241407252 19.670542762538215
-0.7251531968841737 -5.541788191193862 21.411054765770643
-0.671766762046156 -6.202430703728193 23.11336665611858
-0.6188683613166902 -6.851902919556681 24.77603196471634
-0.5668565661826578 -7.491509974132705 26.398575661107206
-0.5162677046190278 -8.120464972460582 27.981284151647092
-0.4681223452427161 -8.733476643402271 29.526083301531685
-0.42442582165628834 -9.329936058929254 31.033194742438177
-0.3846819074085718 -9.91095548412564 32.502213642983335
-0.3476243488905531 -10.47724049114204 33.93288319590621
-0.3131098246080671 -11.028740095628308 35.32522195799267
-0.28048746260446866 -11.56536773023939 36.679261437179576
-0.2502235469699514 -12.087134461522934 37.994997605572976
-0.2227998260917326 -12.59403985396543 39.27243062168683
-0.19746739264611052 -13.085999271832272 40.5115912904093
-0.17533279734900953 -13.563046450136067 41.71246733319994
-0.15613374469432648 -14.025126363815449 42.87507877754321
-0.13998404755873647 -14.472209613626646 43.99943632388877
-0.12578653595324127 -14.904218573247622 45.085568225907245
-0.11250427274737486 -15.32109602321552 46.133495309779924
-0.10008179164308317 -15.722830714822601 47.14322166970159
-0.08845752889585208 -16.109414472742795 48.114750281247595
-0.07764231497362577 -16.480843019982004 49.048082701116485
-0.06766212708627829 -16.837112238819486 49.94322042803605
-0.0584684819534103 -17.178216007509683 50.80016569013943
-0.050013688763705585 -17.504148793760322 51.61892050101636
-0.042252254921319045 -17.814905649488054 52.39948666162189
-0.03513536582041269 -18.11079161491084 53.141753146396425
-0.028615518964613278 -18.392788368183552 53.84536265371198
-0.022687693716904638 -18.663534784876617 54.50935471140897
-0.017408965386693863 -18.924395801880625 55.13323252308758
-0.013252482528008399 -19.173149909370196 55.71780465219936
-0.010166684094042405 -19.409910607905672 56.263029787918796
-0.00760098697125575 -19.647792142464475 56.76413473542921
-0.005464879873870877 -19.88683732697172 57.22110391173624
-0.0039015967321000085 -20.117163003292383 57.637534492221626
-0.002883995165670249 -20.332227641240703 58.0158073991595
-0.0022477517166190047 -20.53087309751273 58.35634416223952
-0.00179874084072329 -20.71558139934094 58.658241397428434
-0.0014595970466816986 -20.885360682681274 58.921860113714715
-0.0012027506489664258 -21.03758858866742 59.14815477166926
-0.0010073243559101815 -21.169995033214335 59.33795161432833
-0.603592196400244 -0.1407400556703191 2.734985704176666
-0.6506064733449719 -0.8395446656040292 4.838673980954835
-0.6917594768153456 -1.531701218808196 6.9010697152392435
-0.7393720571114861 -2.206285764002149 8.926148900136628
-0.7761172248991705 -2.8702655646443804 10.911375659133807
-0.7652471076868961 -3.5337971184073185 12.853053329393623
-0.712312139124323 -4.206763637171921 14.747584715972456
-0.6548605234921042 -4.886826775031766 16.595820907177675
-0.607188028594223 -5.560637333497258 18.40262061391079
-0.564561779702275 -6.222514990748998 20.170051304235127
-0.5238449845988737 -6.870492999821529 21.898828815504437
-0.48398817126106725 -7.504862642638886 23.58884712976859
-0.4446468478122555 -8.127170562027832 25.239543315075608
-0.4061716015506322 -8.737482566154263 26.850893419211943
-0.369146268698154 -9.334341708901537 28.42342772719696
-0.3347055625871267 -9.916184214721167 29.9577154067834
-0.3034153983993225 -10.483144368964163 31.453707582100588
-0.27461484611217185 -11.035665527072746 32.91124288496436
-0.24777531506198255 -11.57389338483125 34.33026828644596
-0.22259898270470088 -12.09777641714454 35.71080254014633
-0.19901662859040753 -12.607286366466976 37.052855930970985
-0.1773837648981315 -13.102427273152552 38.35642698835133
-0.15760020702669117 -13.583167287662233 39.62152730457154
-0.13980007124817 -14.049487372867091 40.848163808579905
-0.124299953266251 -14.501379594103463 42.03633938835781
-0.11104417209489861 -14.938812339824366 43.18606554956742
-0.09966396881699166 -15.361745521472876 44.29735688325019
-0.08935905326273105 -15.77012880396369 45.37023170987891
-0.07971977414642176 -16.163939318942326 46.40469835285391
-0.07070224520210072 -16.543172908229153 47.400758325628814
-0.06228744145105419 -16.907825058582468 48.358413270889265
-0.05448916577246402 -17.257891893195698 49.27766459967744
-0.04729897838988322 -17.593368872696935 50.158513964189616
-0.04068081401891846 -17.914250956466407 51.00096319906134
-0.03459972888188424 -18.22053357322415 51.80501396810246
-0.029020357778149403 -18.51227907798562 52.570643575943386
-0.023906581794384738 -18.789762437882032 53.29775194273296
-0.019238704755569217 -19.053933448778913 53.985993371047485
-0.015036247163849435 -19.30591314387278 54.63495983817183
-0.011498042968013347 -19.545341344713908 55.244782438340714
-0.00878218748326905 -19.77148891096802 55.8157265569324
-0.006662876649486808 -19.98790309587481 56.346501099354256
-0.004899700066922485 -20.198165891552033 56.835802327096026
-0.0035124287272390825 -20.399665933601533 57.28458069906945
-0.0025445969616638467 -20.588005073970805 57.694437010251576
-0.0019244050808584702 -20.761190411444957 58.066096617364416
-0.0015174347090033604 -20.919726352585382 58.399375931433674
-0.0012218767077768707 -21.064150386993916 58.69407932224305
-0.0009983803858680466 -21.193558691691923 58.95053575445382
-0.0008287781268287279 -21.306676402363365 59.16920924072976

CELLS 100 350
4 0 51 52 1
4 1 52 53 2
4 2 53 54 3
4 3 54 55 4
4 4 55 56 5
4 5 56 57 6
4 6 57 58 7
4 7 58 59 8
4 8 59 60 9
4 9 60 61 10
4 10 61 62 11
4 11 62 63 12
4 12 63 64 13
4 13 64 65 14
4 14 65 66 15
4 15 66 67 16
4 16 67 68 17
4 17 68 69 18
4 18 69 70 19
4 19 70 71 20
4 20 71 72 21
4 21 72 73 22
4 22 73 74 23
4 23 74 75 24
4 24 75 76 25
4 25 76 77 26
4 26 77 78 27
4 27 78 79 28
4 28 79 80 29
4 29 80 81 30
4 30 81 82 31
4 31 82 83 32
4 32 83 84 33
4 33 84 85 34
4 34 85 86 35
4 35 86 87 36
4 36 87 88 37
4 37 88 89 38
4 38 89 90 39
4 39 90 91 40
4 40 91 92 41
4 41 92 93 42
4 42 93 94 43
4 43 94 95 44
4 44 95 96 45
4 45 96 97 46
4 46 97 98 47
4 47 98 99 48
4 48 99 100 49
4 49 100 101 50
1 102
1 103
1 104
1 105
1 106
1 107
1 108
1 109
1 110
1 111
1 112
1 113
1 114
1 115
1 116
1 117
1 118
1 119
1 120
1 121
1 122
1 123
1 124
1 125
1 126
1 127
1 128
1 129
1 130
1 131
1 132
1 133
1 134
1 135
1 136
1 137
1 138
1 139
1 140
1 141
1 142
1 143
1 144
1 145
1 146
1 147
1 148
1 149
1 150
1 151

CELL_TYPES 100
9
9
9
9
9
9
9
9
9
9
9
9
9
9
9
9
9
9
9
9
9
9
9
9
9
9
9
9
9
9
9
9
9
9
9
9
9
9
9
9
9
9
9
9
9
9
9
9
9
9
1
1
1
1
1
1
1
1
1
1
1
1
1
1
1
1
1
1
1
1
1
1
1
1
1
1
1
1
1
1
1
1
1
1
1
1
1
1
1
1
1
1
1
1
1
1
1
1
1
1

CELL_DATA 100

VECTORS S float
-3.5158351120132096e-18 -1.643532596182287e-16 8.728324868938715e-16
-0.0 -0.0 0.0
-5.1125109560199825e-17 -1.2887644528630756e-15 6.987386517314878e-15
0.0 -0.0 0.0
-1.905457877498521e-17 1.3440447066854477e-15 -6.977125388267241e-15
0.0 -0.0 0.0
-1.9348882396825838e-17 1.3335869999096999e-15 -6.979130982333445e-15
0.0 -0.0 0.0
1.876035505821372e-17 -1.3262936753149717e-15 6.980522263415709e-15
-4.1358166996799716e-17 2.6475119688668624e-15 -1.3961997049609645e-14
-8.698685017527948e-17 5.287144683874049e-15 -2.7925474057318972e-14
-8.831165646474327e-17 5.279538973987471e-15 -2.7926908819627637e-14
0.0 -0.0 0.0
0.0 -0.0 0.0
0.0 -0.0 0.0
0.0 -0.0 0.0
-3.323155846520207e-17 2.622883384146832e-15 -1.396666639371283e-14
0.0 -0.0 0.0
0.0 -0.0 0.0
-2.808084495074896e-17 2.617003670744373e-15 -1.3967780603590404e-14
0.0 -0.0 0.0
-2.502215791924204e-17 2.6127729931149343e-15 -1.3968578414235336e-14
0.0 -0.0 0.0
2.3489535761381078e-17 -2.609640029669855e-15 1.3969166721527575e-14
2.286988116584694e-17 -2.6081679719623202e-15 1.3969442670885066e-14
4.26750606000872e-17 -5.213140876278498e-15 2.7939486537686996e-14
0.0 -0.0 0.0
0.0 -0.0 0.0
3.835977462874248e-17 -5.204363882663377e-15 2.7941129040374075e-14
1.859928788077115e-17 -2.6006433659549482e-15 1.3970851795298091e-14
-1.7980949076226728e-17 2.598272498131254e-15 -1.3971293728481414e-14
-1.749244173589216e-17 2.5967391917766384e-15 -1.3971579413972934e-14
0.0 -0.0 0.0
-1.664608615239078e-17 2.5936803474027456e-15 -1.3972148614293062e-14
0.0 -0.0 0.0
0.0 -0.0 0.0
1.5612303477797438e-17 -2.589164325732849e-15 1.397298737160066e-14
-3.079275504618575e-17 5.175424478782944e-15 -2.7946513203205994e-14
-1.516734889722944e-17 2.5869186482366266e-15 -1.397340379419102e-14
0.0 -0.0 0.0
-1.475126072243206e-17 2.584357166900131e-15 -1.3973878207955658e-14
0.0 -0.0 0.0
0.0 -0.0 0.0
0.0 -0.0 0.0
-6.751010960869159e-18 1.2898761211455578e-15 -6.987365165074332e-15
6.7293558510679095e-18 -1.2894027522538175e-15 6.987452553856439e-15
0.0 -0.0 0.0
-1.3088337941597179e-17 2.5771175853515918e-15 -1.397521682777267e-14
0.0 -0.0 0.0
-6.4227796061662e-18 1.287900845513996e-15 -6.98772982406813e-15
-3.5158351120132096e-18 -1.643532596182287e-16 8.728324868938715e-16
-0.0 -0.0 0.0
-5.1125109560199825e-17 -1.2887644528630756e-15 6.987386517314878e-15
0.0 -0.0 0.0
-1.905457877498521e-17 1.3440447066854477e-15 -6.977125388267241e-15
0.0 -0.0 0.0
-1.9348882396825838e-17 1.3335869999096999e-15 -6.979130982333445e-15
0.0 -0.0 0.0
1.876035505821372e-17 -1.3262936753149717e-15 6.980522263415709e-15
-4.1358166996799716e-17 2.6475119688668624e-15 -1.3961997049609645e-14
-8.698685017527948e-17 5.287144683874049e-15 -2.7925474057318972e-14
-8.831165646474327e-17 5.279538973987471e-15 -2.7926908819627637e-14
0.0 -0.0 0.0
0.0 -0.0 0.0
0.0 -0.0 0.0
0.0 -0.0 0.0
-3.323155846520207e-17 2.622883384146832e-15 -1.396666639371283e-14
0.0 -0.0 0.0
0.0 -0.0 0.0
-2.808084495074896e-17 2.617003670744373e-15 -1.3967780603590404e-14
0.0 -0.0 0.0
-2.502215791924204e-17 2.6127729931149343e-15 -1.3968578414235336e-14
0.0 -0.0 0.0
2.3489535761381078e-17 -2.609640029669855e-15 1.3969166721527575e-14
2.286988116584694e-17 -2.6081679719623202e-15 1.3969442670885066e-14
4.26750606000872e-17 -5.213140876278498e-15 2.7939486537686996e-14
0.0 -0.0 0.0
0.0 -0.0 0.0
3.835977462874248e-17 -5.204363882663377e-15 2.7941129040374075e-14
1.859928788077115e-17 -2.6006433659549482e-15 1.3970851795298091e-14
-1.7980949076226728e-17 2.598272498131254e-15 -1.3971293728481414e-14
-1.749244173589216e-17 2.5967391917766384e-15 -1.3971579413972934e-14
0.0 -0.0 0.0
-1.664608615239078e-17 2.5936803474027456e-15 -1.3972148614293062e-14
0.0 -0.0 0.0
0.0 -0.0 0.0
1.5612303477797438e-17 -2.589164325732849e-15 1.397298737160066e-14
-3.079275504618575e-17 5.175424478782944e-15 -2.7946513203205994e-14
-1.516734889722944e-17 2.5869186482366266e-15 -1.397340379419102e-14
0.0 -0.0 0.0
-1.475126072243206e-17 2.584357166900131e-15 -1.3973878207955658e-14
0.0 -0.0 0.0
0.0 -0.0 0.0
0.0 -0.0 0.0
-6.751010960869159e-18 1.2898761211455578e-15 -6.987365165074332e-15
6.7293558510679095e-18 -1.2894027522538175e-15 6.987452553856439e-15
0.0 -0.0 0.0
-1.3088337941597179e-17 2.5771175853515918e-15 -1.397521682777267e-14
0.0 -0.0 0.0
-6.4227796061662e-18 1.287900845513996e-15 -6.98772982406813e-15

SCALARS Gamma float
LOOKUP_TABLE default
-0.0
-0.0
-0.0
51.169810791926416
54.75615774062002
54.80058648498918
52.664736228517086
47.97111059757688
44.92482111301084
47.495901868696514
54.07037188092218
54.70932232895882
50.744574380524384
45.878515150166734
44.94008154437982
44.15412932889442
40.56828633875885
38.39618729094457
33.6623114011514
33.98122339706968
33.41570066726802
35.0553920891142
36.69712070103425
34.651613950907524
36.74622997218509
38.003976246004385
38.11597914594287
38.22775297272702
38.444841036013294
38.71953963353193
39.09574774617519
39.38956995005547
37.41327367576283
37.72250955820585
38.03638528377468
38.34108846886219
38.590908726498775
40.91798908103678
40.852793900242986
40.48212300779965
39.75697250959686
38.525451969377144
36.483669324415644
33.85890918774948
31.191299649069425
28.55996837862039
25.726293748270187
22.99574136257333
20.23232265155072
17.674836250054092
-0.0
-0.0
-0.0
51.169810791926416
54.75615774062002
54.80058648498918
52.664736228517086
47.97111059757688
44.92482111301084
47.495901868696514
54.07037188092218
54.70932232895882
50.744574380524384
45.878515150166734
44.94008154437982
44.15412932889442
40.56828633875885
38.39618729094457
33.6623114011514
33.98122339706968
33.41570066726802
35.0553920891142
36.69712070103425
34.651613950907524
36.74622997218509
38.003976246004385
38.11597914594287
38.22775297272702
38.444841036013294
38.71953963353193
39.09574774617519
39.38956995005547
37.41327367576283
37.72250955820585
38.03638528377468
38.34108846886219
38.590908726498775
40.91798908103678
40.852793900242986
40.48212300779965
39.75697250959686
38.525451969377144
36.483669324415644
33.85890918774948
31.191299649069425
28.55996837862039
25.726293748270187
22.99574136257333
20.23232265155072
17.674836250054092

VECTORS Ftot float
115.40172178857016 -38.8286080104141 -6.846531215588907
139.07522828200905 -86.49290043688583 -15.251031986754112
142.48501587463616 -128.47623437007732 -22.65382649926909
1271.057970849397 12.628401399578614 2.226727889962274
1298.9141683596083 217.5096654715347 38.35282258750438
1392.6235393609932 283.45282264979676 49.980380391131185
1475.5431716890669 277.2450174769728 48.88577684818074
1465.5351735345203 271.4927609158664 47.871498816500385
1480.5486486372192 291.02926914271916 51.316312325727445
1672.549697831052 372.63189044030764 65.70505615702766
2031.420393840547 486.62127699523734 85.80446052106872
2188.344271431516 543.9680035572524 95.91623566926286
2154.2731975547954 545.1442340624969 96.12363684286983
2066.463572684489 502.19177449712765 88.54995933370576
2141.5085455747285 489.00880919994205 86.22544686606852
2213.4243537566877 487.2732815989919 85.91942652425676
2134.448026895161 442.8117562689135 78.07966000511102
2111.5398569694376 420.88107349558356 74.21268892681458
1930.8846838116071 363.12941371384215 64.02951312659752
2025.5570960100779 369.0897988998607 65.08048985030764
2064.891197815621 367.4714885774947 64.7951380773155
2243.3310094652384 374.8803330440719 66.10151725264569
2423.6470265915905 396.83330905873834 69.97241923087722
2357.6448592584065 378.0228440038163 66.6556267220207
2570.9368723080934 405.5573225319467 71.51069818626803
2732.940116052855 406.85894934538567 71.74021011229091
2810.7994492121443 406.28038342353625 71.63819333015039
2886.204700620845 408.18324037427095 71.97371835099356
2968.0357507643803 410.1502520844342 72.32055558686486
3052.3998099180603 413.7776243457049 72.96015918560035
3143.323670838999 419.4228872426185 73.95557134751867
3226.173758022456 423.7627039634672 74.72079812673401
3117.492702979132 408.1873065048575 71.97443531952305
3195.8145152272214 409.17116936286783 72.14791688670722
3272.216787373532 415.2033933927578 73.21156073685478
3346.074226176612 422.2574450166914 74.45538036146465
3413.954514151755 425.2081557484138 74.97567027573332
3665.414237180701 455.6645892393768 80.34596123634307
3703.103165027566 456.5228642971463 80.49729828589695
3710.038721314694 453.6652361194781 79.99342133734126
3680.2839214128694 450.9585172092323 79.51615376427111
3600.543322158471 434.59276981311115 76.63043093887562
3440.145274730662 407.3454622381105 71.82599546174082
3218.168239106513 378.1699712777756 66.6815692300178
2986.1369101604046 348.68808610941966 61.48311743268788
2751.635292723366 323.0056701152901 56.95461456314417
2493.175128301708 290.86446072110294 51.28725215434853
2240.1428861720856 259.6740744923269 45.787545523497506
1979.736289827708 229.09089716115608 40.394906204220526
1736.156403869379 199.92543717634013 35.25224870412433
115.40172178857016 -38.8286080104141 -6.846531215588907
139.07522828200905 -86.49290043688583 -15.251031986754112
142.48501587463616 -128.47623437007732 -22.65382649926909
1271.057970849397 12.628401399578614 2.226727889962274
1298.9141683596083 217.5096654715347 38.35282258750438
1392.6235393609932 283.45282264979676 49.980380391131185
1475.5431716890669 277.2450174769728 48.88577684818074
1465.5351735345203 271.4927609158664 47.871498816500385
1480.5486486372192 291.02926914271916 51.316312325727445
1672.549697831052 372.63189044030764 65.70505615702766
2031.420393840547 486.62127699523734 85.80446052106872
2188.344271431516 543.9680035572524 95.91623566926286
2154.2731975547954 545.1442340624969 96.12363684286983
2066.463572684489 502.19177449712765 88.54995933370576
2141.5085455747285 489.00880919994205 86.22544686606852
2213.4243537566877 487.2732815989919 85.91942652425676
2134.448026895161 442.8117562689135 78.07966000511102
2111.5398569694376 420.88107349558356 74.21268892681458
1930.8846838116071 363.12941371384215 64.02951312659752
2025.5570960100779 369.0897988998607 65.08048985030764
2064.891197815621 367.4714885774947 64.7951380773155
2243.3310094652384 374.8803330440719 66.10151725264569
2423.6470265915905 396.83330905873834 69.97241923087722
2357.6448592584065 378.0228440038163 66.6556267220207
2570.9368723080934 405.5573225319467 71.51069818626803
2732.940116052855 406.85894934538567 71.74021011229091
2810.7994492121443 406.28038342353625 71.63819333015039
2886.204700620845 408.18324037427095 71.97371835099356
2968.0357507643803 410.1502520844342 72.32055558686486
3052.3998099180603 413.7776243457049 72.96015918560035
3143.323670838999 419.4228872426185 73.95557134751867
3226.173758022456 423.7627039634672 74.72079812673401
3117.492702979132 408.1873065048575 71.97443531952305
3195.8145152272214 409.17116936286783 72.14791688670722
3272.216787373532 415.2033933927578 73.21156073685478
3346.074226176612 422.2574450166914 74.45538036146465
3413.954514151755 425.2081557484138 74.97567027573332
3665.414237180701 455.6645892393768 80.34596123634307
3703.103165027566 456.5228642971463 80.49729828589695
3710.038721314694 453.6652361194781 79.99342133734126
3680.2839214128694 450.9585172092323 79.51615376427111
3600.543322158471 434.59276981311115 76.63043093887562
3440.145274730662 407.3454622381105 71.82599546174082
3218.168239106513 378.1699712777756 66.6815692300178
2986.1369101604046 348.68808610941966 61.48311743268788
2751.635292723366 323.0056701152901 56.95461456314417
2493.175128301708 290.86446072110294 51.28725215434853
2240.1428861720856 259.6740744923269 45.787545523497506
1979.736289827708 229.09089716115608 40.394906204220526
1736.156403869379 199.92543717634013 35.25224870412433

VECTORS D float
91.27139886830933 30.58411952265428 6.12659932491228
59.768310926018984 37.054416941180925 7.214132897040208
12.531027824584282 11.267692301737986 2.1699173842953683
530.417617474185 621.9205807375341 119.090417684653
514.9590356320393 741.9470263467069 141.51926344227238
472.8170648951152 804.4704073380353 152.98034040277437
410.32495399366235 802.3856380674648 152.18395087443983
345.80094623732157 761.6512821511768 144.13645355436967
308.5749708382341 753.6704744410474 142.36748627193776
320.830888013196 859.2149802229993 161.97632462536163
358.862463519634 1041.9183777047567 196.14911049035717
355.5567213783559 1109.8964697526587 208.6998566064672
322.51994613718483 1074.890111598074 201.90684743101806
279.6308260691706 989.1229433422238 185.6220697495835
261.04032245113393 974.6018660348524 182.67216926252826
247.2159426141757 970.2850596257981 181.75629411835317
217.1641725097099 892.6046936765633 167.1108373298786
198.3531235064595 850.9372176879557 159.22377337620378
166.7155155858131 744.2534941081549 139.1893271336579
163.34158204902565 756.7597267203157 141.45813634495045
156.56203803297126 751.1311939410401 140.2990630790388
157.68990801415725 781.0690381372501 145.81371750377673
161.5616776411386 824.4633249352477 153.83516449292668
149.41534317364224 784.0205925255806 146.21500809678238
155.64253515201196 838.2326557690396 156.24761065776713
155.40746636041538 857.5597030554225 159.771995551225
152.47985767900383 860.7101866321808 160.2812995109409
150.2261222086584 866.1208960113726 161.21119265898488
148.44795134112886 872.9020919649436 162.38447931040977
147.26640923465072 881.9494769745737 163.9769027420249
146.86555215924238 894.3578469232818 166.13669859380377
146.14156971407053 904.2504213124199 167.87981271203375
137.9291667577573 866.1809379783722 160.72070309912556
137.10230156226015 872.9310980805336 161.88075860364884
137.15616272278254 884.5199565373025 163.9360686030783
137.43960997401777 896.9388824648244 166.14298440405057
137.10933154779423 904.6969693977761 167.4851958304959
144.85333706489348 965.6042718899553 178.66098414230822
143.76441590884394 967.3138987883732 178.92432475603334
141.6346198479814 961.3338689398973 177.72922066847863
138.95289420808672 950.7536601636417 175.68761289418765
133.51243710761102 920.3191042502343 169.98363881780298
125.16461136343595 868.6549606881663 160.36871504618918
115.60112773173788 807.2713356091933 148.9722395116679
106.05701781721102 744.8000004700484 137.38851782702588
97.22467183512155 686.2428830935742 126.53956444729997
87.24876716482699 618.6232722349502 114.03183781608588
77.69633496329652 553.0987465113851 101.92211024239282
68.25346818841284 487.56870859111655 89.82199154153722
59.45692648717465 425.9902722401677 78.45915152237241
91.27139886830933 30.58411952265428 6.12659932491228
59.768310926018984 37.054416941180925 7.214132897040208
12.531027824584282 11.267692301737986 2.1699173842953683
530.417617474185 621.9205807375341 119.090417684653
514.9590356320393 741.9470263467069 141.51926344227238
472.8170648951152 804.4704073380353 152.98034040277437
410.32495399366235 802.3856380674648 152.18395087443983
345.80094623732157 761.6512821511768 144.13645355436967
308.5749708382341 753.6704744410474 142.36748627193776
320.830888013196 859.2149802229993 161.97632462536163
358.862463519634 1041.9183777047567 196.14911049035717
355.5567213783559 1109.8964697526587 208.6998566064672
322.51994613718483 1074.890111598074 201.90684743101806
279.6308260691706 989.1229433422238 185.6220697495835
261.04032245113393 974.6018660348524 182.67216926252826
247.2159426141757 970.2850596257981 181.75629411835317
217.1641725097099 892.6046936765633 167.1108373298786
198.3531235064595 850.9372176879557 159.22377337620378
166.7155155858131 744.2534941081549 139.1893271336579
163.34158204902565 756.7597267203157 141.45813634495045
156.56203803297126 751.1311939410401 140.2990630790388
157.68990801415725 781.0690381372501 145.81371750377673
161.5616776411386 824.4633249352477 153.83516449292668
149.41534317364224 784.0205925255806 146.21500809678238
155.64253515201196 838.2326557690396 156.24761065776713
155.40746636041538 857.5597030554225 159.771995551225
152.47985767900383 860.7101866321808 160.2812995109409
150.2261222086584 866.1208960113726 161.21119265898488
148.44795134112886 872.9020919649436 162.38447931040977
147.26640923465072 881.9494769745737 163.9769027420249
146.86555215924238 894.3578469232818 166.13669859380377
146.14156971407053 904.2504213124199 167.87981271203375
137.9291667577573 866.1809379783722 160.72070309912556
137.10230156226015 872.9310980805336 161.88075860364884
137.15616272278254 884.5199565373025 163.9360686030783
137.43960997401777 896.9388824648244 166.14298440405057
137.10933154779423 904.6969693977761 167.4851958304959
144.85333706489348 965.6042718899553 178.66098414230822
143.76441590884394 967.3138987883732 178.92432475603334
141.6346198479814 961.3338689398973 177.72922066847863
138.95289420808672 950.7536601636417 175.68761289418765
133.51243710761102 920.3191042502343 169.98363881780298
125.16461136343595 868.6549606881663 160.36871504618918
115.60112773173788 807.2713356091933 148.9722395116679
106.05701781721102 744.8000004700484 137.38851782702588
97.22467183512155 686.2428830935742 126.53956444729997
87.24876716482699 618.6232722349502 114.03183781608588
77.69633496329652 553.0987465113851 101.92211024239282
68.25346818841284 487.56870859111655 89.82199154153722
59.45692648717465 425.9902722401677 78.45915152237241

VECTORS L float
24.130322920260827 -69.41272753306839 -12.973130540501193
79.30691735599008 -123.54731737806675 -22.465164883794326
129.9539880500519 -139.74392667181533 -24.82374388356447
740.6403533752122 -609.2921793379555 -116.86368979469071
783.9551327275692 -524.4373608751722 -103.166440854768
919.8064744658777 -521.0175846882388 -102.99996001164324
1065.2182176954047 -525.140620590492 -103.29817402625913
1119.734227297199 -490.15852123531056 -96.26495473786932
1171.9736777989854 -462.6412052983281 -91.05117394621031
1351.7188098178565 -486.5830897826915 -96.27126846833399
1672.5579303209124 -555.2971007095194 -110.34464996928848
1832.7875500531597 -565.9284661954064 -112.78362093720432
1831.753251417611 -529.7458775355774 -105.78321058814826
1786.8327466153185 -486.9311688450966 -97.0721104158778
1880.4682231235943 -485.5930568349105 -96.44672239645976
1966.2084111425117 -483.0117780268063 -95.83686759409639
1917.283854385451 -449.79293740764973 -89.03117732476754
1913.1867334629783 -430.05614419237173 -85.01108444938917
1764.1691682257942 -381.1240803943129 -75.15981400706045
1862.2155139610527 -387.66992782045514 -76.37764649464283
1908.3291597826503 -383.6597053635454 -75.50392500172333
2085.6411014510822 -406.18870509317816 -79.71220025113104
2262.0853489504516 -427.63001587650945 -83.86274526204947
2208.2295160847652 -405.9977485217643 -79.55938137476168
2415.294337156082 -432.6753332370931 -84.73691247149917
2577.53264969244 -450.70075371003696 -88.0317854389341
2658.3195915331407 -454.4298032086444 -88.6431061807905
2735.978578412187 -457.9376556371018 -89.23747430799135
2819.5877994232515 -462.7518398805092 -90.0639237235449
2905.13340068341 -468.1718526288687 -91.01674355642453
2996.458118679757 -474.93495968066367 -92.18112724628514
3080.0321883083857 -480.4877173489527 -93.15901458529973
2979.563536221375 -457.99363147351494 -88.74626777960256
3058.712213664961 -463.75992871766584 -89.73284171694166
3135.0606246507496 -469.3165631445446 -90.7245078662235
3208.6346162025943 -474.6814374481327 -91.68760404258587
3276.845182603962 -479.48881364936256 -92.50952555476266
3520.560900115808 -509.93968265057845 -98.31502290596514
3559.3387491187223 -510.79103449122687 -98.42702647013645
3568.4041014667127 -507.668632820419 -97.73579933113733
3541.331027204783 -499.7951429544094 -96.17145912991657
3467.0308850508595 -485.7263344371232 -93.35320787892732
3314.9806633672265 -461.309498450056 -88.54271958444838
3102.5671113747753 -429.10136433141787 -82.29067028165014
2880.0798923431935 -396.111914360629 -75.90540039433809
2654.410620888245 -363.23721297828456 -69.58494988415588
2405.926361136881 -327.75881151384715 -62.74458566173734
2162.44655120879 -293.4246720190584 -56.134564718895334
1911.482821639296 -258.4778114299605 -49.42708533731669
1676.6994773822048 -226.06483506382762 -43.2069028182481
24.130322920260827 -69.41272753306839 -12.973130540501193
79.30691735599008 -123.54731737806675 -22.465164883794326
129.9539880500519 -139.74392667181533 -24.82374388356447
740.6403533752122 -609.2921793379555 -116.86368979469071
783.9551327275692 -524.4373608751722 -103.166440854768
919.8064744658777 -521.0175846882388 -102.99996001164324
1065.2182176954047 -525.140620590492 -103.29817402625913
1119.734227297199 -490.15852123531056 -96.26495473786932
1171.9736777989854 -462.6412052983281 -91.05117394621031