# vtk DataFile Version 4.0
[MyVLM domain - lattices] 
ASCII
DATASET UNSTRUCTURED_GRID
POINTS 152 float
0.0 -1.6729685287983849 1.499999999999991
0.0 -1.825910415997733 3.7363636363636132
0.0 -1.9429672071329767 5.931651205936882
0.0 -2.067065350398501 8.085862708719802
0.0 -2.198548813354176 10.198998144712366
0.0 -2.3005016111659793 12.27105751391458
0.0 -2.3423443515691735 14.30204081632644
0.0 -2.316183910728517 16.291948051947948
0.0 -2.270154608511143 18.240779220779107
0.0 -2.22396540221381 20.148534322819913
0.0 -2.177368088906238 22.015213358070362
0.0 -2.129999425960236 23.84081632653046
0.0 -2.0814599417503015 25.625343228200208
0.0 -2.0284620667262523 27.36879406307961
0.0 -1.973199123209765 29.071168831168645
0.0 -1.9204789393857815 30.732467532467336
0.0 -1.871017188049277 32.35269016697568
0.0 -1.823634503971157 33.93183673469366
0.0 -1.7774812184983393 35.4699072356213
0.0 -1.7325575766435626 36.966901669758585
0.0 -1.6888638168761996 38.42282003710551
0.0 -1.6464001711222551 39.83766233766209
0.0 -1.605166864764369 41.211428571428314
0.0 -1.5651641166418107 42.54411873840419
0.0 -1.526392139050486 43.835732838589706
0.0 -1.4888511377429328 45.08627087198487
0.0 -1.4525413119283215 46.29573283858968
0.0 -1.417462854272455 47.464118738404146
0.0 -1.383617547938843 48.59142857142826
0.0 -1.351027508723593 49.67766233766203
0.0 -1.319697232366932 50.722820037105436
0.0 -1.2896235544436896 51.72690166975849
0.0 -1.2608034348947499 52.68990723562119
0.0 -1.2332339580270528 53.61183673469354
0.0 -1.2069123325135918 54.492690166975535
0.0 -1.1818358913934157 55.332467532467184
0.0 -1.157580102061127 56.13116883116848
0.0 -1.132802517120232 56.88879406307941
0.0 -1.1053728587595983 57.605343228200006
0.0 -1.074182928991284 58.28081632653024
0.0 -1.0400092122338653 58.91521335807013
0.0 -1.0025976343867875 59.50853432281966
0.0 -0.95017151561498 60.06077922077884
0.0 -0.8829981979910844 60.57194805194767
0.0 -0.809994318600713 61.04204081632615
0.0 -0.7372363138704089 61.471057513914275
0.0 -0.666262802117852 61.85899814471204
0.0 -0.5956028474824964 62.20586270871946
0.0 -0.5265458660952305 62.511651205936516
0.0 -0.46164634229011825 62.77636363636324
0.0 -0.403115620714561 62.9999999999996
-0.7686761955390344 1.579956838095802 1.4999999999999905
-0.8409029948616161 1.7281169722329432 3.7363636363636132
-0.8940476007249757 1.8375356791681687 5.931651205936882
-0.9506443374492793 1.9550792281255562 8.085862708719802
-1.0210144815146838 2.0793048915071104 10.198998144712366
-1.048631451549771 2.179692972732748 12.27105751391458
-0.9920275022819518 2.235442525165093 14.30204081632644
-0.9074715353829097 2.2264836716631673 16.291948051947948
-0.8388231939293685 2.1929357966798504 18.240779220779107
-0.7803448823218929 2.1551763956515426 20.148534322819913
-0.7251531968841737 2.1154345505192467 22.015213358070362
-0.671766762046156 2.076858613235062 23.84081632653046
-0.6188683613166902 2.035219391764777 25.625343228200208
-0.5668565661826578 1.9891279899688392 27.36879406307961
-0.5162677046190278 1.9394218040109246 29.071168831168645
-0.4681223452427161 1.8917316870242762 30.732467532467336
-0.42442582165628834 1.8467056466818839 32.35269016697568
-0.3846819074085718 1.8031600352041381 33.93183673469366
-0.3476243488905531 1.7603439983914826 35.4699072356213
-0.3131098246080671 1.7183117926560785 36.966901669758585
-0.28048746260446866 1.677155541042366 38.42282003710551
-0.2502235469699514 1.6368634667763093 39.83766233766209
-0.2227998260917326 1.5974360333217126 41.211428571428314
-0.19746739264611052 1.5589633081460978 42.54411873840419
-0.17533279734900953 1.5214093911988942 43.835732838589706
-0.15613374469432648 1.4848328389273375 45.08627087198487
-0.13998404755873647 1.4492649373531812 46.29573283858968
-0.12578653595324127 1.4147882946828867 47.464118738404146
-0.11250427274737486 1.381463802596987 48.59142857142826
-0.10008179164308317 1.3493034317202224 49.67766233766203
-0.08845752889585208 1.3183158820528802 50.722820037105436
-0.07764231497362577 1.2885057050770172 51.72690166975849
-0.06766212708627829 1.2598772827795146 52.68990723562119
-0.0584684819534103 1.2324371297859227 53.61183673469354
-0.050013688763705585 1.2061911334387139 54.492690166975535
-0.042252254921319045 1.1811445593782006 55.332467532467184
-0.03513536582041269 1.1569727905847191 56.13116883116848
-0.028615518964613278 1.1326311469861368 56.88879406307941
-0.022687693716904638 1.1053113958560636 57.605343228200006
-0.017408965386693863 1.0735610016947137 58.28081632653024
-0.013252482528008399 1.0397440458795832 58.91521335807013
-0.010166684094042405 1.003739743637191 59.50853432281966
-0.00760098697125575 0.9515922069597686 60.06077922077884
-0.005464879873870877 0.8832558742198533 60.57194805194767
-0.0039015967321000085 0.8092481826266009 61.04204081632615
-0.002883995165670249 0.7365304832016751 61.471057513914275
-0.0022477517166190047 0.6663352463064915 61.85899814471204
-0.00179874084072329 0.5960211537295601 62.20586270871946
-0.0014595970466816986 0.5266437251398863 62.511651205936516
-0.0012027506489664258 0.46099361655446364 62.77636363636324
-0.0010073243559101815 0.4014866009982425 62.9999999999996
-0.603592196400244 0.8031678107737651 2.6181818181818017
-0.6506064733449719 0.8660100413840784 4.834007421150248
-0.6917594768153456 0.9209765205437124 7.008756957328342
-0.7393720571114861 0.9796922743931651 9.142430426716084
-0.7761172248991705 1.0347428960249272 11.235027829313474
-0.7652471076868961 1.0753200663697964 13.286549165120508
-0.712312139124323 1.0909062910233864 15.296994434137194
-0.6548605234921042 1.0839899857236737 17.26636363636353
-0.607188028594223 1.0687770707836528 19.194656771799508
-0.564561779702275 1.05131241842404 21.081873840445137
-0.5238449845988737 1.0336889970495562 22.928014842300414
-0.48398817126106725 1.0155968309111227 24.733079777365337
-0.4446468478122555 0.9953900170905368 26.497068645639906
-0.4061716015506322 0.9729985240004093 28.21998144712413
-0.369146268698154 0.9499728013137572 29.90181818181799
-0.3347055625871267 0.9279769842104276 31.542578849721504
-0.3034153983993225 0.9068681692047043 33.14226345083467
-0.27461484611217185 0.8861745472896706 34.700871985157484
-0.24777531506198255 0.8657410722500978 36.21840445268994
-0.22259898270470088 0.8456225759469462 37.69486085343205
-0.19901662859040753 0.8258491294321967 39.1302411873838
-0.1773837648981315 0.8064164330509301 40.524545454545205
-0.15760020702669117 0.7873583803746564 41.87777365491625
-0.13980007124817 0.7686952302928348 43.18992578849694
-0.124299953266251 0.7504354266981597 44.461001855287286
-0.11104417209489861 0.7326126098962878 45.691001855287276
-0.09966396881699166 0.7152694412384284 46.87992578849691
-0.08935905326273105 0.6984594862035401 48.0277736549162
-0.07971977414642176 0.6822070807861491 49.13454545454514
-0.07070224520210072 0.6665166500285975 50.200241187383725
-0.06228744145105419 0.6513929968223838 51.224860853431956
-0.05448916577246402 0.6368402467788946 52.20840445268983
-0.04729897838988322 0.6228632305968135 53.15087198515736
-0.04068081401891846 0.6094673123916581 54.05226345083454
-0.03459972888188424 0.596657356817967 54.912578849721356
-0.029020357778149403 0.5843670070542772 55.73181818181782
-0.023906581794384738 0.5723036491914013 56.509981447123934
-0.019238704755569217 0.5594565315808464 57.24706864563971
-0.015036247163849435 0.5446326756126811 57.94307977736512
-0.011498042968013347 0.5282153751872177 58.59801484230019
-0.00878218748326905 0.5109805652412085 59.21187384044489
-0.006662876649486808 0.4891533377236389 59.78465677179925
-0.004899700066922485 0.4589218162416003 60.316363636363256
-0.0035124287272390825 0.42306495674344574 60.806994434136904
-0.0025445969616638467 0.38626317062671317 61.2565491651202
-0.0019244050808584702 0.3506372590670297 61.66502782931315
-0.0015174347090033604 0.3156504438134759 62.03243042671575
-0.0012218767077768707 0.2807307403788265 62.35875695732798
-0.0009983803858680466 0.2468399770872126 62.64400742114988
-0.0008287781268287279 0.21533483620667987 62.88818181818142

CELLS 100 350
4 0 51 52 1
4 1 52 53 2
4 2 53 54 3
4 3 54 55 4
4 4 55 56 5
4 5 56 57 6
4 6 57 58 7
4 7 58 59 8
4 8 59 60 9
4 9 60 61 10
4 10 61 62 11
4 11 62 63 12
4 12 63 64 13
4 13 64 65 14
4 14 65 66 15
4 15 66 67 16
4 16 67 68 17
4 17 68 69 18
4 18 69 70 19
4 19 70 71 20
4 20 71 72 21
4 21 72 73 22
4 22 73 74 23
4 23 74 75 24
4 24 75 76 25
4 25 76 77 26
4 26 77 78 27
4 27 78 79 28
4 28 79 80 29
4 29 80 81 30
4 30 81 82 31
4 31 82 83 32
4 32 83 84 33
4 33 84 85 34
4 34 85 86 35
4 35 86 87 36
4 36 87 88 37
4 37 88 89 38
4 38 89 90 39
4 39 90 91 40
4 40 91 92 41
4 41 92 93 42
4 42 93 94 43
4 43 94 95 44
4 44 95 96 45
4 45 96 97 46
4 46 97 98 47
4 47 98 99 48
4 48 99 100 49
4 49 100 101 50
1 102
1 103
1 104
1 105
1 106
1 107
1 108
1 109
1 110
1 111
1 112
1 113
1 114
1 115
1 116
1 117
1 118
1 119
1 120
1 121
1 122
1 123
1 124
1 125
1 126
1 127
1 128
1 129
1 130
1 131
1 132
1 133
1 134
1 135
1 136
1 137
1 138
1 139
1 140
1 141
1 142
1 143
1 144
1 145
1 146
1 147
1 148
1 149
1 150
1 151

CELL_TYPES 100
9
9
9
9
9
9
9
9
9
9
9
9
9
9
9
9
9
9
9
9
9
9
9
9
9
9
9
9
9
9
9
9
9
9
9
9
9
9
9
9
9
9
9
9
9
9
9
9
9
9
1
1
1
1
1
1
1
1
1
1
1
1
1
1
1
1
1
1
1
1
1
1
1
1
1
1
1
1
1
1
1
1
1
1
1
1
1
1
1
1
1
1
1
1
1
1
1
1
1
1

CELL_DATA 100

VECTORS S float
-0.0 0.0 0.0
-1.009597881373719e-17 2.926381077848556e-16 1.7520572564753521e-15
2.474354604063071e-17 -5.901793520176032e-16 -3.503262846678451e-15
2.941711114409e-20 3.541283125550691e-17 2.192025024798207e-16
1.862389390420452e-17 1.126061572399748e-15 7.015606632350849e-15
0.0 0.0 0.0
0.0 0.0 0.0
0.0 0.0 0.0
-1.8032978640545698e-17 -1.144553981595845e-15 -7.012614985085035e-15
0.0 0.0 0.0
4.2746600256531915e-17 2.294425858779373e-15 1.4024342210717408e-14
4.308297477089192e-17 2.299113588843844e-15 1.4023573449711648e-14
0.0 0.0 0.0
0.0 0.0 0.0
3.763253467712284e-17 2.3081395018353596e-15 1.4022106388448919e-14
0.0 0.0 0.0
0.0 0.0 0.0
0.0 0.0 0.0
4.3118366554801195e-17 3.479583528552706e-15 2.103032383682175e-14
-2.750313550058716e-17 -2.3217324415591803e-15 -1.4019885655165961e-14
1.327892041900458e-17 1.1617671663464385e-15 7.009794480269492e-15
0.0 0.0 0.0
-2.38369841792954e-17 -2.3270035452675385e-15 -1.401901844049991e-14
0.0 0.0 0.0
-2.2450872635228558e-17 -2.3301640962647945e-15 -1.4018495745955606e-14
2.095831848643631e-17 2.331792435394191e-15 1.401822729604937e-14
0.0 0.0 0.0
1.948535721957456e-17 2.334645919110566e-15 1.4017754473873957e-14
0.0 0.0 0.0
0.0 0.0 0.0
-1.7880879639971808e-17 -2.338326432072543e-15 -1.4017143129318228e-14
0.0 0.0 0.0
-1.713504573313004e-17 -2.3413336722199124e-15 -1.4016642064421706e-14
-1.6565971756450028e-17 -2.3428819888409393e-15 -1.4016384030538102e-14
1.621740609962341e-17 2.3443977542106153e-15 1.4016130989055813e-14
1.593417699891956e-17 2.3458983445095794e-15 1.4015880236210981e-14
0.0 0.0 0.0
1.530341610009242e-17 2.3488640916800482e-15 1.4015384226657889e-14
0.0 0.0 0.0
0.0 0.0 0.0
2.9096564074080216e-17 4.706102729631027e-15 2.802936526991709e-14
0.0 0.0 0.0
0.0 0.0 0.0
-6.759723350607209e-18 -1.1783520846024363e-15 -7.007034936761632e-15
-6.65196887482314e-18 -1.1788891760301556e-15 -7.006944697662012e-15
1.3255269334282769e-17 2.3587529166531075e-15 1.4013725440174515e-14
-6.5318203141018394e-18 -1.1798326975761513e-15 -7.006786001812693e-15
0.0 0.0 0.0
-6.3855788738517e-18 -1.1806068265722892e-15 -7.006655741477392e-15
6.31687589672982e-18 1.1809229196991842e-15 7.006602535391372e-15
-0.0 0.0 0.0
-1.009597881373719e-17 2.926381077848556e-16 1.7520572564753521e-15
2.474354604063071e-17 -5.901793520176032e-16 -3.503262846678451e-15
2.941711114409e-20 3.541283125550691e-17 2.192025024798207e-16
1.862389390420452e-17 1.126061572399748e-15 7.015606632350849e-15
0.0 0.0 0.0
0.0 0.0 0.0
0.0 0.0 0.0
-1.8032978640545698e-17 -1.144553981595845e-15 -7.012614985085035e-15
0.0 0.0 0.0
4.2746600256531915e-17 2.294425858779373e-15 1.4024342210717408e-14
4.308297477089192e-17 2.299113588843844e-15 1.4023573449711648e-14
0.0 0.0 0.0
0.0 0.0 0.0
3.763253467712284e-17 2.3081395018353596e-15 1.4022106388448919e-14
0.0 0.0 0.0
0.0 0.0 0.0
0.0 0.0 0.0
4.3118366554801195e-17 3.479583528552706e-15 2.103032383682175e-14
-2.750313550058716e-17 -2.3217324415591803e-15 -1.4019885655165961e-14
1.327892041900458e-17 1.1617671663464385e-15 7.009794480269492e-15
0.0 0.0 0.0
-2.38369841792954e-17 -2.3270035452675385e-15 -1.401901844049991e-14
0.0 0.0 0.0
-2.2450872635228558e-17 -2.3301640962647945e-15 -1.4018495745955606e-14
2.095831848643631e-17 2.331792435394191e-15 1.401822729604937e-14
0.0 0.0 0.0
1.948535721957456e-17 2.334645919110566e-15 1.4017754473873957e-14
0.0 0.0 0.0
0.0 0.0 0.0
-1.7880879639971808e-17 -2.338326432072543e-15 -1.4017143129318228e-14
0.0 0.0 0.0
-1.713504573313004e-17 -2.3413336722199124e-15 -1.4016642064421706e-14
-1.6565971756450028e-17 -2.3428819888409393e-15 -1.4016384030538102e-14
1.621740609962341e-17 2.3443977542106153e-15 1.4016130989055813e-14
1.593417699891956e-17 2.3458983445095794e-15 1.4015880236210981e-14
0.0 0.0 0.0
1.530341610009242e-17 2.3488640916800482e-15 1.4015384226657889e-14
0.0 0.0 0.0
0.0 0.0 0.0
2.9096564074080216e-17 4.706102729631027e-15 2.802936526991709e-14
0.0 0.0 0.0
0.0 0.0 0.0
-6.759723350607209e-18 -1.1783520846024363e-15 -7.007034936761632e-15
-6.65196887482314e-18 -1.1788891760301556e-15 -7.006944697662012e-15
1.3255269334282769e-17 2.3587529166531075e-15 1.4013725440174515e-14
-6.5318203141018394e-18 -1.1798326975761513e-15 -7.006786001812693e-15
0.0 0.0 0.0
-6.3855788738517e-18 -1.1806068265722892e-15 -7.006655741477392e-15
6.31687589672982e-18 1.1809229196991842e-15 7.006602535391372e-15

SCALARS Gamma float
LOOKUP_TABLE default
-0.0
-0.0
-0.0
51.46474085090611
55.21603157437663
55.224926926893815
52.990503794542505
48.20770852201732
45.10726951944202
47.80549572587631
54.515363608151645
55.14216631761416
51.302258312135486
46.4610727490643
45.43152111410396
44.607055452483756
40.825337922525016
38.700028619912366
34.01862597976167
34.4044230301401
33.899131211775604
35.490176725026856
37.1351900931259
35.01948469083067
37.09647620091609
38.360368260707084
38.45943363421157
38.559402244049956
38.76245813307135
39.077461568051135
39.411660478363416
39.70828425717294
37.71586536477771
38.02512412240929
38.33815100994429
38.64132341953813
38.88881351980857
41.22871715719132
41.17030342403619
40.78832789434855
40.05141802744145
38.80612934324004
36.74542621931538
34.09833445556812
31.413299486379678
28.758339051131262
25.90470806227384
23.150346605447766
20.36833957771117
17.793696477642282
-0.0
-0.0
-0.0
51.46474085090611
55.21603157437663
55.224926926893815
52.990503794542505
48.20770852201732
45.10726951944202
47.80549572587631
54.515363608151645
55.14216631761416
51.302258312135486
46.4610727490643
45.43152111410396
44.607055452483756
40.825337922525016
38.700028619912366
34.01862597976167
34.4044230301401
33.899131211775604
35.490176725026856
37.1351900931259
35.01948469083067
37.09647620091609
38.360368260707084
38.45943363421157
38.559402244049956
38.76245813307135
39.077461568051135
39.411660478363416
39.70828425717294
37.71586536477771
38.02512412240929
38.33815100994429
38.64132341953813
38.88881351980857
41.22871715719132
41.17030342403619
40.78832789434855
40.05141802744145
38.80612934324004
36.74542621931538
34.09833445556812
31.413299486379678
28.758339051131262
25.90470806227384
23.150346605447766
20.36833957771117
17.793696477642282

VECTORS Ftot float
116.40647062964086 -39.014318809791035 6.879277040127928
140.12047829417693 -86.80528210494475 15.306113303111456
143.37538597903412 -128.81491868249844 22.713545681491397
1283.959250179458 11.662978720437843 -2.0564978238418816
1312.935662910449 220.3294190145011 -38.85002121607724
1406.1679194985923 286.3281812529522 -50.48738369207918
1487.4141946824334 278.9929101228965 -49.19397748103849
1475.2678510058483 272.66831545777904 -48.07878079953346
1488.6540559971686 291.92134647501257 -51.47360962828868
1684.4385101420457 375.2114651688932 -66.15990478043032
2049.193846117986 490.88812682073643 -86.55682126793452
2207.561774064939 547.7934740937699 -96.5907693387552
2179.0725108666284 552.2395519955281 -97.37473283116685
2093.415061764962 510.27646946746967 -89.97550918777416
2165.253606052135 495.837137090243 -87.4294653062518
2236.55023976574 493.8060320532529 -87.07132668757758
2148.6954650316393 446.52681429273593 -78.7347249696076
2128.777375841563 425.3813663414569 -75.00621197663057
1951.721563636123 368.08404098704636 -64.90314759421678
2051.0684870198675 375.1924808016749 -66.15655732427805
2094.52972945503 374.59352756188633 -66.05094570792059
2271.023904032116 380.99759349577124 -67.18015531830045
2452.551340786094 403.38353638042094 -71.12740103746289
2382.6227873659695 383.80093711525774 -67.67446043461285
2595.37684796362 411.2828850245312 -72.52026933344236
2758.4398961716633 412.9469144798949 -72.81368262311658
2836.017370906413 412.10184152413484 -72.66467346034904
2911.139362337338 413.85959175823956 -72.97461225196831
2992.3215556517366 415.71044598079584 -73.30096778876317
3080.3252289975144 420.1206438274093 -74.0786046593835
3168.405454382503 425.09294077102965 -74.95535476663801
3251.984081830517 429.55496398125354 -75.74212984714788
3142.472283227567 413.6351638976296 -72.9350395649201
3221.186313335009 414.99561446679644 -73.1749237061844
3297.935832666251 421.05300227325074 -74.24300460907676
3372.0443700332885 428.2034280410471 -75.50381759549231
3440.1024511189307 431.104996608624 -76.01544242033174
3693.085334033537 461.63957444955184 -81.39951233823012
3731.626925155499 462.7007501562607 -81.58662624659527
3737.8650080692455 459.6864903793269 -81.05513092105757
3707.3511934091816 456.6350532043909 -80.51708021717953
3626.5497087458903 440.4140575194849 -77.65688102397502
3464.633124779914 412.7482497759479 -72.77865267569626
3240.756684846709 383.13536388234564 -67.55710191601308
3007.244472273668 353.278055438475 -62.29245286602402
2770.6179160711345 327.18868254456544 -57.692192515063674
2510.353945847038 294.6339394524214 -51.95191295788615
2255.110559869163 262.9738153426777 -46.369378864759774
1992.9670695623067 231.9953217653849 -40.90703462537916
1747.7654859716113 202.4644640144395 -35.69994764042379
116.40647062964086 -39.014318809791035 6.879277040127928
140.12047829417693 -86.80528210494475 15.306113303111456
143.37538597903412 -128.81491868249844 22.713545681491397
1283.959250179458 11.662978720437843 -2.0564978238418816
1312.935662910449 220.3294190145011 -38.85002121607724
1406.1679194985923 286.3281812529522 -50.48738369207918
1487.4141946824334 278.9929101228965 -49.19397748103849
1475.2678510058483 272.66831545777904 -48.07878079953346
1488.6540559971686 291.92134647501257 -51.47360962828868
1684.4385101420457 375.2114651688932 -66.15990478043032
2049.193846117986 490.88812682073643 -86.55682126793452
2207.561774064939 547.7934740937699 -96.5907693387552
2179.0725108666284 552.2395519955281 -97.37473283116685
2093.415061764962 510.27646946746967 -89.97550918777416
2165.253606052135 495.837137090243 -87.4294653062518
2236.55023976574 493.8060320532529 -87.07132668757758
2148.6954650316393 446.52681429273593 -78.7347249696076
2128.777375841563 425.3813663414569 -75.00621197663057
1951.721563636123 368.08404098704636 -64.90314759421678
2051.0684870198675 375.1924808016749 -66.15655732427805
2094.52972945503 374.59352756188633 -66.05094570792059
2271.023904032116 380.99759349577124 -67.18015531830045
2452.551340786094 403.38353638042094 -71.12740103746289
2382.6227873659695 383.80093711525774 -67.67446043461285
2595.37684796362 411.2828850245312 -72.52026933344236
2758.4398961716633 412.9469144798949 -72.81368262311658
2836.017370906413 412.10184152413484 -72.66467346034904
2911.139362337338 413.85959175823956 -72.97461225196831
2992.3215556517366 415.71044598079584 -73.30096778876317
3080.3252289975144 420.1206438274093 -74.0786046593835
3168.405454382503 425.09294077102965 -74.95535476663801
3251.984081830517 429.55496398125354 -75.74212984714788
3142.472283227567 413.6351638976296 -72.9350395649201
3221.186313335009 414.99561446679644 -73.1749237061844
3297.935832666251 421.05300227325074 -74.24300460907676
3372.0443700332885 428.2034280410471 -75.50381759549231
3440.1024511189307 431.104996608624 -76.01544242033174
3693.085334033537 461.63957444955184 -81.39951233823012
3731.626925155499 462.7007501562607 -81.58662624659527
3737.8650080692455 459.6864903793269 -81.05513092105757
3707.3511934091816 456.6350532043909 -80.51708021717953
3626.5497087458903 440.4140575194849 -77.65688102397502
3464.633124779914 412.7482497759479 -72.77865267569626
3240.756684846709 383.13536388234564 -67.55710191601308
3007.244472273668 353.278055438475 -62.29245286602402
2770.6179160711345 327.18868254456544 -57.692192515063674
2510.353945847038 294.6339394524214 -51.95191295788615
2255.110559869163 262.9738153426777 -46.369378864759774
1992.9670695623067 231.9953217653849 -40.90703462537916
1747.7654859716113 202.4644640144395 -35.69994764042379

VECTORS D float
92.23499632761893 31.04454227182552 -4.705401827573326
60.66008907386643 37.698946680889534 -5.947137520499801
13.120892738926884 11.820140965512401 -1.8986145240313212
537.2258598403378 631.1294937701839 -102.03298613410847
523.2391977349184 754.4416615380555 -122.48299541455596
479.81054628396487 816.9473990897355 -133.06433623066928
415.50824416136464 813.098657891829 -132.81022535692568
349.37932526003004 770.4137478036803 -126.36310098586394
311.4655272916343 761.3901449026837 -125.07014501188745
325.121729025927 870.3349358162515 -143.14562085036923
364.20456844744615 1057.0452242280055 -174.04598139381397
360.3678279499887 1124.8892075244548 -185.52858801167858
328.26924656132906 1093.910035144372 -180.57169261552755
285.24463565821816 1008.8525126073671 -166.66404077430323
265.53514635430446 991.797176632449 -163.96958760000106
251.22729366270383 986.6963648956142 -163.24182471808075
219.31153284516282 903.243803741549 -149.63588047846753
200.80283396476054 862.8036548272922 -143.04781486112725
169.33178195937757 756.8154663426532 -125.5664896638517
166.37228245096986 771.3975161006625 -128.07197163089947
159.9669696565513 767.5627762553214 -127.51492540028427
160.68582545800197 796.1133456881687 -132.33479469521677
164.6734041025502 840.3148854226905 -139.76306851752457
152.08356437935302 798.0384526630437 -132.81120520971336
158.23110088580626 852.2273234541377 -141.91122737512973
158.0230514371502 872.0750131844339 -145.2972457404786
154.9602701164322 874.8139620167657 -145.8327834275785
152.60406752372856 879.9479327543701 -146.7667591723099
150.72525286396876 886.4310797356718 -147.92572647557412
149.82906812065136 896.9889647568707 -149.73267975947917
149.12890020434807 908.1037815899957 -151.6792410448708
148.42494929872413 918.2313285606898 -153.4646502390451
140.0806091875827 879.4587128140098 -147.0756387877006
139.30268438743028 886.6252080266471 -148.36679064602558
139.35226914440827 898.2911289247736 -150.4132373808669
139.64062297888046 910.8421016612018 -152.61032491368286
139.28959687599126 918.561937347734 -153.99947455178287
147.10291130435715 979.9907033631026 -164.39907127116496
146.078393313684 982.0615169203411 -164.8539460332664
143.87685531604166 975.7290349590517 -163.8827558775106
141.09350405298625 964.5787000289176 -162.09827606076897
135.6050016871835 933.9410106578409 -157.03228682094695
127.10681637738888 881.3703887528985 -148.2680548782497
117.37812104185466 818.9650779330615 -137.8361402706294
107.68889300928019 755.5947070937812 -127.22788651670872
98.70031137817948 696.0407858157497 -117.24908839391777
88.57095552476626 627.4372306818078 -105.73314067389835
78.85424213771878 560.836922449229 -94.54254923358377
69.26867353784472 494.37328382121666 -83.36399216461146
60.34105433322813 431.9316583252521 -72.85402010935601
92.23499632761893 31.04454227182552 -4.705401827573326
60.66008907386643 37.698946680889534 -5.947137520499801
13.120892738926884 11.820140965512401 -1.8986145240313212
537.2258598403378 631.1294937701839 -102.03298613410847
523.2391977349184 754.4416615380555 -122.48299541455596
479.81054628396487 816.9473990897355 -133.06433623066928
415.50824416136464 813.098657891829 -132.81022535692568
349.37932526003004 770.4137478036803 -126.36310098586394
311.4655272916343 761.3901449026837 -125.07014501188745
325.121729025927 870.3349358162515 -143.14562085036923
364.20456844744615 1057.0452242280055 -174.04598139381397
360.3678279499887 1124.8892075244548 -185.52858801167858
328.26924656132906 1093.910035144372 -180.57169261552755
285.24463565821816 1008.8525126073671 -166.66404077430323
265.53514635430446 991.797176632449 -163.96958760000106
251.22729366270383 986.6963648956142 -163.24182471808075
219.31153284516282 903.243803741549 -149.63588047846753
200.80283396476054 862.8036548272922 -143.04781486112725
169.33178195937757 756.8154663426532 -125.5664896638517
166.37228245096986 771.3975161006625 -128.07197163089947
159.9669696565513 767.5627762553214 -127.51492540028427
160.68582545800197 796.1133456881687 -132.33479469521677
164.6734041025502 840.3148854226905 -139.76306851752457
152.08356437935302 798.0384526630437 -132.81120520971336
158.23110088580626 852.2273234541377 -141.91122737512973
158.0230514371502 872.0750131844339 -145.2972457404786
154.9602701164322 874.8139620167657 -145.8327834275785
152.60406752372856 879.9479327543701 -146.7667591723099
150.72525286396876 886.4310797356718 -147.92572647557412
149.82906812065136 896.9889647568707 -149.73267975947917
149.12890020434807 908.1037815899957 -151.6792410448708
148.42494929872413 918.2313285606898 -153.4646502390451
140.0806091875827 879.4587128140098 -147.0756387877006
139.30268438743028 886.6252080266471 -148.36679064602558
139.35226914440827 898.2911289247736 -150.4132373808669
139.64062297888046 910.8421016612018 -152.61032491368286
139.28959687599126 918.561937347734 -153.99947455178287
147.10291130435715 979.9907033631026 -164.39907127116496
146.078393313684 982.0615169203411 -164.8539460332664
143.87685531604166 975.7290349590517 -163.8827558775106
141.09350405298625 964.5787000289176 -162.09827606076897
135.6050016871835 933.9410106578409 -157.03228682094695
127.10681637738888 881.3703887528985 -148.2680548782497
117.37812104185466 818.9650779330615 -137.8361402706294
107.68889300928019 755.5947070937812 -127.22788651670872
98.70031137817948 696.0407858157497 -117.24908839391777
88.57095552476626 627.4372306818078 -105.73314067389835
78.85424213771878 560.836922449229 -94.54254923358377
69.26867353784472 494.37328382121666 -83.36399216461146
60.34105433322813 431.9316583252521 -72.85402010935601

VECTORS L float
24.171474302021927 -70.05886108161653 11.58467886770125
79.46038922031053 -124.50422878583429 21.25325082361126
130.25449324010722 -140.63505964801084 24.61216020552272
746.7333903391203 -619.4665150497461 99.97648831026659
789.6964651755304 -534.1122425235548 83.63297419847878
926.3573732146276 -530.6192178367837 82.57695253859016
1071.905950521069 -534.1057477689326 83.61624787588718
1125.8885257458187 -497.7454323459014 78.2843201863305
1177.1885287055343 -469.4687984276711 73.59653538359878
1359.3167811161186 -495.1234706473585 76.98571606993892
1684.9892776705399 -566.1570974072694 87.48916012587948
1847.1939461149511 -577.095733430685 88.9378186729234
1850.8032643052993 -541.6704831488441 83.19695978436071
1808.1704261067441 -498.5760431398974 76.6885315865291
1899.7184596978307 -495.96003954220595 76.5401222937493
1985.3229461030367 -492.89033284236166 76.17049803050324
1929.3839321864762 -456.7169894488132 70.90115550885999
1927.9745418768027 -437.42228848583545 68.04160288449673
1782.389781676746 -388.73142535560675 60.66334206963493
1884.6962045688977 -396.2050352989878 61.915414306621464
1934.562759798479 -392.96924869343536 61.46397969236372
2110.338078574114 -415.11575219239745 65.15463937691635
2287.8779366835442 -436.93134904226935 68.63566748006166
2230.5392229866166 -414.2375155477859 65.1367447751005
2437.1457470778137 -440.94443842960635 69.39095804168736
2600.4168447345137 -459.1280987045392 72.48356311736204
2681.0571007899816 -462.7121204926313 73.16810996722951
2758.53529481361 -466.0883409961307 73.7921469203416
2841.596302787768 -470.72063375487573 74.62475868681096
2930.496160876864 -476.86832092946145 75.6540751000957
3019.276554178156 -483.01084081896636 76.7238862782328
3103.559132531793 -488.6763645794365 77.72252039189726
3002.391674039985 -465.82354891638056 74.14059922278055
3081.883628947579 -471.6295935598508 75.19186693984116
3158.5835635218427 -477.2381266515232 76.17023277179015
3232.4037470544085 -482.6386736201548 77.10650731819057
3300.8128542429395 -487.45694073910994 77.98403213145112
3545.9824227291792 -518.3511289135511 82.99955893293487
3585.5485318418155 -519.3607667640806 83.26731978667118
3593.988152753205 -516.0425445797248 82.82762495645305
3566.2576893561954 -507.943646824527 81.58119584358946
3490.9447070587075 -493.52695313835613 79.37540579697195
3337.5263084025264 -468.62213897695085 75.48940220255344
3123.3785638048544 -435.8297140507159 70.27903835461632
2899.555579264389 -402.316651655306 64.93543365068466
2671.917604692955 -368.8521032711841 59.556895878854064
2421.7829903222723 -332.8032912293864 53.7812277160122
2176.2563177314446 -297.8631071065513 48.173170368823996
1923.698396024462 -262.3779620558319 42.45695753923232
1687.4244316383833 -229.46719431081272 37.15407246893225
24.171474302021927 -70.05886108161653 11.58467886770125
79.46038922031053 -124.50422878583429 21.25325082361126
130.25449324010722 -140.63505964801084 24.61216020552272
746.7333903391203 -619.4665150497461 99.97648831026659
789.6964651755304 -534.1122425235548 83.63297419847878
926.3573732146276 -530.6192178367837 82.57695253859016
1071.905950521069 -534.1057477689326 83.61624787588718