# vtk DataFile Version 4.0
[MyVLM domain - lattices] 
ASCII
DATASET UNSTRUCTURED_GRID
POINTS 152 float
0.0 -1.767719565838259 -1.387080111205673
0.0 -3.996665893484827 -1.1493579974247743
0.0 -6.178928810556074 -0.883428746966227
0.0 -8.32196241655467 -0.6315666588211388
0.0 -10.425826440820563 -0.394110474909255
0.0 -12.484110489860543 -0.13470504715594878
0.0 -14.491504507933678 0.17676444702349414
0.0 -16.446637868469878 0.5480712171775055
0.0 -18.35786900839731 0.9318122119149637
0.0 -20.22862035223427 1.3085778972862343
0.0 -22.058848799994223 1.6786127054613764
0.0 -23.848491275256727 2.0422743605968576
0.0 -25.597478410501992 2.3999562654465807
0.0 -27.305239325268676 2.754896043992134
0.0 -28.972154885980974 3.1049336954062734
0.0 -30.599059963241732 3.4453344332173175
0.0 -32.186078832327595 3.775393457308157
0.0 -33.733006698615746 4.096272215700035
0.0 -35.23969601869295 4.408807468669999
0.0 -36.70614683510522 4.712998974927605
0.0 -38.13235918926233 5.008846499626365
0.0 -39.5183331214378 5.296349814363752
0.0 -40.86406867076892 5.575508697181195
0.0 -42.16956587525674 5.846322932564082
0.0 -43.434824771766046 6.108792311441762
0.0 -44.65984539602539 6.362916631187542
0.0 -45.844627782627086 6.608695695618681
0.0 -46.989171965027204 6.84612931499641
0.0 -48.093478252868834 7.075215733247473
0.0 -49.15755048651967 7.295933170564403
0.0 -50.181389446656794 7.5082771995073685
0.0 -51.16499458378357 7.71225093642681
0.0 -52.10836536999925 7.907857375196514
0.0 -53.011501298999036 8.095099387213615
0.0 -53.874401886074125 8.273979721398586
0.0 -54.69706666811157 8.44450100419525
0.0 -55.479421925798086 8.607081318604807
0.0 -56.22123454558968 8.763042717231341
0.0 -56.9221346086265 8.91448311417932
0.0 -57.58192967834747 9.062493871419145
0.0 -58.20075458985684 9.206310301075305
0.0 -58.77856522365009 9.34618261729187
0.0 -59.31331658073484 9.493708585675156
0.0 -59.80505508457485 9.648624925679323
0.0 -60.255329092950966 9.80215046397166
0.0 -60.66519376797535 9.948301078848624
0.0 -61.03491628791497 10.085561527062039
0.0 -61.364241227438214 10.215380397651549
0.0 -61.653392491306455 10.336487863614602
0.0 -61.90281366106918 10.446368248974059
0.0 -62.112888732694614 10.54284380437658
-0.7686761955390344 -1.2028550037905579 1.8164260100817875
-0.8409029948616161 -3.3795155141402162 2.350675728922507
-0.8940476007249757 -5.522451373685316 2.8396398057481522
-0.9506443374492793 -7.62352434018105 3.3294725058453523
-1.0210144815146838 -9.682984940645682 3.8187530198901167
-1.048631451549771 -11.706132864773284 4.277425314070799
-0.9920275022819518 -13.69658015904119 4.685004454868919
-0.9074715353829097 -15.657811921040933 5.021725471674038
-0.8388231939293685 -17.58286149277314 5.327098245341428
-0.7803448823218929 -19.46819035928987 5.621190691363831
-0.7251531968841737 -21.313411444574207 5.906198026918842
-0.671766762046156 -23.117978043046996 6.185220773418102
-0.6188683613166902 -24.88262454619799 6.454093989757339
-0.5668565661826578 -26.6075921333108 6.711449880250196
-0.5162677046190278 -28.29273539206761 6.958113119131003
-0.4681223452427161 -29.93707653508312 7.19962901422145
-0.42442582165628834 -31.5405030370058 7.436635728501909
-0.3846819074085718 -33.103220436115585 7.6679675964621845
-0.3476243488905531 -34.62535911687593 7.892885171065174
-0.3131098246080671 -36.106909657759715 8.111441884446222
-0.28048746260446866 -37.547856061768165 8.323728460093728
-0.2502235469699514 -38.94820037391662 8.529733300149308
-0.2227998260917326 -40.30794251372545 8.729456861035718
-0.19746739264611052 -41.62706684114305 8.922987841893264
-0.17533279734900953 -42.90557959014777 9.11029088807381
-0.15613374469432648 -44.14347059251925 9.291423666420583
-0.13998404755873647 -45.34073441549685 9.466416987650366
-0.12578653595324127 -46.49735671431604 9.63535220496535
-0.11250427274737486 -47.61332691524748 9.79828928496461
-0.10008179164308317 -48.68864293961398 9.955240016412207
-0.08845752889585208 -49.72330327667633 10.106212967135868
-0.07764231497362577 -50.71730713607801 10.251212619470413
-0.06766212708627829 -51.670653756894936 10.390243288830494
-0.0584684819534103 -52.583342007874286 10.523311390869866
-0.050013688763705585 -53.455370866689755 10.650422723489035
-0.042252254921319045 -54.286739418972495 10.771582472331406
-0.03513536582041269 -55.077504033876416 10.886470952039259
-0.028615518964613278 -55.8278461181923 10.994059353578136
-0.022687693716904638 -56.53825331641552 11.091582107586827
-0.017408965386693863 -57.20897785868864 11.177608745843619
-0.013252482528008399 -57.8396092265886 11.254467434017819
-0.010166684094042405 -58.430168394171176 11.322039222328058
-0.00760098697125575 -58.98307877595666 11.366580244064117
-0.005464879873870877 -59.49834828363864 11.38804562978203
-0.0039015967321000085 -59.97415058341201 11.39679303318719
-0.002883995165670249 -60.409276849357745 11.399678046737174
-0.0022477517166190047 -60.803513065243585 11.397914416799264
-0.00179874084072329 -61.15731789116358 11.388900952720606
-0.0014595970466816986 -61.4705080380507 11.373677138454697
-0.0012027506489664258 -61.74259891357313 11.354991233683062
-0.0010073243559101815 -61.97317102314741 11.335222310410193
-0.603592196400244 -2.438937126639426 1.2456083885478049
-0.6506064733449719 -4.610186920939687 1.6922699824526224
-0.6917594768153456 -6.742352296088731 2.1240426911241435
-0.7393720571114861 -8.83341458748193 2.5523749304345014
-0.7761172248991705 -10.884661293367252 2.9699649349771926
-0.7652471076868961 -12.897969258654708 3.3661685883358374
-0.712312139124323 -14.875164827081239 3.7306281804787336
-0.6548605234921042 -16.815815889788677 4.065794322517358
-0.607188028594223 -18.717455614602578 4.385657114914622
-0.564561779702275 -20.57903432047759 4.696169594699454
-0.5238449845988737 -22.400188567264316 4.999392933383632
-0.48398817126106725 -24.180972181686712 5.29502186444622
-0.4446468478122555 -25.92167097178713 5.581435489932664
-0.4061716015506322 -27.622297098423108 5.8585648421927505
-0.369146268698154 -29.282581328834357 6.127936816085119
-0.3347055625871267 -30.90223468897951 6.391190264836943
-0.3034153983993225 -32.481281993788436 6.648184455987559
-0.27461484611217185 -34.019805172035404 6.898454748369015
-0.24777531506198255 -35.51783114721314 7.141848451266474
-0.22259898270470088 -36.975350397868894 7.378419563521727
-0.19901662859040753 -38.392357702219314 7.608197699339904
-0.1773837648981315 -39.76885380689162 7.831178624387503
-0.15760020702669117 -41.104832826328895 8.047395717316528
-0.13980007124817 -42.4002912426119 8.256868929238383
-0.124299953266251 -43.65522758947406 8.459606575764061
-0.11104417209489861 -44.86963602533759 8.655641786127385
-0.09966396881699166 -46.043509142136614 8.84501657355778
-0.08935905326273105 -47.17683763832332 9.027783689754221
-0.07971977414642176 -48.2696172879966 9.203967100992791
-0.07070224520210072 -49.32184732275592 9.373571165089498
-0.06228744145105419 -50.33352690858793 9.536600611969128
-0.05448916577246402 -51.3046553290877 9.693059504565756
-0.04729897838988322 -52.23523174541324 9.842952600188902
-0.04068081401891846 -53.12525522609566 9.98628518146111
-0.03459972888188424 -53.97472492639655 10.123062039131893
-0.029020357778149403 -54.78365236905705 10.253217824489006
-0.023906581794384738 -55.55208836594923 10.37646436908604
-0.019238704755569217 -56.28020843225495 10.491806276863192
-0.015036247163849435 -56.968219726535814 10.598068693236225
-0.011498042968013347 -57.61605569050451 10.695629089009845
-0.00878218748326905 -58.22358158447327 10.785251610925602
-0.006662876649486808 -58.79145291434605 10.863218700267945
-0.004899700066922485 -59.320331605511946 10.925776391611613
-0.0035124287272390825 -59.809735097334716 10.97566142231983
-0.0025445969616638467 -60.25885064490445 11.017483097824172
-0.0019244050808584702 -60.66730997496179 11.053329999564998
-0.0015174347090033604 -61.03520629807183 11.082673504159148
-0.0012218767077768707 -61.36263893829844 11.104950316849008
-0.0009983803858680466 -61.64944087590589 11.121107653625243
-0.0008287781268287279 -61.895376525490676 11.1324815857038

CELLS 100 350
4 0 51 52 1
4 1 52 53 2
4 2 53 54 3
4 3 54 55 4
4 4 55 56 5
4 5 56 57 6
4 6 57 58 7
4 7 58 59 8
4 8 59 60 9
4 9 60 61 10
4 10 61 62 11
4 11 62 63 12
4 12 63 64 13
4 13 64 65 14
4 14 65 66 15
4 15 66 67 16
4 16 67 68 17
4 17 68 69 18
4 18 69 70 19
4 19 70 71 20
4 20 71 72 21
4 21 72 73 22
4 22 73 74 23
4 23 74 75 24
4 24 75 76 25
4 25 76 77 26
4 26 77 78 27
4 27 78 79 28
4 28 79 80 29
4 29 80 81 30
4 30 81 82 31
4 31 82 83 32
4 32 83 84 33
4 33 84 85 34
4 34 85 86 35
4 35 86 87 36
4 36 87 88 37
4 37 88 89 38
4 38 89 90 39
4 39 90 91 40
4 40 91 92 41
4 41 92 93 42
4 42 93 94 43
4 43 94 95 44
4 44 95 96 45
4 45 96 97 46
4 46 97 98 47
4 47 98 99 48
4 48 99 100 49
4 49 100 101 50
1 102
1 103
1 104
1 105
1 106
1 107
1 108
1 109
1 110
1 111
1 112
1 113
1 114
1 115
1 116
1 117
1 118
1 119
1 120
1 121
1 122
1 123
1 124
1 125
1 126
1 127
1 128
1 129
1 130
1 131
1 132
1 133
1 134
1 135
1 136
1 137
1 138
1 139
1 140
1 141
1 142
1 143
1 144
1 145
1 146
1 147
1 148
1 149
1 150
1 151

CELL_TYPES 100
9
9
9
9
9
9
9
9
9
9
9
9
9
9
9
9
9
9
9
9
9
9
9
9
9
9
9
9
9
9
9
9
9
9
9
9
9
9
9
9
9
9
9
9
9
9
9
9
9
9
1
1
1
1
1
1
1
1
1
1
1
1
1
1
1
1
1
1
1
1
1
1
1
1
1
1
1
1
1
1
1
1
1
1
1
1
1
1
1
1
1
1
1
1
1
1
1
1
1
1

CELL_DATA 100

VECTORS S float
-0.0 -0.0 0.0
-0.0 -0.0 0.0
-0.0 -0.0 0.0
0.0 -0.0 0.0
0.0 -0.0 0.0
-4.384078959692685e-17 1.3424858954871016e-14 -4.660432572580144e-15
0.0 -0.0 0.0
0.0 -0.0 0.0
3.741949652517642e-17 -1.3416612940655388e-14 4.684174283531435e-15
8.338130780507163e-17 -2.683135991663206e-14 9.37361933982681e-15
-1.764808146291931e-16 5.365887334306964e-14 -1.8758156462183126e-14
-8.88750557801535e-17 2.6825775669610233e-14 -9.389538215190545e-15
8.866204027296652e-17 -2.6823698043634477e-14 9.39547387058527e-15
-1.6678433898944833e-16 5.3642918609439835e-14 -1.8803822319691977e-14
7.685840613262541e-17 -2.681939632418696e-14 9.407849942357154e-15
0.0 -0.0 0.0
0.0 -0.0 0.0
-6.429384841421645e-17 2.6815013471109258e-14 -9.420429172367975e-15
-2.926585766972669e-17 1.3405607828288563e-14 -4.71563505800463e-15
0.0 -0.0 0.0
2.710282655882677e-17 -1.3404471287841735e-14 4.718877691442959e-15
-5.0279716587114866e-17 2.680769296374864e-14 -9.441326011625585e-15
0.0 -0.0 0.0
-4.7174200304082965e-17 2.6805520268148498e-14 -9.44750891478922e-15
-4.5904091430363975e-17 2.6804458563286592e-14 -9.450527016508561e-15
0.0 -0.0 0.0
0.0 -0.0 0.0
3.998372227795684e-17 -2.6801880744721953e-14 9.457862168268857e-15
3.8652574698333416e-17 -2.6800895294488847e-14 9.460659825753762e-15
0.0 -0.0 0.0
3.6494440867332577e-17 -2.6798908815378333e-14 9.466293963697682e-15
0.0 -0.0 0.0
0.0 -0.0 0.0
-3.384682476257416e-17 2.6795880624967552e-14 -9.47487218231772e-15
0.0 -0.0 0.0
0.0 -0.0 0.0
3.180702467938783e-17 -2.679287448394998e-14 9.483376621583648e-15
0.0 -0.0 0.0
-3.077217069006159e-17 2.679094440756199e-14 -9.488831212048719e-15
3.017855753163843e-17 -2.679000915805551e-14 9.491473305671963e-15
-2.9942883957679717e-17 2.6789186736074622e-14 -9.49379504675237e-15
0.0 -0.0 0.0
0.0 -0.0 0.0
0.0 -0.0 0.0
-1.3701149114029119e-17 1.3393009774961802e-14 -4.751367506610032e-15
-1.3659025610732939e-17 1.3392686796158537e-14 -4.752277932486603e-15
1.34681572518659e-17 -1.3392385002116405e-14 4.7531288958334404e-15
-1.3286749426514599e-17 1.3392112918536232e-14 -4.753895957637657e-15
1.3180457574740779e-17 -1.3391874795469998e-14 4.754567012312746e-15
0.0 -0.0 0.0
-0.0 -0.0 0.0
-0.0 -0.0 0.0
-0.0 -0.0 0.0
0.0 -0.0 0.0
0.0 -0.0 0.0
-4.384078959692685e-17 1.3424858954871016e-14 -4.660432572580144e-15
0.0 -0.0 0.0
0.0 -0.0 0.0
3.741949652517642e-17 -1.3416612940655388e-14 4.684174283531435e-15
8.338130780507163e-17 -2.683135991663206e-14 9.37361933982681e-15
-1.764808146291931e-16 5.365887334306964e-14 -1.8758156462183126e-14
-8.88750557801535e-17 2.6825775669610233e-14 -9.389538215190545e-15
8.866204027296652e-17 -2.6823698043634477e-14 9.39547387058527e-15
-1.6678433898944833e-16 5.3642918609439835e-14 -1.8803822319691977e-14
7.685840613262541e-17 -2.681939632418696e-14 9.407849942357154e-15
0.0 -0.0 0.0
0.0 -0.0 0.0
-6.429384841421645e-17 2.6815013471109258e-14 -9.420429172367975e-15
-2.926585766972669e-17 1.3405607828288563e-14 -4.71563505800463e-15
0.0 -0.0 0.0
2.710282655882677e-17 -1.3404471287841735e-14 4.718877691442959e-15
-5.0279716587114866e-17 2.680769296374864e-14 -9.441326011625585e-15
0.0 -0.0 0.0
-4.7174200304082965e-17 2.6805520268148498e-14 -9.44750891478922e-15
-4.5904091430363975e-17 2.6804458563286592e-14 -9.450527016508561e-15
0.0 -0.0 0.0
0.0 -0.0 0.0
3.998372227795684e-17 -2.6801880744721953e-14 9.457862168268857e-15
3.8652574698333416e-17 -2.6800895294488847e-14 9.460659825753762e-15
0.0 -0.0 0.0
3.6494440867332577e-17 -2.6798908815378333e-14 9.466293963697682e-15
0.0 -0.0 0.0
0.0 -0.0 0.0
-3.384682476257416e-17 2.6795880624967552e-14 -9.47487218231772e-15
0.0 -0.0 0.0
0.0 -0.0 0.0
3.180702467938783e-17 -2.679287448394998e-14 9.483376621583648e-15
0.0 -0.0 0.0
-3.077217069006159e-17 2.679094440756199e-14 -9.488831212048719e-15
3.017855753163843e-17 -2.679000915805551e-14 9.491473305671963e-15
-2.9942883957679717e-17 2.6789186736074622e-14 -9.49379504675237e-15
0.0 -0.0 0.0
0.0 -0.0 0.0
0.0 -0.0 0.0
-1.3701149114029119e-17 1.3393009774961802e-14 -4.751367506610032e-15
-1.3659025610732939e-17 1.3392686796158537e-14 -4.752277932486603e-15
1.34681572518659e-17 -1.3392385002116405e-14 4.7531288958334404e-15
-1.3286749426514599e-17 1.3392112918536232e-14 -4.753895957637657e-15
1.3180457574740779e-17 -1.3391874795469998e-14 4.754567012312746e-15
0.0 -0.0 0.0

SCALARS Gamma float
LOOKUP_TABLE default
-0.0
-0.0
-0.0
50.85952312083013
54.3803264102664
54.48768655824778
52.42315683315391
47.779005721337946
44.78368400489528
47.33764179718649
53.84824748361777
54.42841721104619
50.39740517766084
45.51735216959953
44.50541148125841
43.70457448877126
40.10186808500012
37.915889074013144
33.279559356882
33.65417443418557
33.20395992974589
34.8581054295926
36.51845407752016
34.50379064096992
36.60930770916642
37.87142258239069
37.99662039212027
38.027869510937386
38.25282572300092
38.53144300334694
38.87632542134949
39.18313968976868
37.22970461179013
37.54950062440707
37.87325579511468
38.1872606322238
38.44601601665652
40.77415611946444
40.707350073285745
40.34653690409865
39.628580670773374
38.403304600548886
36.36990108539696
33.75489317353116
31.09489817952812
28.473800849359975
25.648789157299817
22.928535952044367
20.173186441781365
17.623149474417403
-0.0
-0.0
-0.0
50.85952312083013
54.3803264102664
54.48768655824778
52.42315683315391
47.779005721337946
44.78368400489528
47.33764179718649
53.84824748361777
54.42841721104619
50.39740517766084
45.51735216959953
44.50541148125841
43.70457448877126
40.10186808500012
37.915889074013144
33.279559356882
33.65417443418557
33.20395992974589
34.8581054295926
36.51845407752016
34.50379064096992
36.60930770916642
37.87142258239069
37.99662039212027
38.027869510937386
38.25282572300092
38.53144300334694
38.87632542134949
39.18313968976868
37.22970461179013
37.54950062440707
37.87325579511468
38.1872606322238
38.44601601665652
40.77415611946444
40.707350073285745
40.34653690409865
39.628580670773374
38.403304600548886
36.36990108539696
33.75489317353116
31.09489817952812
28.473800849359975
25.648789157299817
22.928535952044367
20.173186441781365
17.623149474417403

VECTORS Ftot float
114.49296060234055 -13.428908206256983 -36.89562206462003
138.09600485906617 -29.94895515603724 -82.28407802747161
141.64191542859365 -44.55134131500822 -122.40380426940119
1258.2469372811688 4.821006027495885 13.245605199599606
1287.5493863761387 74.74790359668013 205.3681772834501
1382.8852903493303 97.71803998770942 268.47810833959613
1467.0895783571652 95.86531542673535 263.3877894438509
1458.2656869763916 94.02959347303647 258.3441848276661
1474.7931858951756 100.8977636480772 277.21432729656226
1665.554937491078 128.88110453817902 354.09792451301837
2021.8061336268204 168.20646765797784 462.1434716965194
2176.3591311548585 188.11332823686823 516.8371216292524
2139.1863975359943 187.81544861888494 516.0187041051275
2049.965671530344 172.6916973161747 474.4665389034835
2120.2648314084768 167.73370190844742 460.84455847499305
2190.5598619273455 166.98998085212708 458.80120166638005
2109.726438982692 151.51388641878722 416.2809816694313
2085.1128622913425 143.74904140437584 394.9472453267712
1909.447754996661 124.31759174677418 341.55977616524126
2006.477647820879 126.57933954085436 347.77387715797784
2051.6608760431395 126.53172889356458 347.64306797962354
2230.4735694971596 129.22268498342663 355.0364090732635
2411.582897006166 136.88527463990587 376.08920112898676
2347.3272148441524 130.47356162775662 358.4731644080833
2561.0763983371107 140.06555969307448 384.8269624999966
2723.142169487601 140.51125925135503 386.0515119722333
2801.7373251299764 140.39413286067781 385.7297098586254
2871.118762001363 140.57737528905184 386.23316429286916
2953.0952356366884 141.27766844604403 388.1572039287037
3037.4699103530656 142.54795588745353 391.6472899901931
3125.539584703547 144.2981901836085 396.456019197634
3209.135510919062 145.87068552193017 400.77641463187047
3102.071557529661 140.61474232073297 386.335829368645
3181.071107412587 140.9497538685785 387.25626603160725
3258.101905327071 143.10287032884096 393.1719048876344
3332.5795825988807 145.59296946235543 400.013396029169
3401.0685790843063 146.6796020919323 402.998894642174
3652.4470528801276 157.2924202660141 432.1573729322414
3689.7730177330877 157.56748025296244 432.9130940353774
3697.4865808051004 156.63211916598584 430.3432105698727
3668.3408812826383 155.758404405936 427.9426989955917
3589.090985578741 150.0555793852086 412.2743160240422
3429.376799025438 140.6569738000773 386.45185940453376
3208.2409823584157 130.5906233125804 358.79478874381994
2976.8683244173258 120.40839059730914 330.81933427897997
2743.2974205570135 111.54986617787783 306.480738466905
2485.6309432300927 100.4494829961774 275.98268632788916
2233.564913966676 89.68756035451034 246.41454687999138
1973.9218559631468 79.12548118607367 217.3954728622195
1731.0546455144147 69.05133259406261 189.7169770854385
114.49296060234055 -13.428908206256983 -36.89562206462003
138.09600485906617 -29.94895515603724 -82.28407802747161
141.64191542859365 -44.55134131500822 -122.40380426940119
1258.2469372811688 4.821006027495885 13.245605199599606
1287.5493863761387 74.74790359668013 205.3681772834501
1382.8852903493303 97.71803998770942 268.47810833959613
1467.0895783571652 95.86531542673535 263.3877894438509
1458.2656869763916 94.02959347303647 258.3441848276661
1474.7931858951756 100.8977636480772 277.21432729656226
1665.554937491078 128.88110453817902 354.09792451301837
2021.8061336268204 168.20646765797784 462.1434716965194
2176.3591311548585 188.11332823686823 516.8371216292524
2139.1863975359943 187.81544861888494 516.0187041051275
2049.965671530344 172.6916973161747 474.4665389034835
2120.2648314084768 167.73370190844742 460.84455847499305
2190.5598619273455 166.98998085212708 458.80120166638005
2109.726438982692 151.51388641878722 416.2809816694313
2085.1128622913425 143.74904140437584 394.9472453267712
1909.447754996661 124.31759174677418 341.55977616524126
2006.477647820879 126.57933954085436 347.77387715797784
2051.6608760431395 126.53172889356458 347.64306797962354
2230.4735694971596 129.22268498342663 355.0364090732635
2411.582897006166 136.88527463990587 376.08920112898676
2347.3272148441524 130.47356162775662 358.4731644080833
2561.0763983371107 140.06555969307448 384.8269624999966
2723.142169487601 140.51125925135503 386.0515119722333
2801.7373251299764 140.39413286067781 385.7297098586254
2871.118762001363 140.57737528905184 386.23316429286916
2953.0952356366884 141.27766844604403 388.1572039287037
3037.4699103530656 142.54795588745353 391.6472899901931
3125.539584703547 144.2981901836085 396.456019197634
3209.135510919062 145.87068552193017 400.77641463187047
3102.071557529661 140.61474232073297 386.335829368645
3181.071107412587 140.9497538685785 387.25626603160725
3258.101905327071 143.10287032884096 393.1719048876344
3332.5795825988807 145.59296946235543 400.013396029169
3401.0685790843063 146.6796020919323 402.998894642174
3652.4470528801276 157.2924202660141 432.1573729322414
3689.7730177330877 157.56748025296244 432.9130940353774
3697.4865808051004 156.63211916598584 430.3432105698727
3668.3408812826383 155.758404405936 427.9426989955917
3589.090985578741 150.0555793852086 412.2743160240422
3429.376799025438 140.6569738000773 386.45185940453376
3208.2409823584157 130.5906233125804 358.79478874381994
2976.8683244173258 120.40839059730914 330.81933427897997
2743.2974205570135 111.54986617787783 306.480738466905
2485.6309432300927 100.4494829961774 275.98268632788916
2233.564913966676 89.68756035451034 246.41454687999138
1973.9218559631468 79.12548118607367 217.3954728622195
1731.0546455144147 69.05133259406261 189.7169770854385

VECTORS D float
90.39278652734836 9.978032570340671 29.356460794333234
58.888466710582136 12.18065452036531 35.30344239063385
11.837015585480353 3.568014832553855 10.28575323986512
523.1720756300673 206.08577382799012 592.4015127039581
508.2516772358505 246.1682721087655 706.3604372557166
467.714888952287 267.82249748796454 767.0906526387333
406.50382732609467 267.8294289754859 766.0584575504641
342.88936140314644 254.69781212280935 727.6821271591159
306.3019598654818 252.47988542234407 720.7168283125037
318.66278547371405 287.84229499470985 821.0947572544628
356.1934854707426 349.00285867263625 994.9932399290017
352.4909602219785 371.9221458125402 1059.239780321157
318.98909771781445 359.44458578780615 1023.1895634832996
276.1980929567665 330.41251424798526 940.1400307036452
257.0925032461349 324.86392068806975 924.004376515004
243.27405503675288 323.2811678253131 919.1996677903163
213.3495304151204 297.02405599974145 844.2957911346818
194.54789739943374 282.80554276956667 803.6710501738762
163.97000962783054 248.11110910155745 704.3126668285242
161.04355376653788 252.82720600935542 717.498046645171
155.07155106854933 251.96859349601834 714.8527934342206
156.33040528175184 262.3062068491876 743.9594818119912
160.2949185416929 277.1548130420693 785.8358828963505
148.34422025570464 263.7896121758232 747.7124223389386
154.6327069164396 282.2750848048903 799.8635977633709
154.43770272000765 288.9057659945764 818.3990290384461
151.62052995129986 290.1912276321327 821.7838976981581
148.80339930255192 291.1445908596167 824.422343144146
147.07968814755085 293.55448197974636 831.0031299014585
145.92905918321227 296.71211655342057 839.6903715249947
145.30436532236658 300.59513215219096 850.4192629340833
144.67315640483127 304.14926903091646 860.206788188846
136.63197476084335 291.58443790374196 824.410574573603
135.8528216876706 293.99614135006897 830.9650166956053
135.97698333031124 298.109215846 842.3214594886683
136.31950315388224 302.487445507688 854.4199130079917
136.05599390312156 305.30430770571564 862.1035297496554
143.81946311863283 326.0974510310749 920.5302779427363
142.71299491948005 326.72032763470673 922.0054978671693
140.6498394147816 324.87831527160955 916.5329925029583
138.02645537646237 321.45881425109906 906.6434708570871
132.60899055644137 311.2037808953051 877.4814709806157
124.32718360419649 293.8163847612011 828.2401231231767
114.83533034895069 273.1251455240417 769.724357112088
105.35400088912375 252.0340815181396 710.1221788939903
96.58878288334171 232.27875133047982 654.3214225868644
86.6789374092998 209.42529303200254 589.8297330761917
77.19706925360838 187.28893118596935 527.3924459139217
67.81561782693497 165.12148387978672 464.8987787031854
59.07552322339729 144.28258535539214 406.1728227270257
90.39278652734836 9.978032570340671 29.356460794333234
58.888466710582136 12.18065452036531 35.30344239063385
11.837015585480353 3.568014832553855 10.28575323986512
523.1720756300673 206.08577382799012 592.4015127039581
508.2516772358505 246.1682721087655 706.3604372557166
467.714888952287 267.82249748796454 767.0906526387333
406.50382732609467 267.8294289754859 766.0584575504641
342.88936140314644 254.69781212280935 727.6821271591159
306.3019598654818 252.47988542234407 720.7168283125037
318.66278547371405 287.84229499470985 821.0947572544628
356.1934854707426 349.00285867263625 994.9932399290017
352.4909602219785 371.9221458125402 1059.239780321157
318.98909771781445 359.44458578780615 1023.1895634832996
276.1980929567665 330.41251424798526 940.1400307036452
257.0925032461349 324.86392068806975 924.004376515004
243.27405503675288 323.2811678253131 919.1996677903163
213.3495304151204 297.02405599974145 844.2957911346818
194.54789739943374 282.80554276956667 803.6710501738762
163.97000962783054 248.11110910155745 704.3126668285242
161.04355376653788 252.82720600935542 717.498046645171
155.07155106854933 251.96859349601834 714.8527934342206
156.33040528175184 262.3062068491876 743.9594818119912
160.2949185416929 277.1548130420693 785.8358828963505
148.34422025570464 263.7896121758232 747.7124223389386
154.6327069164396 282.2750848048903 799.8635977633709
154.43770272000765 288.9057659945764 818.3990290384461
151.62052995129986 290.1912276321327 821.7838976981581
148.80339930255192 291.1445908596167 824.422343144146
147.07968814755085 293.55448197974636 831.0031299014585
145.92905918321227 296.71211655342057 839.6903715249947
145.30436532236658 300.59513215219096 850.4192629340833
144.67315640483127 304.14926903091646 860.206788188846
136.63197476084335 291.58443790374196 824.410574573603
135.8528216876706 293.99614135006897 830.9650166956053
135.97698333031124 298.109215846 842.3214594886683
136.31950315388224 302.487445507688 854.4199130079917
136.05599390312156 305.30430770571564 862.1035297496554
143.81946311863283 326.0974510310749 920.5302779427363
142.71299491948005 326.72032763470673 922.0054978671693
140.6498394147816 324.87831527160955 916.5329925029583
138.02645537646237 321.45881425109906 906.6434708570871
132.60899055644137 311.2037808953051 877.4814709806157
124.32718360419649 293.8163847612011 828.2401231231767
114.83533034895069 273.1251455240417 769.724357112088
105.35400088912375 252.0340815181396 710.1221788939903
96.58878288334171 232.27875133047982 654.3214225868644
86.6789374092998 209.42529303200254 589.8297330761917
77.19706925360838 187.28893118596935 527.3924459139217
67.81561782693497 165.12148387978672 464.8987787031854
59.07552322339729 144.28258535539214 406.1728227270257

VECTORS L float
24.1001740749922 -23.406940776597658 -66.25208285895327
79.20753814848403 -42.12960967640255 -117.58752041810546
129.80489984311333 -48.119356147562094 -132.68955750926636
735.0748616511012 -201.26476780049424 -579.1559075043585
779.2977091402884 -171.42036851208536 -500.9922599722663
915.1704013970434 -170.1044575002551 -498.6125442991371
1060.5857510310711 -171.9641135487506 -502.67066810661316
1115.3763255732451 -160.66821864977285 -469.3379423314496
1168.4912260296935 -151.58212177426682 -443.5025010159414
1346.8921520173637 -158.96119045653077 -466.9968327414444
1665.6126481560777 -180.79639101465844 -532.8497682324826
1823.86817093288 -183.80881757567204 -542.402658691905
1820.1972998181798 -171.62913716892137 -507.1708593781722
1773.7675785735776 -157.7208169318106 -465.6734918001618
1863.172328162342 -157.1302187796224 -463.1598180400111
1947.285806890593 -156.29118697318611 -460.3984661239367
1896.3769085675715 -145.51016958095423 -428.0148094652506
1890.5649648919089 -139.05650136519085 -408.7238048471051
1745.4777453688307 -123.79351735478325 -362.752890663283
1845.4340940543416 -126.24786646850102 -369.7241694871931
1896.5893249745902 -125.43686460245374 -367.209725454597
2074.1431642154075 -133.0835218657609 -388.9230727387276
2251.287978464473 -140.26953840216336 -409.74668176736367
2198.982994588448 -133.3160505480666 -389.2392579308554
2406.4436914206713 -142.2095251118159 -415.03663526337454
2568.704466767594 -148.39450674322143 -432.34751706621296
2650.1167951786765 -149.79709477145488 -436.0541878395326
2722.3153626988114 -150.56721557056485 -438.1891788512769
2806.0155474891376 -152.2768135337024 -442.84592597275514
2891.5408511698542 -154.1641606659671 -448.04308153480156
2980.2352193811807 -156.2969419685826 -453.96324373644956
3064.462354514231 -158.2785835089864 -459.4303735569758
2965.439582768817 -150.96969558300896 -438.074745204958
3045.218285724917 -153.04638748149048 -443.70875066399805
3122.12492199676 -155.00634551715902 -449.1495546010341
3196.260079444999 -156.8944760453327 -454.4065169788232
3265.0125851811854 -158.6247056137833 -459.10463510748156
3508.6275897614946 -168.80503076506085 -488.3729050104949
3547.0600228136077 -169.15284738174438 -489.0924038317921
3556.8367413903184 -168.24619610562365 -486.18978193308544
3530.3144259061755 -165.70040984516308 -478.7007718614954
3456.481995022301 -161.14820151009653 -465.2071549565735
3305.049615421241 -153.1594109611238 -441.7882637186428
3093.405652009465 -142.53452221146134 -410.9295683682681
2871.514323528202 -131.62569092083052 -379.30284461501043
2646.708637673672 -120.72888515260209 -347.84068411995975
2398.9520058207936 -108.97581003582515 -313.8470467483024
2156.367844713068 -97.60137083145901 -280.97789903393044
1906.1062381362117 -85.99600269371307 -247.50330584096588
1671.9791222910173 -75.23125276132953 -216.45584564158713
24.1001740749922 -23.406940776597658 -66.25208285895327
79.20753814848403 -42.12960967640255 -117.58752041810546
129.80489984311333 -48.119356147562094 -132.68955750926636
735.0748616511012 -201.26476780049424 -579.1559075043585
779.2977091402884 -171.42036851208536 -500.9922599722663
915.1704013970434 -170.1044575002551 -498.6125442991371
1060.5857510310711 -171.9641135487506 -502.67066810661316
1115.3763255732451 -160.66821864977285 -469.3379423314496
1168.4912260296935 -151.58212177426682 -443.5025010159414