# vtk DataFile Version 4.0
[MyVLM domain - lattices] 
ASCII
DATASET UNSTRUCTURED_GRID
POINTS 152 float
0.0 -1.9080246442064706 1.186703693198338
0.0 -2.44698347053584 3.3625338608426993
0.0 -2.943469591899821 5.504143380985608
0.0 -3.4397573072895224 7.604078154124398
0.0 -3.9361853586246887 9.662278450919118
0.0 -4.396398597830691 11.685154664862978
0.0 -4.790282202322819 13.678016851696912
0.0 -5.110062962552637 15.64223563799101
0.0 -5.40314392991127 17.569452586817103
0.0 -5.68893463834835 19.456245273656894
0.0 -5.967190655693818 21.302656798496923
0.0 -6.237554257791208 23.108750237757622
0.0 -6.499632041886615 24.87459495895879
0.0 -6.7501863839984555 26.60076184256177
0.0 -6.991377284953968 28.28687002214237
0.0 -7.227939531224837 29.932084627097737
0.0 -7.460577922928169 31.536281382151206
0.0 -7.688131012042727 33.099665081925636
0.0 -7.909762038291458 34.62238326983424
0.0 -8.125471242964805 36.104435903331
0.0 -8.33525886090926 37.54582294100615
0.0 -8.53912512052735 38.946544342586165
0.0 -8.73707024377764 40.306600068933754
0.0 -8.92909444617475 41.62599008204787
0.0 -9.115197936789325 42.90471434506374
0.0 -9.295380918248062 44.14277282225278
0.0 -9.469643586733698 45.3401654790227
0.0 -9.637986131985008 46.49689228191745
0.0 -9.800410310075243 47.6129529212939
0.0 -9.956937900811873 48.68834355678438
0.0 -10.107573331634727 49.72306340771179
0.0 -10.252313486193366 50.717113023572786
0.0 -10.391155370614 51.670492932268104
0.0 -10.524096113499501 52.58320364010252
0.0 -10.65113296592939 53.45524563178489
0.0 -10.772263301459844 54.286619370428106
0.0 -10.887069037089667 55.07739857534549
0.0 -10.994228120214775 55.82781636008102
0.0 -11.091642636730697 56.53824264349456
0.0 -11.178221224667038 57.20886986214718
0.0 -11.2547285718993 57.83956318093463
0.0 -11.320914464283419 58.430366719361444
0.0 -11.365181136213076 58.98332547641996
0.0 -11.387791868234114 59.49839302864644
0.0 -11.39752783367924 59.97402101826006
0.0 -11.400373154251998 60.40915428314863
0.0 -11.39784307320057 60.80352564504517
0.0 -11.388489001485302 61.15739052928133
0.0 -11.373580766108756 61.47052503109573
0.0 -11.355634043048065 61.742485568938875
0.0 -11.33682658165657 61.97288814684255
-0.7686761955390344 1.2954814770810057 1.7515682552460439
-0.8409029948616161 1.0530502558114583 3.979684240187316
-0.8940476007249757 0.7795989608145764 6.160620817856372
-0.9506443374492793 0.5212818573769884 8.302516230498023
-1.0210144815146838 0.27667813617470416 10.405119951094006
-1.048631451549771 0.015731763396077625 12.463132289950243
-0.9920275022819518 -0.2820421944773721 14.472941200589407
-0.9074715353829097 -0.636408708056083 16.431061585419965
-0.8388231939293685 -1.0078578964847824 18.34446010244128
-0.7803448823218929 -1.376321844270731 20.216675266601296
-0.7251531968841737 -1.7396053342363316 22.048094153916946
-0.671766762046156 -2.094607844969944 23.83926346996736
-0.6188683613166902 -2.4454943175758372 25.5894488232628
-0.5668565661826578 -2.7936325477403736 27.298409034519654
-0.5162677046190278 -3.1381978612292194 28.96628951605574
-0.4681223452427161 -3.473644950220686 30.594068055256347
-0.42442582165628834 -3.7993356517344004 32.181857177473006
-0.3846819074085718 -4.116435631280558 33.7294513444258
-0.3476243488905531 -4.425684335896264 35.236720171651264
-0.3131098246080671 -4.727028333446171 36.70367308067651
-0.28048746260446866 -5.0203769004418834 38.13032606850032
-0.2502235469699514 -5.305741634741777 39.51667709010734
-0.2227998260917326 -5.583122079923102 40.86272622597723
-0.19746739264611052 -5.852429536845554 42.168489116161574
-0.17533279734900953 -6.113699360157264 43.433959526682024
-0.15613374469432648 -6.366873883015007 44.659147625758926
-0.13998404755873647 -6.611922294701998 45.84405884615295
-0.12578653595324127 -6.848763242016053 46.98870753262861
-0.11250427274737486 -7.07733675835809 48.09310425891526
-0.10008179164308317 -7.297631054964056 49.15725110369008
-0.08845752889585208 -7.509637564006214 50.18114957769225
-0.07764231497362577 -7.71335180314975 51.16480047127835
-0.06766212708627829 -7.908769456980008 52.1082045453724
-0.0584684819534103 -8.095884109843238 53.01136293122728
-0.050013688763705585 -8.274689963838929 53.87427665116926
-0.042252254921319045 -8.445181833323675 54.696946619567186
-0.03513536582041269 -8.607679403655204 55.479316467267154
-0.028615518964613278 -8.76321148386797 56.22120478747842
-0.022687693716904638 -8.91454364332318 56.92212393570554
-0.017408965386693863 -9.063106350242553 57.58182168180602
-0.013252482528008399 -9.206571438956775 58.20070854420289
-0.010166684094042405 -9.34505785924722 58.778763548840345
-0.00760098697125575 -9.492309477824104 59.31356328119814
-0.005464879873870877 -9.648371164131397 59.80509982958265
-0.0039015967321000085 -9.8028852644637 60.255199527799014
-0.002883995165670249 -9.948996186363441 60.66507120176622
-0.0022477517166190047 -10.085490183463339 61.034928867716566
-0.00179874084072329 -10.214968446416242 61.364313865555985
-0.0014595970466816986 -10.336391491268655 61.65340948435147
-0.0012027506489664258 -10.447011058339056 61.90270031643493
-0.0010073243559101815 -10.544448075622954 62.11260585638974
-0.603592196400244 0.33632338549188556 2.7178743800426393
-0.6506064733449719 0.0134368234303055 4.910949051994921
-0.6917594768153456 -0.3100730555768312 7.06220408502165
-0.7393720571114861 -0.6227578356573921 9.173658143727451
-0.7761172248991705 -0.9319192822178795 11.244023729864356
-0.7652471076868961 -1.2482015116746739 13.271423998522353
-0.712312139124323 -1.5819622340594774 15.254032605964502
-0.6548605234921042 -1.930750838260813 17.19228166104898
-0.607188028594223 -2.2805772238157704 19.088637995950215
-0.564561779702275 -2.6254883536954194 20.94415129171357
-0.5238449845988737 -2.963423056387982 22.759184988488435
-0.48398817126106725 -3.2946865984143967 24.533685259550865
-0.4446468478122555 -3.620899877729213 26.267366296858487
-0.4061716015506322 -3.942131861982651 27.96021593955379
-0.369146268698154 -4.256855656316065 29.612503420397044
-0.3347055625871267 -4.563432407502283 31.224517713429627
-0.3034153983993225 -4.862002848001971 32.79623400372166
-0.27461484611217185 -5.153031618983081 34.32757036249888
-0.24777531506198255 -5.436671411160446 35.81849986626857
-0.22259898270470088 -5.712868225692278 37.26903203648345
-0.19901662859040753 -5.981592448373448 38.67917209492691
-0.1773837648981315 -6.242848313537454 40.048919294971704
-0.15760020702669117 -6.4966024425322955 41.37827952217475
-0.13980007124817 -6.742834884246566 42.6672562944553
-0.124299953266251 -6.981537323069274 43.915851078079925
-0.11104417209489861 -7.212676629766596 45.12406971462639
-0.09966396881699166 -7.436210791109106 46.2919196121606
-0.08935905326273105 -7.6520870553978355 47.41941007223036
-0.07971977414642176 -7.860281456356694 48.506545320736784
-0.07070224520210072 -8.060789636169677 49.55332612608039
-0.06228744145105419 -8.253606864911998 50.559753322274545
-0.05448916577246402 -8.43872907964958 51.52582762572414
-0.04729897838988322 -8.616151523072904 52.45154987527121
-0.04068081401891846 -8.785868912559422 53.33692100238462
-0.03459972888188424 -8.94787645735963 54.18194185180279
-0.029020357778149403 -9.102239506185768 54.98660090078458
-0.023906581794384738 -9.249246227484244 55.750847337457905
-0.019238704755569217 -9.389892017314864 56.47450564664093
-0.015036247163849435 -9.525351730261868 57.157368669772055
-0.011498042968013347 -9.65524789552054 57.79950296513857
-0.00878218748326905 -9.778816366349337 58.401043272428225
-0.006662876649486808 -9.899774701463809 58.96133408573711
-0.004899700066922485 -10.021876866289212 59.4797134796761
-0.0035124287272390825 -10.14238612346233 59.95666401488144
-0.0025445969616638467 -10.256693167551584 60.39299843626305
-0.0019244050808584702 -10.362709417116614 60.789085017080275
-0.0015174347090033604 -10.460963495540577 61.14483054676802
-0.0012218767077768707 -10.552018697581094 61.46013570126244
-0.0009983803858680466 -10.634927807247495 61.735167500299234
-0.0008287781268287279 -10.708354753323833 61.97016152928193

CELLS 100 350
4 0 51 52 1
4 1 52 53 2
4 2 53 54 3
4 3 54 55 4
4 4 55 56 5
4 5 56 57 6
4 6 57 58 7
4 7 58 59 8
4 8 59 60 9
4 9 60 61 10
4 10 61 62 11
4 11 62 63 12
4 12 63 64 13
4 13 64 65 14
4 14 65 66 15
4 15 66 67 16
4 16 67 68 17
4 17 68 69 18
4 18 69 70 19
4 19 70 71 20
4 20 71 72 21
4 21 72 73 22
4 22 73 74 23
4 23 74 75 24
4 24 75 76 25
4 25 76 77 26
4 26 77 78 27
4 27 78 79 28
4 28 79 80 29
4 29 80 81 30
4 30 81 82 31
4 31 82 83 32
4 32 83 84 33
4 33 84 85 34
4 34 85 86 35
4 35 86 87 36
4 36 87 88 37
4 37 88 89 38
4 38 89 90 39
4 39 90 91 40
4 40 91 92 41
4 41 92 93 42
4 42 93 94 43
4 43 94 95 44
4 44 95 96 45
4 45 96 97 46
4 46 97 98 47
4 47 98 99 48
4 48 99 100 49
4 49 100 101 50
1 102
1 103
1 104
1 105
1 106
1 107
1 108
1 109
1 110
1 111
1 112
1 113
1 114
1 115
1 116
1 117
1 118
1 119
1 120
1 121
1 122
1 123
1 124
1 125
1 126
1 127
1 128
1 129
1 130
1 131
1 132
1 133
1 134
1 135
1 136
1 137
1 138
1 139
1 140
1 141
1 142
1 143
1 144
1 145
1 146
1 147
1 148
1 149
1 150
1 151

CELL_TYPES 100
9
9
9
9
9
9
9
9
9
9
9
9
9
9
9
9
9
9
9
9
9
9
9
9
9
9
9
9
9
9
9
9
9
9
9
9
9
9
9
9
9
9
9
9
9
9
9
9
9
9
1
1
1
1
1
1
1
1
1
1
1
1
1
1
1
1
1
1
1
1
1
1
1
1
1
1
1
1
1
1
1
1
1
1
1
1
1
1
1
1
1
1
1
1
1
1
1
1
1
1

CELL_DATA 100

VECTORS S float
2.2067182723208e-19 6.4796470576233e-19 -5.55069307087352e-17
6.164431446588999e-19 9.794971496661299e-19 -1.1101627010155541e-16
-0.0 -0.0 0.0
1.087977678603e-20 -1.19620570431437e-18 8.325813337649045e-17
1.1595871719523999e-18 -6.80438440216528e-18 4.440355639087382e-16
0.0 -0.0 0.0
0.0 -0.0 0.0
-1.16192515126876e-18 6.19174263406771e-18 -4.440445231712122e-16
0.0 -0.0 0.0
-2.59930358618529e-18 1.1491656839815419e-17 -8.881002706141659e-16
2.71765460988787e-18 -1.1172446522080829e-17 8.881039894140464e-16
-2.7413147222607797e-18 1.087899601060706e-17 -8.881075598486968e-16
0.0 -0.0 0.0
0.0 -0.0 0.0
0.0 -0.0 0.0
0.0 -0.0 0.0
4.22451545056064e-18 -2.00052020195278e-17 1.7762391635828248e-15
1.98856288122191e-18 -9.79223816578738e-18 8.881222116974575e-16
1.83893084522475e-18 -9.59492360332465e-18 8.881246877524601e-16
-1.7529321733816298e-18 9.42779420050604e-18 -8.881266515234865e-16
-8.434225136837e-19 4.63911344349525e-18 -4.4406417731018877e-16
-1.55646861932058e-18 9.12718870301982e-18 -8.881301577206059e-16
-1.50445581780139e-18 9.00173488026768e-18 -8.881315277608657e-16
7.2718802931935e-19 -4.44230660994232e-18 4.4406639527756006e-16
1.41328086359055e-18 -8.77572221466346e-18 8.881339395371757e-16
2.63638922136836e-18 -1.7324896824892138e-17 1.7762703956002668e-15
0.0 -0.0 0.0
1.22330924961456e-18 -8.46508376274324e-18 8.881372366320316e-16
1.19200742894594e-18 -8.445323395122959e-18 8.88137467316886e-16
-1.15438503663726e-18 8.33744503639168e-18 -8.881385362804972e-16
0.0 -0.0 0.0
0.0 -0.0 0.0
1.07164749055241e-18 -8.019370137340819e-18 8.881415689490433e-16
-1.03492902722725e-18 7.912552712329419e-18 -8.881425705665138e-16
-5.0608872018549e-19 3.90433536750567e-18 -4.440717581031227e-16
4.9681008070781e-19 -3.85326619648652e-18 4.440722146505179e-16
-4.8383280109911e-19 3.8023846583258494e-18 -4.4407266756915327e-16
-9.510881338558299e-19 7.488882669797449e-18 -8.881463377668861e-16
-4.658249411914999e-19 3.6993271291984495e-18 -4.4407355729785167e-16
-4.5654022394962e-19 3.65526811548599e-18 -4.440739317853287e-16
4.5199100699244e-19 -3.61317089116206e-18 4.440742809547675e-16
-4.4055213472547e-19 3.5715347008993e-18 -4.440746292673674e-16
0.0 -0.0 0.0
-8.3916852588818e-19 6.98755511191731e-18 -8.88150536277919e-16
-4.1275881537498995e-19 3.45867771747871e-18 -4.440755492974815e-16
-8.2224197232372e-19 6.853647230389889e-18 -8.881515955391806e-16
0.0 -0.0 0.0
0.0 -0.0 0.0
1.9789795715782998e-19 -1.67324162193995e-18 2.2203821219597856e-16
-1.9572895257169e-19 1.6629222685565299e-18 -2.2203829164362418e-16
2.2067182723208e-19 6.4796470576233e-19 -5.55069307087352e-17
6.164431446588999e-19 9.794971496661299e-19 -1.1101627010155541e-16
-0.0 -0.0 0.0
1.087977678603e-20 -1.19620570431437e-18 8.325813337649045e-17
1.1595871719523999e-18 -6.80438440216528e-18 4.440355639087382e-16
0.0 -0.0 0.0
0.0 -0.0 0.0
-1.16192515126876e-18 6.19174263406771e-18 -4.440445231712122e-16
0.0 -0.0 0.0
-2.59930358618529e-18 1.1491656839815419e-17 -8.881002706141659e-16
2.71765460988787e-18 -1.1172446522080829e-17 8.881039894140464e-16
-2.7413147222607797e-18 1.087899601060706e-17 -8.881075598486968e-16
0.0 -0.0 0.0
0.0 -0.0 0.0
0.0 -0.0 0.0
0.0 -0.0 0.0
4.22451545056064e-18 -2.00052020195278e-17 1.7762391635828248e-15
1.98856288122191e-18 -9.79223816578738e-18 8.881222116974575e-16
1.83893084522475e-18 -9.59492360332465e-18 8.881246877524601e-16
-1.7529321733816298e-18 9.42779420050604e-18 -8.881266515234865e-16
-8.434225136837e-19 4.63911344349525e-18 -4.4406417731018877e-16
-1.55646861932058e-18 9.12718870301982e-18 -8.881301577206059e-16
-1.50445581780139e-18 9.00173488026768e-18 -8.881315277608657e-16
7.2718802931935e-19 -4.44230660994232e-18 4.4406639527756006e-16
1.41328086359055e-18 -8.77572221466346e-18 8.881339395371757e-16
2.63638922136836e-18 -1.7324896824892138e-17 1.7762703956002668e-15
0.0 -0.0 0.0
1.22330924961456e-18 -8.46508376274324e-18 8.881372366320316e-16
1.19200742894594e-18 -8.445323395122959e-18 8.88137467316886e-16
-1.15438503663726e-18 8.33744503639168e-18 -8.881385362804972e-16
0.0 -0.0 0.0
0.0 -0.0 0.0
1.07164749055241e-18 -8.019370137340819e-18 8.881415689490433e-16
-1.03492902722725e-18 7.912552712329419e-18 -8.881425705665138e-16
-5.0608872018549e-19 3.90433536750567e-18 -4.440717581031227e-16
4.9681008070781e-19 -3.85326619648652e-18 4.440722146505179e-16
-4.8383280109911e-19 3.8023846583258494e-18 -4.4407266756915327e-16
-9.510881338558299e-19 7.488882669797449e-18 -8.881463377668861e-16
-4.658249411914999e-19 3.6993271291984495e-18 -4.4407355729785167e-16
-4.5654022394962e-19 3.65526811548599e-18 -4.440739317853287e-16
4.5199100699244e-19 -3.61317089116206e-18 4.440742809547675e-16
-4.4055213472547e-19 3.5715347008993e-18 -4.440746292673674e-16
0.0 -0.0 0.0
-8.3916852588818e-19 6.98755511191731e-18 -8.88150536277919e-16
-4.1275881537498995e-19 3.45867771747871e-18 -4.440755492974815e-16
-8.2224197232372e-19 6.853647230389889e-18 -8.881515955391806e-16
0.0 -0.0 0.0
0.0 -0.0 0.0
1.9789795715782998e-19 -1.67324162193995e-18 2.2203821219597856e-16
-1.9572895257169e-19 1.6629222685565299e-18 -2.2203829164362418e-16

SCALARS Gamma float
LOOKUP_TABLE default
-0.0
-0.0
-0.0
51.469333314440945
55.21025943265978
55.20608047124658
52.96820004366341
48.225887856603435
45.11187134927689
47.79798335456775
54.49291715294799
55.125597161829326
51.25570771093924
46.396732857614396
45.363911770751066
44.54676698853897
40.93171618015569
38.80228751131879
34.12259415336297
34.51744510880739
34.0157233669718
35.61236245997316
37.206666524788226
35.084869423571924
37.16312325509558
38.43161242895017
38.53092236370319
38.630680998753846
38.798754803615175
39.06772830408696
39.40240790223993
39.69994575924255
37.70917593312954
38.02003384305673
38.33495292751319
38.640268751008854
38.89011119267995
41.26443986554201
41.18073035144333
40.801279522036644
40.06647241114247
38.82283875153572
36.76309819584039
34.11639433820329
31.431648012791193
28.776138098954497
25.921857178066887
23.166157580999325
20.3829722188662
17.807040800056093
-0.0
-0.0
-0.0
51.469333314440945
55.21025943265978
55.20608047124658
52.96820004366341
48.225887856603435
45.11187134927689
47.79798335456775
54.49291715294799
55.125597161829326
51.25570771093924
46.396732857614396
45.363911770751066
44.54676698853897
40.93171618015569
38.80228751131879
34.12259415336297
34.51744510880739
34.0157233669718
35.61236245997316
37.206666524788226
35.084869423571924
37.16312325509558
38.43161242895017
38.53092236370319
38.630680998753846
38.798754803615175
39.06772830408696
39.40240790223993
39.69994575924255
37.70917593312954
38.02003384305673
38.33495292751319
38.640268751008854
38.89011119267995
41.26443986554201
41.18073035144333
40.801279522036644
40.06647241114247
38.82283875153572
36.76309819584039
34.11639433820329
31.431648012791193
28.776138098954497
25.921857178066887
23.166157580999325
20.3829722188662
17.807040800056093

VECTORS Ftot float
116.30045410883633 -39.60745622081898 2.198655492159448e-15
140.03492589021286 -88.13049645653649 4.8922253168849455e-15
143.35144724581525 -130.80716427768255 7.261256278350892e-15
1283.938617398282 11.677728599588923 -6.482441583294073e-16
1312.3491155232523 223.64744693136095 -1.2414927249092287e-14
1405.2200597650885 290.5488888634869 -1.6128703309775987e-14
1486.3146827993764 283.09875899378886 -1.571513802388664e-14
1476.1522065396384 277.0106054541341 -1.5377177612027727e-14
1489.0582578105616 296.52389944278025 -1.6460383025651526e-14
1684.4404344447503 381.0044211203629 -2.1149994040591675e-14
2048.6635276828792 498.3295170948428 -2.7662845186453287e-14
2206.6079405451133 556.0262020296755 -3.0865654589413226e-14
2176.9310743118863 560.1423014977332 -3.1094144009467494e-14
2090.4305027751325 517.2373555601351 -2.8712441066956394e-14
2161.9516174581954 502.5232743781847 -2.7895645481236083e-14
2233.4191964747192 500.53094722622956 -2.7785049107401758e-14
2154.473127048111 454.9619146134082 -2.525545964656915e-14
2134.647721875751 433.49448331822504 -2.4063777821395522e-14
1957.9615606457185 375.25633934054315 -2.083091140362244e-14
2058.1024938553774 382.6678861320924 -2.1242334898425704e-14
2102.0292858421194 382.16328307030034 -2.121432380155081e-14
2279.1609993998422 388.667605039376 -2.157538620203298e-14
2457.4761799434814 410.71686571537265 -2.2799366045955738e-14
2387.2709819014103 390.78682162433523 -2.1693026354372454e-14
2600.2516772353947 418.7559549019873 -2.3245625141555505e-14
2763.7650952543872 420.5716536824505 -2.3346416671148215e-14
2841.4827675480433 419.70734690258536 -2.3298438006780912e-14
2916.6974558807865 421.49883877226205 -2.3397885782888113e-14
2995.430273079485 422.7872600429079 -2.3469407530892506e-14
3079.951920573294 426.44364012631917 -2.3672377398661722e-14
3168.055220080698 431.4980149362082 -2.395295156311295e-14
3251.6912146368904 436.0424694764112 -2.4205219466357753e-14
3142.2759099067125 419.90979787739604 -2.3309676293460544e-14
3221.109973900738 421.3078045832902 -2.338728125513375e-14
3298.0053633553525 427.49486311973624 -2.373073199722708e-14
3372.285099600093 434.79613062541654 -2.4136033761914786e-14
3440.5359246489584 437.7895145511003 -2.430219994970665e-14
3696.6377620053063 469.4730129483616 -2.6060987420772447e-14
3732.9323620903906 470.05656361603354 -2.609338099013669e-14
3739.390423631846 467.04703663385243 -2.592631868269427e-14
3709.0600079869882 463.98629306631454 -2.5756413283636565e-14
3628.397174539637 447.5661738559559 -2.484491356291501e-14
3466.5546375384397 419.49147572665765 -2.328645474928752e-14
3242.695971897414 389.43068856798266 -2.1617745847191552e-14
3009.193930611465 359.1173921050494 -1.9935019862919604e-14
2772.4983195782575 332.6206339371992 -1.8464154313125908e-14
2512.1559530568256 299.5500099891177 -1.662836590583178e-14
2256.768793534364 267.37552890841096 -1.484232342077331e-14
1994.4969207660452 235.89352607638853 -1.3094721200501911e-14
1749.1574747884404 205.87899199910086 -1.1428579860201746e-14
116.30045410883633 -39.60745622081898 2.198655492159448e-15
140.03492589021286 -88.13049645653649 4.8922253168849455e-15
143.35144724581525 -130.80716427768255 7.261256278350892e-15
1283.938617398282 11.677728599588923 -6.482441583294073e-16
1312.3491155232523 223.64744693136095 -1.2414927249092287e-14
1405.2200597650885 290.5488888634869 -1.6128703309775987e-14
1486.3146827993764 283.09875899378886 -1.571513802388664e-14
1476.1522065396384 277.0106054541341 -1.5377177612027727e-14
1489.0582578105616 296.52389944278025 -1.6460383025651526e-14
1684.4404344447503 381.0044211203629 -2.1149994040591675e-14
2048.6635276828792 498.3295170948428 -2.7662845186453287e-14
2206.6079405451133 556.0262020296755 -3.0865654589413226e-14
2176.9310743118863 560.1423014977332 -3.1094144009467494e-14
2090.4305027751325 517.2373555601351 -2.8712441066956394e-14
2161.9516174581954 502.5232743781847 -2.7895645481236083e-14
2233.4191964747192 500.53094722622956 -2.7785049107401758e-14
2154.473127048111 454.9619146134082 -2.525545964656915e-14
2134.647721875751 433.49448331822504 -2.4063777821395522e-14
1957.9615606457185 375.25633934054315 -2.083091140362244e-14
2058.1024938553774 382.6678861320924 -2.1242334898425704e-14
2102.0292858421194 382.16328307030034 -2.121432380155081e-14
2279.1609993998422 388.667605039376 -2.157538620203298e-14
2457.4761799434814 410.71686571537265 -2.2799366045955738e-14
2387.2709819014103 390.78682162433523 -2.1693026354372454e-14
2600.2516772353947 418.7559549019873 -2.3245625141555505e-14
2763.7650952543872 420.5716536824505 -2.3346416671148215e-14
2841.4827675480433 419.70734690258536 -2.3298438006780912e-14
2916.6974558807865 421.49883877226205 -2.3397885782888113e-14
2995.430273079485 422.7872600429079 -2.3469407530892506e-14
3079.951920573294 426.44364012631917 -2.3672377398661722e-14
3168.055220080698 431.4980149362082 -2.395295156311295e-14
3251.6912146368904 436.0424694764112 -2.4205219466357753e-14
3142.2759099067125 419.90979787739604 -2.3309676293460544e-14
3221.109973900738 421.3078045832902 -2.338728125513375e-14
3298.0053633553525 427.49486311973624 -2.373073199722708e-14
3372.285099600093 434.79613062541654 -2.4136033761914786e-14
3440.5359246489584 437.7895145511003 -2.430219994970665e-14
3696.6377620053063 469.4730129483616 -2.6060987420772447e-14
3732.9323620903906 470.05656361603354 -2.609338099013669e-14
3739.390423631846 467.04703663385243 -2.592631868269427e-14
3709.0600079869882 463.98629306631454 -2.5756413283636565e-14
3628.397174539637 447.5661738559559 -2.484491356291501e-14
3466.5546375384397 419.49147572665765 -2.328645474928752e-14
3242.695971897414 389.43068856798266 -2.1617745847191552e-14
3009.193930611465 359.1173921050494 -1.9935019862919604e-14
2772.4983195782575 332.6206339371992 -1.8464154313125908e-14
2512.1559530568256 299.5500099891177 -1.662836590583178e-14
2256.768793534364 267.37552890841096 -1.484232342077331e-14
1994.4969207660452 235.89352607638853 -1.3094721200501911e-14
1749.1574747884404 205.87899199910086 -1.1428579860201746e-14

VECTORS D float
92.12141749514751 31.37300742630222 0.7324707479336214
60.5717506825126 38.12062187312144 0.6726769046386774
13.089418503852084 11.944000213661601 0.18512206596613348
537.4228349121572 639.1994771367373 9.113428196030402
523.1144998884446 763.9415733863186 10.34051241788873
479.4847941608617 827.084870821005 10.732657990372118
415.15774366371573 823.186744268716 10.287261257275999
349.6442255962122 781.1258651786169 9.977084889244631
311.51565954211765 771.7321183579544 9.461167687733198
325.0116102375978 881.8862078900111 10.460001123940105
363.9449611407731 1070.7943674746268 12.357017011720211
360.16983630085565 1139.4987689307598 12.846713846763503
327.7824317252461 1107.3610852419788 12.233252088628253
284.6205535174809 1020.6761678694406 11.073825015868625
264.91204571212046 1003.3030775518371 10.710557789805211
250.68904921764775 998.3104169552022 10.502642247154242
220.19610955583528 918.546364097332 9.821584879318214
201.63235469927588 877.5442771813175 9.224140370633519
170.10501547787473 770.0920859334874 7.967533691777432
167.19424329422063 785.2140373488686 8.005340417386343
160.8054483924304 781.5135168361229 7.859005758739141
161.54381084935173 810.6038873624697 8.047352867139764
165.18913172305992 854.0207739282532 8.376179210347626
152.56439040872766 811.0665335155462 7.8638313136728195
158.72944446359335 866.1211705255015 8.305627318179347
158.55126333233702 886.4583878513012 8.410767473468814
155.48150121269012 889.2595482454474 8.35049131480588
153.11956011936905 894.4920716200886 8.31474847872233
150.98864016945066 899.939806098464 8.354903819444194
149.76085428301988 909.082378117531 8.339400182844502
149.06361457292257 920.3764721104852 8.340945834941904
148.36578645620014 930.6860745639236 8.33082555979349
140.03379228874502 891.4490735801027 7.880267585956436
139.26533565966304 898.7728243463338 7.844976517953121
139.3284775696327 910.6835936945279 7.848059528615174
139.63209697915073 923.5016710841657 7.857116529940369
139.2982304345503 931.4326680864106 7.823647993005447
147.36198009839336 995.0402365873391 8.232410630956277
146.15348454186815 996.2064310829179 8.145523368821518
143.97057167390233 989.8990098204739 8.000059622574646
141.20216498588593 978.6851385383118 7.819265141796716
135.72819698877422 947.7143479321938 7.487478712169865
127.23684654168119 894.4563890210676 6.990283966914261
117.51110720865972 831.203108118324 6.428488945679554
107.82303907241929 766.960991999688 5.873248341308345
98.8320127074718 706.5641507078924 5.360883918295653
88.69753519181853 636.9755587697967 4.791745685234299
78.9721492051962 569.3936700527713 4.2501442134872
69.37754120426291 501.9489035189672 3.7207655187247983
60.4400808113762 438.5766718459987 3.231375250910082
92.12141749514751 31.37300742630222 0.7324707479336214
60.5717506825126 38.12062187312144 0.6726769046386774
13.089418503852084 11.944000213661601 0.18512206596613348
537.4228349121572 639.1994771367373 9.113428196030402
523.1144998884446 763.9415733863186 10.34051241788873
479.4847941608617 827.084870821005 10.732657990372118
415.15774366371573 823.186744268716 10.287261257275999
349.6442255962122 781.1258651786169 9.977084889244631
311.51565954211765 771.7321183579544 9.461167687733198
325.0116102375978 881.8862078900111 10.460001123940105
363.9449611407731 1070.7943674746268 12.357017011720211
360.16983630085565 1139.4987689307598 12.846713846763503
327.7824317252461 1107.3610852419788 12.233252088628253
284.6205535174809 1020.6761678694406 11.073825015868625
264.91204571212046 1003.3030775518371 10.710557789805211
250.68904921764775 998.3104169552022 10.502642247154242
220.19610955583528 918.546364097332 9.821584879318214
201.63235469927588 877.5442771813175 9.224140370633519
170.10501547787473 770.0920859334874 7.967533691777432
167.19424329422063 785.2140373488686 8.005340417386343
160.8054483924304 781.5135168361229 7.859005758739141
161.54381084935173 810.6038873624697 8.047352867139764
165.18913172305992 854.0207739282532 8.376179210347626
152.56439040872766 811.0665335155462 7.8638313136728195
158.72944446359335 866.1211705255015 8.305627318179347
158.55126333233702 886.4583878513012 8.410767473468814
155.48150121269012 889.2595482454474 8.35049131480588
153.11956011936905 894.4920716200886 8.31474847872233
150.98864016945066 899.939806098464 8.354903819444194
149.76085428301988 909.082378117531 8.339400182844502
149.06361457292257 920.3764721104852 8.340945834941904
148.36578645620014 930.6860745639236 8.33082555979349
140.03379228874502 891.4490735801027 7.880267585956436
139.26533565966304 898.7728243463338 7.844976517953121
139.3284775696327 910.6835936945279 7.848059528615174
139.63209697915073 923.5016710841657 7.857116529940369
139.2982304345503 931.4326680864106 7.823647993005447
147.36198009839336 995.0402365873391 8.232410630956277
146.15348454186815 996.2064310829179 8.145523368821518
143.97057167390233 989.8990098204739 8.000059622574646
141.20216498588593 978.6851385383118 7.819265141796716
135.72819698877422 947.7143479321938 7.487478712169865
127.23684654168119 894.4563890210676 6.990283966914261
117.51110720865972 831.203108118324 6.428488945679554
107.82303907241929 766.960991999688 5.873248341308345
98.8320127074718 706.5641507078924 5.360883918295653
88.69753519181853 636.9755587697967 4.791745685234299
78.9721492051962 569.3936700527713 4.2501442134872
69.37754120426291 501.9489035189672 3.7207655187247983
60.4400808113762 438.5766718459987 3.231375250910082

VECTORS L float
24.179036613688833 -70.9804636471212 -0.7324707479336192
79.46317520770027 -126.25111832965796 -0.6726769046386726
130.26202874196318 -142.75116449134413 -0.18512206596612607
746.5157824861247 -627.5217485371483 -9.1134281960304
789.234615634808 -540.2941264549576 -10.340512417888743
925.7352656042266 -536.5359819575181 -10.732657990372134
1071.1569391356607 -540.0879852749272 -10.287261257276016
1126.5079809434264 -504.1152597244827 -9.977084889244646
1177.5425982684442 -475.20821891517403 -9.461167687733214
1359.4288242071525 -500.8817867696482 -10.460001123940128
1684.7185665421064 -572.4648503797843 -12.357017011720242
1846.4381042442576 -583.4725669010842 -12.846713846763532
1849.14864258664 -547.218783744245 -12.233252088628278
1805.8099492576516 -503.43881230930583 -11.073825015868659
1897.0395717460747 -500.77980317365245 -10.710557789805236
1982.7301472570716 -497.7794697289728 -10.502642247154272
1934.2770174922757 -463.58444948392406 -9.821584879318241
1933.015367176475 -444.04979386309276 -9.224140370633544
1787.856545167844 -394.835746592944 -7.967533691777453
1890.9082505611575 -402.54615121677625 -8.005340417386364
1941.2238374496894 -399.3502337658227 -7.859005758739163
2117.6171885504905 -421.9362823230936 -8.047352867139786
2292.2870482204216 -443.3039082128806 -8.376179210347651
2234.7065914926825 -420.2797118912108 -7.863831313672839
2441.5222327718016 -447.36521562351436 -8.305627318179372
2605.2138319220503 -465.88673416885064 -8.410767473468836
2686.0012663353527 -469.5522013428618 -8.350491314805902
2763.5778957614175 -472.9932328478265 -8.314748478722352
2844.4416329100336 -477.15254605555606 -8.354903819444216
2930.191066290275 -482.6387379912119 -8.339400182844525
3018.991605507775 -488.8784571742773 -8.34094583494193
3103.3254281806903 -494.64360508751224 -8.330825559793514
3002.2421176179687 -471.5392757027066 -7.880267585956462
3081.8446382410757 -477.46501976304376 -7.844976517953145
3158.6768857857205 -483.18873057479175 -7.848059528615195
3232.6530026209425 -488.7055404587492 -7.857116529940394