# vtk DataFile Version 4.0
[MyVLM domain - lattices] 
ASCII
DATASET UNSTRUCTURED_GRID
POINTS 152 float
0.0 1.9817278671778078 1.0590459663303928
0.0 4.135531479843062 0.4378829177032874
0.0 6.238462789955411 -0.20295224864055997
0.0 8.305203507478762 -0.8231218660963364
0.0 10.335871276247243 -1.422302710886242
0.0 12.31784008583691 -2.035184461547853
0.0 14.240651168122568 -2.690502347340459
0.0 16.1016049157588 -3.3956734784869873
0.0 17.917164235725444 -4.1054663898017445
0.0 19.694069988421944 -4.8013607195495815
0.0 21.4322372834465 -5.483589702192539
0.0 23.131541884503367 -6.152494674147886
0.0 24.79184716424993 -6.808451015954316
0.0 26.412028707677447 -7.4545480324584625
0.0 27.992836675200735 -8.08872467485963
0.0 29.53591544090469 -8.706463062490435
0.0 31.04150977930123 -9.30709068290653
0.0 32.50921632372566 -9.891715776910917
0.0 33.93874447038348 -10.461136771867006
0.0 35.33009430307398 -11.015353437538131
0.0 36.683265903358475 -11.554365549836389
0.0 37.99825935056036 -12.07817289082262
0.0 39.27507472176501 -12.58677524870642
0.0 40.513712091819876 -13.080172417846143
0.0 41.71417153333444 -13.558364198748897
0.0 42.876453116680196 -14.021350398070537
0.0 44.000556909990706 -14.469130828615672
0.0 45.08648297916156 -14.901705309337679
0.0 46.134231934070584 -15.319072164610956
0.0 47.143811338765545 -15.721210612385102
0.0 48.115222730880156 -16.108116428046205
0.0 49.04846502811726 -16.47979258518124
0.0 49.94353719071541 -16.836241940511325
0.0 50.800438221448836 -17.177467233891715
0.0 51.619167165627495 -17.5034710883118
0.0 52.39972311109701 -17.81425600989511
0.0 53.141960859154814 -18.110220928798213
0.0 53.84542126574999 -18.392627332933394
0.0 54.50937573296024 -18.663477028639996
0.0 55.13344523475088 -18.923811381389655
0.0 55.71789534443405 -19.17290073450408
0.0 56.26263916354947 -19.410983839540695
0.0 56.763648830372034 -19.64912715563788
0.0 57.22101578127576 -19.88707946342274
0.0 57.63778968575463 -20.1164618648237
0.0 58.01604880746618 -20.33156437737007
0.0 58.35631938486794 -20.530941172782512
0.0 58.65809832826606 -20.715974478634838
0.0 58.92182664395044 -20.885452640103722
0.0 59.14837801701912 -21.03697522711054
0.0 59.33850877188539 -21.168464255408104
-0.7686761955390344 0.8691618669649561 -1.9977039969073602
-0.8409029948616161 2.9199825231370546 -2.901810393088086
-0.8940476007249757 4.94545465093959 -3.7554629137575657
-0.9506443374492793 6.929549042255406 -4.602701446269431
-1.0210144815146838 8.872759138984344 -5.4421702701460415
-1.048631451549771 10.785523292124983 -6.2451902517224696
-0.9920275022819518 12.67495584442755 -6.99221489493821
-0.9074715353829097 14.547921098148327 -7.664384684343805
-0.8388231939293685 16.390697415666608 -8.2993995094601
-0.7803448823218929 18.19631528307261 -8.91640795237878
-0.7251531968841737 19.96401230944139 -9.517504664950927
-0.671766762046156 21.69271169498705 -10.105648130273574
-0.6188683613166902 23.383859908575285 -10.676864207800277
-0.5668565661826578 25.037931980662812 -11.229847762077668
-0.5162677046190278 26.654641504893704 -11.765385688101423
-0.4681223452427161 28.232062616072287 -12.288769257009584
-0.42442582165628834 29.769973682521364 -12.800607396830662
-0.3846819074085718 31.268779535624173 -13.299787842480562
-0.3476243488905531 32.72873698264166 -13.78560502180867
-0.3131098246080671 34.149827466787954 -14.25810991916512
-0.28048746260446866 35.532019480126195 -14.71738910189498
-0.2502235469699514 36.875317050550336 -15.163431503450589
-0.2227998260917326 38.17972001954641 -15.596237559345468
-0.19746739264611052 39.44519758222627 -16.015891905314216
-0.17533279734900953 40.671762017130355 -16.42236080634423
-0.15613374469432648 41.859393296774186 -16.815699287496876
-0.13998404755873647 43.00808072070813 -17.195936748015928
-0.12578653595324127 44.11779603526157 -17.563150814223416
-0.11250427274737486 45.18851841425319 -17.917398705582205
-0.10008179164308317 46.22024376348822 -18.258691670800022
-0.08845752889585208 47.2129691073913 -18.587037885202946
-0.07764231497362577 48.16669288926389 -18.90244162578508
-0.06766212708627829 49.081413610378206 -19.204907010267153
-0.0584684819534103 49.95712904260109 -19.494440160394724
-0.050013688763705585 50.793837172342826 -19.77104660846008
-0.042252254921319045 51.59153619864834 -20.034731302546554
-0.03513536582041269 52.35033714707725 -20.28518920243619
-0.028615518964613278 53.07059731925754 -20.521438629974124
-0.022687693716904638 53.7532771873488 -20.740840709589925
-0.017408965386693863 54.39887354775081 -20.942030504393003
-0.013252482528008399 55.00657783701207 -21.127229524208733
-0.010166684094042405 55.57643136595806 -21.29632426847677
-0.00760098697125575 56.11320732940546 -21.436200492219708
-0.005464879873870877 56.61692131034863 -21.546815381512417
-0.0039015967321000085 57.08397613340585 -21.63805209448992
-0.002883995165670249 57.511990876302974 -21.716452161337987
-0.0022477517166190047 57.90054400935034 -21.78317372536057
-0.00179874084072329 58.25053891658121 -21.83573475932518
-0.0014595970466816986 58.5616145890071 -21.87512712727589
-0.0012027506489664258 58.832816566057126 -21.903973188079004
-0.0010073243559101815 59.06331860469503 -21.92454302581957
-0.603592196400244 2.1855865646658628 -1.6502017857440825
-0.6506064733449719 4.246288224003551 -2.4671111564342785
-0.6917594768153456 6.271084672127396 -3.262570899352235
-0.7393720571114861 8.255999915930657 -4.047504965778624
-0.7761172248991705 10.203569831926517 -4.814946092254953
-0.7652471076868961 12.117491082952137 -5.554737781108794
-0.712312139124323 14.001360863951124 -6.256996820459186
-0.6548605234921042 15.85432808661613 -6.924061556212555
-0.607188028594223 17.671534040045632 -7.569281186858494
-0.564561779702275 19.450911256176305 -8.198336034216405
-0.5238449845988737 21.191743897654398 -8.813192845251741
-0.48398817126106725 22.89413798243004 -9.41356033804047
-0.4446468478122555 24.558656442455206 -9.997891869755826
-0.4061716015506322 26.185323229943467 -10.566121632231921
-0.369146268698154 27.77360805987542 -11.119706571585384
-0.3347055625871267 29.322941764498356 -11.660210463364713
-0.3034153983993225 30.833373219682937 -12.18749902221889
-0.27461484611217185 32.30506379361333 -12.701128892705702
-0.24777531506198255 33.738066515218286 -13.20095437904081
-0.22259898270470088 35.132362630896864 -13.687027006319353
-0.19901662859040753 36.48794185574356 -14.159375032086961
-0.1773837648981315 37.80480566032695 -14.617994415989651
-0.15760020702669117 39.082942452362865 -15.062917007566453
-0.13980007124817 40.32234530290302 -15.4941618439463
-0.124299953266251 41.52301132396603 -15.911736859792848
-0.11104417209489861 42.684929009889736 -16.31567366665308
-0.09966396881699166 43.80808376963267 -16.70601235308392
-0.08935905326273105 44.89245728272205 -17.082803254170685
-0.07971977414642176 45.938041225757544 -17.446069238267842
-0.07070224520210072 46.944834085285535 -17.795814463555025
-0.06228744145105419 47.91283421862037 -18.13204344327394
-0.05448916577246402 48.84204021471987 -18.454760054231155
-0.04729897838988322 49.73245042138777 -18.763968835798583
-0.04068081401891846 50.584063003988504 -19.05967482859599
-0.03459972888188424 51.39687629871225 -19.34188260390335
-0.029020357778149403 52.170913000928564 -19.610529806705195
-0.023906581794384738 52.90627319048864 -19.865341469870316
-0.019238704755569217 53.603302564816154 -20.10536779753319
-0.015036247163849435 54.26240914662623 -20.3294877564973
-0.011498042968013347 54.8834618416842 -20.538061525212367
-0.00878218748326905 55.46619526461174 -20.73181824401266
-0.006662876649486808 56.01190051000151 -20.9072106596585
-0.004899700066922485 56.52188131636375 -21.060656780032122
-0.0035124287272390825 56.995187224786726 -21.194767969531682
-0.0025445969616638467 57.4302174402934 -21.31394237620969
-0.0019244050808584702 57.82624660616176 -21.42017290128103
-0.0015174347090033604 58.18345831136607 -21.512955138184324
-0.0012218767077768707 58.50204818612268 -21.59175159731772
-0.0009983803858680466 58.78168726577028 -21.657466101659864
-0.0008287781268287279 59.02191153764511 -21.711373515526795

CELLS 100 350
4 0 51 52 1
4 1 52 53 2
4 2 53 54 3
4 3 54 55 4
4 4 55 56 5
4 5 56 57 6
4 6 57 58 7
4 7 58 59 8
4 8 59 60 9
4 9 60 61 10
4 10 61 62 11
4 11 62 63 12
4 12 63 64 13
4 13 64 65 14
4 14 65 66 15
4 15 66 67 16
4 16 67 68 17
4 17 68 69 18
4 18 69 70 19
4 19 70 71 20
4 20 71 72 21
4 21 72 73 22
4 22 73 74 23
4 23 74 75 24
4 24 75 76 25
4 25 76 77 26
4 26 77 78 27
4 27 78 79 28
4 28 79 80 29
4 29 80 81 30
4 30 81 82 31
4 31 82 83 32
4 32 83 84 33
4 33 84 85 34
4 34 85 86 35
4 35 86 87 36
4 36 87 88 37
4 37 88 89 38
4 38 89 90 39
4 39 90 91 40
4 40 91 92 41
4 41 92 93 42
4 42 93 94 43
4 43 94 95 44
4 44 95 96 45
4 45 96 97 46
4 46 97 98 47
4 47 98 99 48
4 48 99 100 49
4 49 100 101 50
1 102
1 103
1 104
1 105
1 106
1 107
1 108
1 109
1 110
1 111
1 112
1 113
1 114
1 115
1 116
1 117
1 118
1 119
1 120
1 121
1 122
1 123
1 124
1 125
1 126
1 127
1 128
1 129
1 130
1 131
1 132
1 133
1 134
1 135
1 136
1 137
1 138
1 139
1 140
1 141
1 142
1 143
1 144
1 145
1 146
1 147
1 148
1 149
1 150
1 151

CELL_TYPES 100
9
9
9
9
9
9
9
9
9
9
9
9
9
9
9
9
9
9
9
9
9
9
9
9
9
9
9
9
9
9
9
9
9
9
9
9
9
9
9
9
9
9
9
9
9
9
9
9
9
9
1
1
1
1
1
1
1
1
1
1
1
1
1
1
1
1
1
1
1
1
1
1
1
1
1
1
1
1
1
1
1
1
1
1
1
1
1
1
1
1
1
1
1
1
1
1
1
1
1
1

CELL_DATA 100

VECTORS S float
-1.42203694243325e-17 3.097598220790936e-15 -1.7396716722365891e-15
-0.0 0.0 -0.0
-0.0 0.0 -0.0
3.836587241096e-20 3.8777281897797205e-16 -2.1644275385235171e-16
0.0 0.0 -0.0
0.0 0.0 -0.0
3.730115513463888e-17 1.2404172572692277e-14 -6.934226932201833e-15
0.0 0.0 -0.0
7.051379666016414e-17 2.4790491837138247e-14 -1.3900363636379394e-14
0.0 0.0 -0.0
-8.219894202656238e-17 -2.478093420221946e-14 1.3917331293948416e-14
0.0 0.0 -0.0
0.0 0.0 -0.0
0.0 0.0 -0.0
0.0 0.0 -0.0
0.0 0.0 -0.0
-6.226229491705975e-17 -2.4757990972439846e-14 1.395820809995089e-14
-1.1924760502065497e-16 -4.9514430166495556e-14 2.7919191483300436e-14
-5.5339462047019725e-17 -2.475501731324698e-14 1.3963510386399933e-14
-5.2079896265594745e-17 -2.4750504815110523e-14 1.3971519818112553e-14
0.0 0.0 -0.0
-4.627596506209885e-17 -2.474652277523485e-14 1.3978592061297039e-14
-4.480242577655996e-17 -2.4744793300793634e-14 1.3981658134497468e-14
4.3352363381817456e-17 2.4743132003580108e-14 -1.3984602467439513e-14
-8.425710494309503e-17 -4.948309780663111e-14 2.797481367203202e-14
-3.9439409571326046e-17 -2.473988525969269e-14 1.3990356993891509e-14
-3.7509043907617686e-17 -2.4737404896546017e-14 1.3994747550502029e-14
-7.246111780434654e-17 -4.947170655845321e-14 2.7994986468401234e-14
3.506800809665966e-17 2.473455414294328e-14 -1.399979173169842e-14
6.786532906643599e-17 4.946590343704837e-14 -2.8005250565545397e-14
0.0 0.0 -0.0
3.1942002832924057e-17 2.4729697124711314e-14 -1.400837702144028e-14
0.0 0.0 -0.0
6.059141781691782e-17 4.945281404321937e-14 -2.8028374545665612e-14
2.9562052032157856e-17 2.4724762131340587e-14 -1.4017090660333988e-14
0.0 0.0 -0.0
2.83118123562703e-17 2.4722148112049575e-14 -1.4021703110302996e-14
2.777477014880612e-17 2.472061458724915e-14 -1.4024407650134232e-14
0.0 0.0 -0.0
-2.654899537675808e-17 -2.471767166677079e-14 1.402959619771278e-14
-2.6194589347313398e-17 -2.4716299096715412e-14 1.4032014814398889e-14
0.0 0.0 -0.0
2.4757109070211168e-17 2.4713685713621036e-14 -1.4036619695647165e-14
-4.854674546969891e-17 -4.942499876678235e-14 2.8077418113180067e-14
-2.384804322918874e-17 -2.4711396371080366e-14 1.404065125300484e-14
0.0 0.0 -0.0
-2.3352476108126578e-17 -2.470947287482065e-14 1.404403687892758e-14
1.149827614379251e-17 1.2354319838179957e-14 -7.022751658871179e-15
-1.1388339392427639e-17 -1.2353955448958107e-14 7.0233928273636555e-15
-1.125706078105618e-17 -1.2353638592152022e-14 7.023950352163216e-15
-1.42203694243325e-17 3.097598220790936e-15 -1.7396716722365891e-15
-0.0 0.0 -0.0
-0.0 0.0 -0.0
3.836587241096e-20 3.8777281897797205e-16 -2.1644275385235171e-16
0.0 0.0 -0.0
0.0 0.0 -0.0
3.730115513463888e-17 1.2404172572692277e-14 -6.934226932201833e-15
0.0 0.0 -0.0
7.051379666016414e-17 2.4790491837138247e-14 -1.3900363636379394e-14
0.0 0.0 -0.0
-8.219894202656238e-17 -2.478093420221946e-14 1.3917331293948416e-14
0.0 0.0 -0.0
0.0 0.0 -0.0
0.0 0.0 -0.0
0.0 0.0 -0.0
0.0 0.0 -0.0
-6.226229491705975e-17 -2.4757990972439846e-14 1.395820809995089e-14
-1.1924760502065497e-16 -4.9514430166495556e-14 2.7919191483300436e-14
-5.5339462047019725e-17 -2.475501731324698e-14 1.3963510386399933e-14
-5.2079896265594745e-17 -2.4750504815110523e-14 1.3971519818112553e-14
0.0 0.0 -0.0
-4.627596506209885e-17 -2.474652277523485e-14 1.3978592061297039e-14
-4.480242577655996e-17 -2.4744793300793634e-14 1.3981658134497468e-14
4.3352363381817456e-17 2.4743132003580108e-14 -1.3984602467439513e-14
-8.425710494309503e-17 -4.948309780663111e-14 2.797481367203202e-14
-3.9439409571326046e-17 -2.473988525969269e-14 1.3990356993891509e-14
-3.7509043907617686e-17 -2.4737404896546017e-14 1.3994747550502029e-14
-7.246111780434654e-17 -4.947170655845321e-14 2.7994986468401234e-14
3.506800809665966e-17 2.473455414294328e-14 -1.399979173169842e-14
6.786532906643599e-17 4.946590343704837e-14 -2.8005250565545397e-14
0.0 0.0 -0.0
3.1942002832924057e-17 2.4729697124711314e-14 -1.400837702144028e-14
0.0 0.0 -0.0
6.059141781691782e-17 4.945281404321937e-14 -2.8028374545665612e-14
2.9562052032157856e-17 2.4724762131340587e-14 -1.4017090660333988e-14
0.0 0.0 -0.0
2.83118123562703e-17 2.4722148112049575e-14 -1.4021703110302996e-14
2.777477014880612e-17 2.472061458724915e-14 -1.4024407650134232e-14
0.0 0.0 -0.0
-2.654899537675808e-17 -2.471767166677079e-14 1.402959619771278e-14
-2.6194589347313398e-17 -2.4716299096715412e-14 1.4032014814398889e-14
0.0 0.0 -0.0
2.4757109070211168e-17 2.4713685713621036e-14 -1.4036619695647165e-14
-4.854674546969891e-17 -4.942499876678235e-14 2.8077418113180067e-14
-2.384804322918874e-17 -2.4711396371080366e-14 1.404065125300484e-14
0.0 0.0 -0.0
-2.3352476108126578e-17 -2.470947287482065e-14 1.404403687892758e-14
1.149827614379251e-17 1.2354319838179957e-14 -7.022751658871179e-15
-1.1388339392427639e-17 -1.2353955448958107e-14 7.0233928273636555e-15
-1.125706078105618e-17 -1.2353638592152022e-14 7.023950352163216e-15

SCALARS Gamma float
LOOKUP_TABLE default
-0.0
-0.0
-0.0
52.39179331486031
56.5163004615152
56.45197170213474
53.97368066565641
49.03999238151856
45.75476615484995
48.722156599671536
55.83441829071026
56.52140504855076
53.05142158342922
48.319631401248586
47.315602447426876
46.51889759150488
42.915918013460654
40.61147318631034
35.896063717725674
36.354608346023305
35.787761767552716
37.286642595414364
38.76154519775471
36.431332901274615
38.468229619045644
39.77938870731258
39.869684519594585
39.94017415325476
40.14044293637143
40.37011306508836
40.666910566458974
40.931435517349904
38.848519182289266
39.130940461143716
39.41895263679579
39.704666368223855
39.933283386772345
42.30356792096797
42.18771880691865
41.7732248610001
41.00135653266828
39.713965985532745
37.59382411683019
34.876042698669586
32.13555595499216
29.40448801702391
26.486472522082092
23.65487311824501
20.812522842440142
18.18207682789732
-0.0
-0.0
-0.0
52.39179331486031
56.5163004615152
56.45197170213474
53.97368066565641
49.03999238151856
45.75476615484995
48.722156599671536
55.83441829071026
56.52140504855076
53.05142158342922
48.319631401248586
47.315602447426876
46.51889759150488
42.915918013460654
40.61147318631034
35.896063717725674
36.354608346023305
35.787761767552716
37.286642595414364
38.76154519775471
36.431332901274615
38.468229619045644
39.77938870731258
39.869684519594585
39.94017415325476
40.14044293637143
40.37011306508836
40.666910566458974
40.931435517349904
38.848519182289266
39.130940461143716
39.41895263679579
39.704666368223855
39.933283386772345
42.30356792096797
42.18771880691865
41.7732248610001
41.00135653266828
39.713965985532745
37.59382411683019
34.876042698669586
32.13555595499216
29.40448801702391
26.486472522082092
23.65487311824501
20.812522842440142
18.18207682789732

VECTORS Ftot float
119.15384572056347 20.076325823389883 34.77321635541831
143.24454767094747 44.59693716585021 77.24416103320924
146.40481629002775 66.07815717300005 114.4507254941578
1325.076503972687 -3.94611698326423 -6.8348751076240655
1353.3570304998345 -116.00211959113678 -200.92156491752974
1446.092173911134 -149.61706610849401 -259.14436017930285
1523.588102855198 -144.33816606106546 -250.00103708907886
1508.3004819611886 -140.37818210690867 -243.14214368332176
1517.5468335645076 -149.796491541418 -259.4551341452973
1723.1936587342661 -194.76665204952138 -337.3457369698597
2105.437468940292 -256.2368235763953 -443.815197204379
2269.3479903814377 -284.55954343145356 -492.8715870018797
2257.795453388447 -291.7230040226859 -505.27906470391144
2180.21567396093 -272.44485694919695 -471.88833449684324
2257.751722319957 -265.405375565886 -459.69559508201354
2334.7133429679193 -264.9035383199554 -458.8263874749312
2260.3316551749617 -241.94914401328137 -419.06821027880216
2235.6531027874466 -230.42586647680147 -399.1093081159019
2061.0116885605207 -200.26988866669038 -346.8776223968698
2169.1355189738433 -204.97861351012676 -355.0333730645635
2212.7980494082353 -204.62384312936342 -354.4188927400608
2387.811303901432 -206.580874259563 -357.8085700895604
2561.5264134424083 -217.41474165599487 -376.57337886264435
2480.0074069265615 -206.32555027025722 -357.36633596769167
2692.6468868908223 -220.41660243975693 -381.7727542573688
2861.5035958546478 -222.21168821630076 -384.88193402628684
2941.1398768705712 -221.61775247730765 -383.85320714991985
3016.4285081202443 -222.36111651107578 -385.14075142492567
3099.499469952658 -223.55506953005238 -387.20873871564334
3183.0345286215047 -225.1622969115267 -389.9925381996727
3270.063379469091 -227.48425848614977 -394.0142936201425
3352.8297982622425 -229.58524965445957 -397.6533170699086
3237.498046839418 -220.52235840559155 -381.9559289633978
3315.2627884399067 -221.65795285637682 -383.9228362489512
3391.2720850579462 -224.55639233585572 -388.9430806900721
3465.6210653454227 -228.24063581128544 -395.3243775769705
3533.2644026526737 -229.5148698623252 -397.5314156941058
3790.2598918532412 -245.0343075097549 -424.4118702043512
3824.7160015455825 -245.12418529016497 -424.5675430864929
3828.93721157115 -243.36812068261546 -421.5259499648436
3796.121230364616 -241.2740327214097 -417.898883220517
3711.9725931398725 -233.29311130108675 -404.07552182930283
3545.155884882158 -218.5740640934596 -378.5813842266878
3315.127483894162 -202.82531234489653 -351.30374604238744
3076.7739388966893 -187.04998376001882 -323.9800754272856
2833.1833463941125 -173.125369158658 -299.8619354619133
2566.9876600239536 -155.910204315549 -270.044395292975
2304.4722873652636 -139.0525513259087 -240.84608381855264
2036.602665062537 -122.66368078123838 -212.45972735651463
1786.0527135022926 -107.05929045882894 -185.43213049696547
119.15384572056347 20.076325823389883 34.77321635541831
143.24454767094747 44.59693716585021 77.24416103320924
146.40481629002775 66.07815717300005 114.4507254941578
1325.076503972687 -3.94611698326423 -6.8348751076240655
1353.3570304998345 -116.00211959113678 -200.92156491752974
1446.092173911134 -149.61706610849401 -259.14436017930285
1523.588102855198 -144.33816606106546 -250.00103708907886
1508.3004819611886 -140.37818210690867 -243.14214368332176
1517.5468335645076 -149.796491541418 -259.4551341452973
1723.1936587342661 -194.76665204952138 -337.3457369698597
2105.437468940292 -256.2368235763953 -443.815197204379
2269.3479903814377 -284.55954343145356 -492.8715870018797
2257.795453388447 -291.7230040226859 -505.27906470391144
2180.21567396093 -272.44485694919695 -471.88833449684324
2257.751722319957 -265.405375565886 -459.69559508201354
2334.7133429679193 -264.9035383199554 -458.8263874749312
2260.3316551749617 -241.94914401328137 -419.06821027880216
2235.6531027874466 -230.42586647680147 -399.1093081159019
2061.0116885605207 -200.26988866669038 -346.8776223968698
2169.1355189738433 -204.97861351012676 -355.0333730645635
2212.7980494082353 -204.62384312936342 -354.4188927400608
2387.811303901432 -206.580874259563 -357.8085700895604
2561.5264134424083 -217.41474165599487 -376.57337886264435
2480.0074069265615 -206.32555027025722 -357.36633596769167
2692.6468868908223 -220.41660243975693 -381.7727542573688
2861.5035958546478 -222.21168821630076 -384.88193402628684
2941.1398768705712 -221.61775247730765 -383.85320714991985
3016.4285081202443 -222.36111651107578 -385.14075142492567
3099.499469952658 -223.55506953005238 -387.20873871564334
3183.0345286215047 -225.1622969115267 -389.9925381996727
3270.063379469091 -227.48425848614977 -394.0142936201425
3352.8297982622425 -229.58524965445957 -397.6533170699086
3237.498046839418 -220.52235840559155 -381.9559289633978
3315.2627884399067 -221.65795285637682 -383.9228362489512
3391.2720850579462 -224.55639233585572 -388.9430806900721
3465.6210653454227 -228.24063581128544 -395.3243775769705
3533.2644026526737 -229.5148698623252 -397.5314156941058
3790.2598918532412 -245.0343075097549 -424.4118702043512
3824.7160015455825 -245.12418529016497 -424.5675430864929
3828.93721157115 -243.36812068261546 -421.5259499648436
3796.121230364616 -241.2740327214097 -417.898883220517
3711.9725931398725 -233.29311130108675 -404.07552182930283
3545.155884882158 -218.5740640934596 -378.5813842266878
3315.127483894162 -202.82531234489653 -351.30374604238744
3076.7739388966893 -187.04998376001882 -323.9800754272856
2833.1833463941125 -173.125369158658 -299.8619354619133
2566.9876600239536 -155.910204315549 -270.044395292975
2304.4722873652636 -139.0525513259087 -240.84608381855264
2036.602665062537 -122.66368078123838 -212.45972735651463
1786.0527135022926 -107.05929045882894 -185.43213049696547

VECTORS D float
94.84660542718917 -15.32317147462166 -28.059192572656038
63.19634642540993 -19.069544128793297 -34.428095290862224
14.936615276963222 -6.560054058175709 -11.781314385323862
559.5198241420336 -320.9553393359444 -574.915482359052
547.0461016179337 -385.7163251423219 -689.6538297235154
500.4060109538644 -417.1224262610588 -744.7416733256392
431.368934431823 -413.6703635539473 -737.6666596291784
362.11770803592833 -391.47814516071713 -697.3596240086682
321.8208062865765 -386.0617663307752 -686.8862218086332
338.0256905680581 -444.2896689808711 -789.8108539274025
380.5745323670726 -542.5294965109489 -963.7698958643443
376.1254271187467 -576.6895693636129 -1023.8362094408002
346.7134493074175 -567.749092859767 -1007.4315602036008
303.68900686157366 -527.9690870207141 -936.4020713916213
283.3244360786624 -520.2920024681063 -922.3924054716387
268.6016905384634 -518.7382385788675 -919.2811019938878
236.99751634888267 -479.51366363775264 -849.4671279681831
216.51194710367614 -457.4698400981053 -810.3938086172114
183.40954607610144 -403.33318599636993 -714.31681151237
180.68532128893975 -412.45318462527814 -729.9860424679255
173.6691926580571 -410.29692148350074 -725.9808188737222
173.44286208608074 -423.1322359582482 -748.503513971194
176.5560802262984 -443.8530599968152 -784.9671318873711
162.5823290592309 -420.3597582058247 -743.2437698727066
168.6279167219502 -447.58627085543833 -791.2026645488511
168.70957873902972 -458.92621753921236 -811.0678064444521
165.41362525866086 -460.3490690419754 -813.2791796804025
162.75998102825335 -462.74228827272304 -817.3198066476115
160.86077914247974 -466.40259036776433 -823.6278994527723
159.31991204239517 -470.5875424286291 -830.8165491945402
158.3419635680137 -475.8610764177889 -839.9185209717716
157.39732384644984 -480.7096956012201 -848.2622628716492
148.30404254769576 -459.7897662330286 -811.139101974189
147.5089496730699 -463.7617306494586 -817.9348685531656
147.37650984957227 -469.41032264910996 -827.6825839668325
147.58865720533268 -475.76946664549763 -838.760955541667
147.08173693760162 -479.46807044097835 -845.0697043497181
155.0505642643682 -510.72475131785285 -899.9398447743083
153.64615066888214 -511.00130997428664 -900.2129772604004
151.2349717415271 -507.49312549979265 -893.8271020748255
148.1373434853127 -501.2167179251542 -882.5775969766238
142.5068873232779 -485.84565049121943 -855.3303073993612
133.5278277820783 -458.42173363161754 -806.8883486086781
123.26468426366108 -425.89413791421606 -749.4931712420962
113.10370093840646 -393.0572273057677 -691.5844189523044
103.60102966677702 -361.91959633897966 -636.6942604777375
92.96685919206983 -326.2901734746813 -573.9295085823304
82.70681610386231 -291.47975710629294 -512.6314206608702
72.64884662291388 -256.9534049813626 -451.85619626907334
63.28664304362467 -224.52603101762105 -394.79222960062816
94.84660542718917 -15.32317147462166 -28.059192572656038
63.19634642540993 -19.069544128793297 -34.428095290862224
14.936615276963222 -6.560054058175709 -11.781314385323862
559.5198241420336 -320.9553393359444 -574.915482359052
547.0461016179337 -385.7163251423219 -689.6538297235154
500.4060109538644 -417.1224262610588 -744.7416733256392
431.368934431823 -413.6703635539473 -737.6666596291784
362.11770803592833 -391.47814516071713 -697.3596240086682
321.8208062865765 -386.0617663307752 -686.8862218086332
338.0256905680581 -444.2896689808711 -789.8108539274025
380.5745323670726 -542.5294965109489 -963.7698958643443
376.1254271187467 -576.6895693636129 -1023.8362094408002
346.7134493074175 -567.749092859767 -1007.4315602036008
303.68900686157366 -527.9690870207141 -936.4020713916213
283.3244360786624 -520.2920024681063 -922.3924054716387
268.6016905384634 -518.7382385788675 -919.2811019938878
236.99751634888267 -479.51366363775264 -849.4671279681831
216.51194710367614 -457.4698400981053 -810.3938086172114
183.40954607610144 -403.33318599636993 -714.31681151237
180.68532128893975 -412.45318462527814 -729.9860424679255
173.6691926580571 -410.29692148350074 -725.9808188737222
173.44286208608074 -423.1322359582482 -748.503513971194
176.5560802262984 -443.8530599968152 -784.9671318873711
162.5823290592309 -420.3597582058247 -743.2437698727066
168.6279167219502 -447.58627085543833 -791.2026645488511
168.70957873902972 -458.92621753921236 -811.0678064444521
165.41362525866086 -460.3490690419754 -813.2791796804025
162.75998102825335 -462.74228827272304 -817.3198066476115
160.86077914247974 -466.40259036776433 -823.6278994527723
159.31991204239517 -470.5875424286291 -830.8165491945402
158.3419635680137 -475.8610764177889 -839.9185209717716
157.39732384644984 -480.7096956012201 -848.2622628716492
148.30404254769576 -459.7897662330286 -811.139101974189
147.5089496730699 -463.7617306494586 -817.9348685531656
147.37650984957227 -469.41032264910996 -827.6825839668325
147.58865720533268 -475.76946664549763 -838.760955541667
147.08173693760162 -479.46807044097835 -845.0697043497181
155.0505642643682 -510.72475131785285 -899.9398447743083
153.64615066888214 -511.00130997428664 -900.2129772604004
151.2349717415271 -507.49312549979265 -893.8271020748255
148.1373434853127 -501.2167179251542 -882.5775969766238
142.5068873232779 -485.84565049121943 -855.3303073993612
133.5278277820783 -458.42173363161754 -806.8883486086781
123.26468426366108 -425.89413791421606 -749.4931712420962
113.10370093840646 -393.0572273057677 -691.5844189523044
103.60102966677702 -361.91959633897966 -636.6942604777375
92.96685919206983 -326.2901734746813 -573.9295085823304
82.70681610386231 -291.47975710629294 -512.6314206608702
72.64884662291388 -256.9534049813626 -451.85619626907334
63.28664304362467 -224.52603101762105 -394.79222960062816

VECTORS L float
24.307240293374303 35.399497298011525 62.83240892807432
80.04820124553754 63.66648129464351 111.67225632407147
131.4682010130646 72.6382112311758 126.23203987948172
765.5566798306533 317.0092223526803 568.0806072514281
806.3109288819012 269.71420555118493 488.73226480598544
945.6861629572699 267.50536015256495 485.59731314633683
1092.219168423375 269.33219749288196 487.6656225400998
1146.1827739252603 251.0999630538084 454.21748032534646
1195.7260272779308 236.26527478935722 427.4310876633359
1385.1679681662083 249.52301693134973 452.4651169575427
1724.8629365732195 286.29267293455365 519.9546986599656
1893.2225632626914 292.1300259321595 530.9646224389206
1911.0820040810306 276.026088837081 502.1524954996895
1876.5266670993567 255.52423007151714 464.51373689477794
1974.4272862412943 254.88662690222026 462.6968103896252
2066.111652429456 253.83470025891205 460.45471451895634
2023.3341388260787 237.56451962447136 430.3989176893811
2019.1411556837706 227.04397362130388 411.28450050130965
1877.602142484419 203.06329732967964 367.4391891155004
1988.4501976849042 207.47457111515146 374.9526694033621
2039.1288567501783 205.67307835413732 371.56192613366153
2214.3684418153516 216.5513616986854 390.69494388163395
2384.97033321611 226.43831834082033 408.3937530247266
2317.4250778673304 214.03420793556757 385.87743390501515
2524.018970168872 227.1696684156813 409.42991029148226
2692.7940171156183 236.71452932291172 426.1858724181655
2775.726251611911 238.73131656466768 429.4259725304828
2853.668527091991 240.38117176164724 432.1790552226859
2938.638690810178 242.84752083771207 436.4191607371291
3023.714616579109 245.42524551710244 440.8240109948677
3111.7214159010778 248.37681793163932 445.9042273516297
3195.4324744157925 251.12444594676052 450.6089458017406
3089.1940042917226 239.26740782743715 429.1831730107912
3167.753838766837 242.10377779308172 434.0120323042143
3243.8955752083743 244.8539303132542 438.73950327676056
3318.0324081400904 247.52883083421216 443.43657796469637
3386.1826657150723 249.95320057865314 447.5382886556124
3635.209327588874 265.690443808098 475.5279745699573
3671.069850876701 265.87712468412167 475.64543417390786
3677.702239829623 264.12500481717734 472.3011521099823
3647.9838868793036 259.9426852037446 464.67871375610673
3569.465705816595 252.5525391901327 451.2547855700585
3411.62805710008 239.84766953815804 428.30696438199044