# vtk DataFile Version 4.0
[MyVLM domain - lattices] 
ASCII
DATASET UNSTRUCTURED_GRID
POINTS 152 float
0.0 1.4999999999999971 1.6729685287983862
0.0 3.7363636363636297 1.825910415997731
0.0 5.93165120593691 1.9429672071329709
0.0 8.085862708719839 2.0670653503984915
0.0 10.198998144712414 2.1985488133541633
0.0 12.271057513914634 2.300501611165963
0.0 14.302040816326507 2.342344351569154
0.0 16.291948051948026 2.316183910728494
0.0 18.240779220779192 2.270154608511116
0.0 20.148534322820005 2.22396540221378
0.0 22.015213358070465 2.177368088906204
0.0 23.840816326530575 2.129999425960199
0.0 25.62534322820033 2.0814599417502615
0.0 27.368794063079733 2.0284620667262088
0.0 29.071168831168784 1.973199123209718
0.0 30.73246753246749 1.9204789393857318
0.0 32.352690166975826 1.871017188049224
0.0 33.931836734693825 1.8236345039711008
0.0 35.46990723562146 1.7774812184982811
0.0 36.966901669758755 1.7325575766435013
0.0 38.422820037105694 1.6888638168761356
0.0 39.83766233766227 1.6464001711221885
0.0 41.211428571428506 1.6051668647642998
0.0 42.544118738404386 1.565164116641739
0.0 43.835732838589905 1.5263921390504118
0.0 45.08627087198508 1.4888511377428562
0.0 46.2957328385899 1.4525413119282427
0.0 47.46411873840437 1.4174628542723742
0.0 48.59142857142849 1.38361754793876
0.0 49.677662337662255 1.3510275087235082
0.0 50.72282003710567 1.3196972323668452
0.0 51.72690166975873 1.289623554443601
0.0 52.68990723562143 1.2608034348946595
0.0 53.61183673469378 1.2332339580269605
0.0 54.49269016697579 1.206912332513498
0.0 55.33246753246744 1.1818358913933202
0.0 56.13116883116873 1.1575801020610301
0.0 56.888794063079686 1.1328025171201337
0.0 57.60534322820027 1.1053728587594986
0.0 58.28081632653051 1.0741829289911833
0.0 58.91521335807041 1.0400092122337634
0.0 59.50853432281994 1.0025976343866843
0.0 60.060779220779125 0.9501715156148758
0.0 60.57194805194796 0.882998197990979
0.0 61.04204081632644 0.8099943186006066
0.0 61.47105751391456 0.7372363138703015
0.0 61.85899814471232 0.6662628021177438
0.0 62.20586270871974 0.5956028474823872
0.0 62.5116512059368 0.5265458660951207
0.0 62.77636363636353 0.4616463422900078
0.0 62.999999999999886 0.40311562071445006
-0.7686761955390344 1.4999999999999984 -1.5799568380958084
-0.8409029948616161 3.736363636363632 -1.7281169722329541
-0.8940476007249757 5.9316512059369115 -1.8375356791681838
-0.9506443374492793 8.085862708719839 -1.9550792281255758
-1.0210144815146838 10.198998144712414 -2.079304891507134
-1.048631451549771 12.271057513914636 -2.179692972732775
-0.9920275022819518 14.302040816326507 -2.235442525165124
-0.9074715353829097 16.291948051948026 -2.226483671663202
-0.8388231939293685 18.240779220779192 -2.192935796679888
-0.7803448823218929 20.148534322820005 -2.155176395651584
-0.7251531968841737 22.015213358070465 -2.1154345505192906
-0.671766762046156 23.840816326530575 -2.0768586132351095
-0.6188683613166902 25.62534322820033 -2.0352193917648274
-0.5668565661826578 27.368794063079733 -1.989127989968893
-0.5162677046190278 29.071168831168784 -1.9394218040109812
-0.4681223452427161 30.73246753246749 -1.8917316870243357
-0.42442582165628834 32.352690166975826 -1.8467056466819458
-0.3846819074085718 33.931836734693825 -1.803160035204203
-0.3476243488905531 35.46990723562146 -1.7603439983915499
-0.3131098246080671 36.966901669758755 -1.7183117926561484
-0.28048746260446866 38.422820037105694 -1.6771555410424384
-0.2502235469699514 39.83766233766227 -1.636863466776384
-0.2227998260917326 41.211428571428506 -1.5974360333217898
-0.19746739264611052 42.544118738404386 -1.5589633081461771
-0.17533279734900953 43.835732838589905 -1.521409391198976
-0.15613374469432648 45.08627087198508 -1.4848328389274212
-0.13998404755873647 46.2957328385899 -1.4492649373532671
-0.12578653595324127 47.46411873840437 -1.4147882946829746
-0.11250427274737486 48.59142857142849 -1.3814638025970767
-0.10008179164308317 49.677662337662255 -1.3493034317203139
-0.08845752889585208 50.72282003710567 -1.3183158820529732
-0.07764231497362577 51.72690166975873 -1.2885057050771125
-0.06766212708627829 52.68990723562143 -1.2598772827796112
-0.0584684819534103 53.61183673469378 -1.2324371297860208
-0.050013688763705585 54.49269016697579 -1.2061911334388138
-0.042252254921319045 55.33246753246744 -1.1811445593783019
-0.03513536582041269 56.13116883116873 -1.1569727905848217
-0.028615518964613278 56.888794063079686 -1.1326311469862405
-0.022687693716904638 57.60534322820027 -1.1053113958561687
-0.017408965386693863 58.28081632653051 -1.0735610016948198
-0.013252482528008399 58.91521335807041 -1.0397440458796905
-0.010166684094042405 59.50853432281994 -1.0037397436372992
-0.00760098697125575 60.060779220779125 -0.9515922069598777
-0.005464879873870877 60.57194805194796 -0.8832558742199632
-0.0039015967321000085 61.04204081632644 -0.8092481826267114
-0.002883995165670249 61.47105751391456 -0.736530483201786
-0.0022477517166190047 61.85899814471232 -0.6663352463066031
-0.00179874084072329 62.20586270871974 -0.5960211537296721
-0.0014595970466816986 62.5116512059368 -0.5266437251399986
-0.0012027506489664258 62.77636363636353 -0.46099361655457627
-0.0010073243559101815 62.999999999999886 -0.4014866009983554
-0.603592196400244 2.6181818181818146 -0.8031678107737718
-0.6506064733449719 4.834007421150271 -0.8660100413840891
-0.6917594768153456 7.008756957328376 -0.9209765205437269
-0.7393720571114861 9.142430426716126 -0.9796922743931836
-0.7761172248991705 11.235027829313525 -1.0347428960249496
-0.7652471076868961 13.286549165120572 -1.0753200663698228
-0.712312139124323 15.296994434137266 -1.0909062910234162
-0.6548605234921042 17.266363636363607 -1.083989985723707
-0.607188028594223 19.1946567717996 -1.0687770707836897
-0.564561779702275 21.081873840445237 -1.05131241842408
-0.5238449845988737 22.92801484230052 -1.0336889970495995
-0.48398817126106725 24.73307977736545 -1.0155968309111691
-0.4446468478122555 26.497068645640027 -0.995390017090586
-0.4061716015506322 28.219981447124262 -0.9729985240004617
-0.369146268698154 29.90181818181813 -0.9499728013138127
-0.3347055625871267 31.542578849721654 -0.927976984210486
-0.3034153983993225 33.142263450834825 -0.9068681692047653
-0.27461484611217185 34.70087198515764 -0.8861745472897344
-0.24777531506198255 36.21840445269011 -0.8657410722501641
-0.22259898270470088 37.694860853432225 -0.8456225759470154
-0.19901662859040753 39.13024118738398 -0.825849129432268
-0.1773837648981315 40.52454545454539 -0.8064164330510041
-0.15760020702669117 41.877773654916446 -0.7873583803747327
-0.13980007124817 43.18992578849715 -0.7686952302929134
-0.124299953266251 44.46100185528749 -0.7504354266982406
-0.11104417209489861 45.69100185528749 -0.7326126098963709
-0.09966396881699166 46.87992578849713 -0.7152694412385134
-0.08935905326273105 48.02777365491642 -0.6984594862036272
-0.07971977414642176 49.13454545454537 -0.682207080786238
-0.07070224520210072 50.20024118738396 -0.6665166500286884
-0.06228744145105419 51.2248608534322 -0.6513929968224764
-0.05448916577246402 52.20840445269008 -0.636840246778989
-0.04729897838988322 53.1508719851576 -0.6228632305969095
-0.04068081401891846 54.05226345083479 -0.6094673123917554
-0.03459972888188424 54.91257884972161 -0.5966573568180661
-0.029020357778149403 55.73181818181809 -0.5843670070543777
-0.023906581794384738 56.509981447124204 -0.572303649191503
-0.019238704755569217 57.24706864563997 -0.5594565315809495
-0.015036247163849435 57.9430797773654 -0.5446326756127854
-0.011498042968013347 58.59801484230045 -0.528215375187323
-0.00878218748326905 59.211873840445165 -0.510980565241315
-0.006662876649486808 59.784656771799526 -0.48915333772374636
-0.004899700066922485 60.31636363636354 -0.4589218162417086
-0.0035124287272390825 60.806994434137195 -0.42306495674355477
-0.0025445969616638467 61.2565491651205 -0.3862631706268229
-0.0019244050808584702 61.66502782931344 -0.3506372590671401
-0.0015174347090033604 62.03243042671604 -0.31565044381358687
-0.0012218767077768707 62.35875695732828 -0.280730740378938
-0.0009983803858680466 62.644007421150164 -0.2468399770873244
-0.0008287781268287279 62.88818181818171 -0.21533483620679209

CELLS 100 350
4 0 51 52 1
4 1 52 53 2
4 2 53 54 3
4 3 54 55 4
4 4 55 56 5
4 5 56 57 6
4 6 57 58 7
4 7 58 59 8
4 8 59 60 9
4 9 60 61 10
4 10 61 62 11
4 11 62 63 12
4 12 63 64 13
4 13 64 65 14
4 14 65 66 15
4 15 66 67 16
4 16 67 68 17
4 17 68 69 18
4 18 69 70 19
4 19 70 71 20
4 20 71 72 21
4 21 72 73 22
4 22 73 74 23
4 23 74 75 24
4 24 75 76 25
4 25 76 77 26
4 26 77 78 27
4 27 78 79 28
4 28 79 80 29
4 29 80 81 30
4 30 81 82 31
4 31 82 83 32
4 32 83 84 33
4 33 84 85 34
4 34 85 86 35
4 35 86 87 36
4 36 87 88 37
4 37 88 89 38
4 38 89 90 39
4 39 90 91 40
4 40 91 92 41
4 41 92 93 42
4 42 93 94 43
4 43 94 95 44
4 44 95 96 45
4 45 96 97 46
4 46 97 98 47
4 47 98 99 48
4 48 99 100 49
4 49 100 101 50
1 102
1 103
1 104
1 105
1 106
1 107
1 108
1 109
1 110
1 111
1 112
1 113
1 114
1 115
1 116
1 117
1 118
1 119
1 120
1 121
1 122
1 123
1 124
1 125
1 126
1 127
1 128
1 129
1 130
1 131
1 132
1 133
1 134
1 135
1 136
1 137
1 138
1 139
1 140
1 141
1 142
1 143
1 144
1 145
1 146
1 147
1 148
1 149
1 150
1 151

CELL_TYPES 100
9
9
9
9
9
9
9
9
9
9
9
9
9
9
9
9
9
9
9
9
9
9
9
9
9
9
9
9
9
9
9
9
9
9
9
9
9
9
9
9
9
9
9
9
9
9
9
9
9
9
1
1
1
1
1
1
1
1
1
1
1
1
1
1
1
1
1
1
1
1
1
1
1
1
1
1
1
1
1
1
1
1
1
1
1
1
1
1
1
1
1
1
1
1
1
1
1
1
1
1

CELL_DATA 100

VECTORS S float
2.64030918564633e-18 -8.760665940081226e-16 1.4615490703846891e-16
-6.146743388194129e-18 1.751124127456677e-15 -2.9827860913726133e-16
-0.0 0.0 -0.0
-0.0 0.0 -0.0
0.0 0.0 -0.0
-1.0235431286973e-17 -7.005909775052456e-15 1.1849984784444164e-15
-8.19714547453228e-18 -7.005003317013582e-15 1.1903609828869307e-15
-2.1801401001951487e-17 -2.101292546025433e-14 3.583346160784996e-15
7.10829146343712e-18 7.003821553877033e-15 -1.1973015692734789e-15
-1.594756987585658e-17 -1.4007062939114419e-14 2.397983576107531e-15
0.0 0.0 -0.0
0.0 0.0 -0.0
-3.311528574499388e-17 -2.8011687711113858e-14 4.810178988270487e-15
-3.176312405320122e-17 -2.8011175426091766e-14 4.813170399952573e-15
0.0 0.0 -0.0
1.3918044430979968e-17 1.400522430192323e-14 -2.4087113312801223e-15
0.0 0.0 -0.0
0.0 0.0 -0.0
1.132152482601166e-17 1.400468993904934e-14 -2.4118298594106535e-15
0.0 0.0 -0.0
0.0 0.0 -0.0
0.0 0.0 -0.0
0.0 0.0 -0.0
1.91462180149223e-17 2.8009181483740792e-14 -4.8248267305182774e-15
-9.415996618624009e-18 -1.4004593985394821e-14 2.412395154163177e-15
8.96926303580866e-18 1.4004589275191161e-14 -2.412424200280759e-15
8.68318500141526e-18 1.4004588647793148e-14 -2.4124288891033596e-15
0.0 0.0 -0.0
0.0 0.0 -0.0
-7.97394806071919e-18 -1.4004399136511907e-14 2.4135312258174533e-15
7.7812312082049e-18 1.4004336907882307e-14 -2.413892905566724e-15
-7.59445727378204e-18 -1.4004267212328691e-14 2.414297808161489e-15
7.47325645724949e-18 1.4004191901971305e-14 -2.4147349874837782e-15
-7.284012415016899e-18 -1.4004107904798976e-14 2.4152226544335534e-15
0.0 0.0 -0.0
0.0 0.0 -0.0
-6.86270131529578e-18 -1.4003862592191267e-14 2.4166458447475837e-15
0.0 0.0 -0.0
0.0 0.0 -0.0
0.0 0.0 -0.0
-6.34873600137733e-18 -1.4003430945988916e-14 2.4191471991282834e-15
-6.21058587639213e-18 -1.4003325857058777e-14 2.419755794751029e-15
0.0 0.0 -0.0
-5.894085734806439e-18 -1.400312518018307e-14 2.4209176327283894e-15
0.0 0.0 -0.0
-2.8770252749847e-18 -7.001474782549982e-15 1.2109667733620936e-15
2.83047575638902e-18 7.001435456831338e-15 -1.2111942314825906e-15
2.78546723978923e-18 7.001399782789415e-15 -1.211400535278619e-15
-2.7570463205140598e-18 -7.001368365685949e-15 1.2115821642845364e-15
0.0 0.0 -0.0
2.64030918564633e-18 -8.760665940081226e-16 1.4615490703846891e-16
-6.146743388194129e-18 1.751124127456677e-15 -2.9827860913726133e-16
-0.0 0.0 -0.0
-0.0 0.0 -0.0
0.0 0.0 -0.0
-1.0235431286973e-17 -7.005909775052456e-15 1.1849984784444164e-15
-8.19714547453228e-18 -7.005003317013582e-15 1.1903609828869307e-15
-2.1801401001951487e-17 -2.101292546025433e-14 3.583346160784996e-15
7.10829146343712e-18 7.003821553877033e-15 -1.1973015692734789e-15
-1.594756987585658e-17 -1.4007062939114419e-14 2.397983576107531e-15
0.0 0.0 -0.0
0.0 0.0 -0.0
-3.311528574499388e-17 -2.8011687711113858e-14 4.810178988270487e-15
-3.176312405320122e-17 -2.8011175426091766e-14 4.813170399952573e-15
0.0 0.0 -0.0
1.3918044430979968e-17 1.400522430192323e-14 -2.4087113312801223e-15
0.0 0.0 -0.0
0.0 0.0 -0.0
1.132152482601166e-17 1.400468993904934e-14 -2.4118298594106535e-15
0.0 0.0 -0.0
0.0 0.0 -0.0
0.0 0.0 -0.0
0.0 0.0 -0.0
1.91462180149223e-17 2.8009181483740792e-14 -4.8248267305182774e-15
-9.415996618624009e-18 -1.4004593985394821e-14 2.412395154163177e-15
8.96926303580866e-18 1.4004589275191161e-14 -2.412424200280759e-15
8.68318500141526e-18 1.4004588647793148e-14 -2.4124288891033596e-15
0.0 0.0 -0.0
0.0 0.0 -0.0
-7.97394806071919e-18 -1.4004399136511907e-14 2.4135312258174533e-15
7.7812312082049e-18 1.4004336907882307e-14 -2.413892905566724e-15
-7.59445727378204e-18 -1.4004267212328691e-14 2.414297808161489e-15
7.47325645724949e-18 1.4004191901971305e-14 -2.4147349874837782e-15
-7.284012415016899e-18 -1.4004107904798976e-14 2.4152226544335534e-15
0.0 0.0 -0.0
0.0 0.0 -0.0
-6.86270131529578e-18 -1.4003862592191267e-14 2.4166458447475837e-15
0.0 0.0 -0.0
0.0 0.0 -0.0
0.0 0.0 -0.0
-6.34873600137733e-18 -1.4003430945988916e-14 2.4191471991282834e-15
-6.21058587639213e-18 -1.4003325857058777e-14 2.419755794751029e-15
0.0 0.0 -0.0
-5.894085734806439e-18 -1.400312518018307e-14 2.4209176327283894e-15
0.0 0.0 -0.0
-2.8770252749847e-18 -7.001474782549982e-15 1.2109667733620936e-15
2.83047575638902e-18 7.001435456831338e-15 -1.2111942314825906e-15
2.78546723978923e-18 7.001399782789415e-15 -1.211400535278619e-15
-2.7570463205140598e-18 -7.001368365685949e-15 1.2115821642845364e-15
0.0 0.0 -0.0

SCALARS Gamma float
LOOKUP_TABLE default
-0.0
-0.0
-0.0
55.568353414953705
61.547694238250216
60.89920402963305
57.496788519264825
51.988330555732745
47.76247497356929
51.36247318501337
59.4371958067002
60.08963122131734
57.30582458497683
52.58503562252207
51.38622088816095
50.38890931756821
46.653724637107395
44.16289031632479
39.40635819078032
39.83477767745737
38.96576726956219
40.151424835682484
41.28357318404603
38.54181207598072
40.41268332885899
41.70867392210263
41.655377805163596
41.60885431620281
41.64106148269033
41.87815903512053
42.08720690750166
42.27342666029861
40.061775671589146
40.27780007851486
40.50371207240296
40.725479434462265
40.90006550802892
43.25337624191826
43.07573408527279
42.60120717548956
41.772294195368566
40.42659102112697
38.23943025741358
35.450203405349946
32.654610991347894
29.85660986377651
26.884241394668628
23.992088847262536
21.103959179552394
18.432835423641095
-0.0
-0.0
-0.0
55.568353414953705
61.547694238250216
60.89920402963305
57.496788519264825
51.988330555732745
47.76247497356929
51.36247318501337
59.4371958067002
60.08963122131734
57.30582458497683
52.58503562252207
51.38622088816095
50.38890931756821
46.653724637107395
44.16289031632479
39.40635819078032
39.83477767745737
38.96576726956219
40.151424835682484
41.28357318404603
38.54181207598072
40.41268332885899
41.70867392210263
41.655377805163596
41.60885431620281
41.64106148269033
41.87815903512053
42.08720690750166
42.27342666029861
40.061775671589146
40.27780007851486
40.50371207240296
40.725479434462265
40.90006550802892
43.25337624191826
43.07573408527279
42.60120717548956
41.772294195368566
40.42659102112697
38.23943025741358
35.450203405349946
32.654610991347894
29.85660986377651
26.884241394668628
23.992088847262536
21.103959179552394
18.432835423641095

VECTORS Ftot float
131.00639841161956 7.331297200586803 41.577852527902245
156.02304905899425 16.11765063460101 91.40773901896276
157.99197308454143 23.656282978772307 134.1614475772436
1479.4583628718499 1.577992746567481 8.949241575096792
1509.3950320138194 -46.06589706662286 -261.2526845383196
1591.498148741575 -57.06674180067205 -323.64157527897015
1651.6224557110763 -53.274117164514 -302.13253213129275
1622.9288055647587 -51.222053981266065 -290.49470350743184
1603.1854225156414 -53.354899456904626 -302.59067127747477
1830.6178828837392 -71.65515491540727 -406.37657735364076
2253.2682072482203 -95.88603067905285 -543.7967025454196
2424.9565655430106 -105.27514439232604 -597.0450124498293
2446.7842853328093 -110.72038594414202 -627.9265118660703
2376.302471202645 -105.66380803809665 -599.2492335180345
2454.486910646657 -102.96687944493164 -583.9541914188106
2531.1377883027008 -102.18752823996306 -579.5342710989752
2458.962856436144 -93.83178345217556 -532.1464875946303
2431.561206332943 -89.5949730328673 -508.1183416904405
2262.8681492534456 -78.46035244984981 -444.97077040963205
2375.8622585907106 -80.33344433075344 -455.5936023402744
2408.122106759453 -79.62669856141328 -451.58544790752387
2570.616259516401 -79.16077720126539 -448.94307656834553
2727.1242249188617 -82.43926848774838 -467.53632459715163
2622.419513620802 -77.6959675929528 -440.63572846752095
2827.2510836943597 -82.36274774615235 -467.1023539065144
2998.262618425245 -83.2442624610687 -472.10167228294506
3070.801970379869 -82.54586775156399 -468.14087906401375
3140.430785325693 -82.4809488583133 -467.77270572497144
3213.337745662172 -82.47044741429356 -467.7131490764225
3299.573221524893 -83.10804550738331 -471.32914754998535
3381.9183407611026 -83.68204295555967 -474.58444884233495
3460.422413344967 -84.20281295525622 -477.5378822738163
3336.5292070230003 -80.5517602460135 -456.83173342142203
3410.1672128415657 -80.99033187687458 -459.31899673812455
3482.397027181148 -81.80175534970206 -463.92080792758225
3552.029058568822 -82.92640267676074 -470.2989998670116
3616.2370103890053 -83.17216053754088 -471.6927619548822
3872.8316503720657 -88.41157353604858 -501.40694963878775
3902.758183077603 -88.26262727738526 -500.56223342993036
3902.4457235407785 -87.47065446994634 -496.07073244547036
3865.2877255570247 -86.47879517353381 -490.44561885010717
3776.3320979364457 -83.69913408797399 -474.6813774708729
3603.9717560728327 -78.32718555955593 -444.2155434457334
3367.83241030394 -72.6002629822675 -411.7365515507993
3124.7817813798497 -66.90739827764747 -379.45071144994427
2875.2267329699675 -61.85166779222491 -350.7782390630802
2604.193491894737 -55.66811951222294 -315.7095941219766
2336.1483245180593 -49.59580404792632 -281.27178182632764
2064.1032681780375 -43.72701018569427 -247.9881978923669
1809.807540654046 -38.15077516496501 -216.36379759738938
131.00639841161956 7.331297200586803 41.577852527902245
156.02304905899425 16.11765063460101 91.40773901896276
157.99197308454143 23.656282978772307 134.1614475772436
1479.4583628718499 1.577992746567481 8.949241575096792
1509.3950320138194 -46.06589706662286 -261.2526845383196
1591.498148741575 -57.06674180067205 -323.64157527897015
1651.6224557110763 -53.274117164514 -302.13253213129275
1622.9288055647587 -51.222053981266065 -290.49470350743184
1603.1854225156414 -53.354899456904626 -302.59067127747477
1830.6178828837392 -71.65515491540727 -406.37657735364076
2253.2682072482203 -95.88603067905285 -543.7967025454196
2424.9565655430106 -105.27514439232604 -597.0450124498293
2446.7842853328093 -110.72038594414202 -627.9265118660703
2376.302471202645 -105.66380803809665 -599.2492335180345
2454.486910646657 -102.96687944493164 -583.9541914188106
2531.1377883027008 -102.18752823996306 -579.5342710989752
2458.962856436144 -93.83178345217556 -532.1464875946303
2431.561206332943 -89.5949730328673 -508.1183416904405
2262.8681492534456 -78.46035244984981 -444.97077040963205
2375.8622585907106 -80.33344433075344 -455.5936023402744
2408.122106759453 -79.62669856141328 -451.58544790752387
2570.616259516401 -79.16077720126539 -448.94307656834553
2727.1242249188617 -82.43926848774838 -467.53632459715163
2622.419513620802 -77.6959675929528 -440.63572846752095
2827.2510836943597 -82.36274774615235 -467.1023539065144
2998.262618425245 -83.2442624610687 -472.10167228294506
3070.801970379869 -82.54586775156399 -468.14087906401375
3140.430785325693 -82.4809488583133 -467.77270572497144
3213.337745662172 -82.47044741429356 -467.7131490764225
3299.573221524893 -83.10804550738331 -471.32914754998535
3381.9183407611026 -83.68204295555967 -474.58444884233495
3460.422413344967 -84.20281295525622 -477.5378822738163
3336.5292070230003 -80.5517602460135 -456.83173342142203
3410.1672128415657 -80.99033187687458 -459.31899673812455
3482.397027181148 -81.80175534970206 -463.92080792758225
3552.029058568822 -82.92640267676074 -470.2989998670116
3616.2370103890053 -83.17216053754088 -471.6927619548822
3872.8316503720657 -88.41157353604858 -501.40694963878775
3902.758183077603 -88.26262727738526 -500.56223342993036
3902.4457235407785 -87.47065446994634 -496.07073244547036
3865.2877255570247 -86.47879517353381 -490.44561885010717
3776.3320979364457 -83.69913408797399 -474.6813774708729
3603.9717560728327 -78.32718555955593 -444.2155434457334
3367.83241030394 -72.6002629822675 -411.7365515507993
3124.7817813798497 -66.90739827764747 -379.45071144994427
2875.2267329699675 -61.85166779222491 -350.7782390630802
2604.193491894737 -55.66811951222294 -315.7095941219766
2336.1483245180593 -49.59580404792632 -281.27178182632764
2064.1032681780375 -43.72701018569427 -247.9881978923669
1809.807540654046 -38.15077516496501 -216.36379759738938

VECTORS D float
106.3513519586187 -5.328837591192875 -33.862818226954026
74.45306133320248 -7.183780527900417 -43.708582754055485
23.242448322889423 -3.311832768507697 -19.76637449551908
648.3190504701273 -121.35684328060489 -719.3654778712613
644.5080504533723 -148.8523243211035 -878.4163295230369
579.8583804802075 -158.86592469713827 -934.2334646725673
491.16727857972563 -155.31954473252424 -910.6378417953312
408.8591790848748 -146.20903926910918 -854.8897604102934
355.3544992013124 -141.3925238384036 -824.9901846054454
377.4101773572274 -164.9591501000134 -961.0467918213562
428.5688619376124 -203.6445232676131 -1185.1308563729485
420.2542561968706 -215.22560073856457 -1251.3793746026456
393.99418775050117 -215.89314836311388 -1254.5238411132823
349.01262523746703 -203.3884309761892 -1181.3550769896005
324.61860538182714 -200.14138682371146 -1162.147689702459
305.89330340748995 -198.63675077191675 -1153.1870907510247
270.5788857984948 -184.46082794023133 -1069.9438546281551
247.36767646953578 -176.1850448305602 -1021.9062031707399
211.11296809626742 -156.60346832825707 -908.3530034506307
207.4490153025175 -159.82324380774205 -927.0980646541822
197.72116972362159 -157.8048977140464 -915.4944785539833
194.72144121639204 -160.60101776775102 -931.539957304122
195.8385512490048 -166.56103593906266 -966.133825134842
178.90021750350152 -156.58660281473772 -908.3097815457575
183.98819810720357 -165.42060916828407 -959.5923918070807
183.88345343104413 -169.5269952693267 -983.4533414423246
179.22493362365643 -169.15318269275156 -981.3199093720684
175.55255227192393 -169.35887652798928 -982.5392890205964
172.3504098181586 -169.79461464446632 -984.8406873630405
170.8419357624341 -171.38753595458067 -993.9035178616346
169.18041121778634 -172.76911635457057 -1001.7844931041815
167.6227281024514 -174.047119882907 -1009.0426137547969
157.40285947193294 -165.99046196511065 -962.1701691337042
156.30300974374236 -167.23342680590787 -969.1928141361165
155.69098866986056 -168.84215159841244 -978.3166817415374
155.46294238513622 -170.72921881006607 -989.0360587331604
154.5215587609905 -171.67207230494577 -994.358226462275
162.31293619541287 -182.3064596320032 -1055.6878071705614
160.47180581430322 -182.07518820076064 -1054.079070514351
157.62673429717324 -180.53687256155104 -1044.9062759379583
154.03729041730867 -177.96758617568568 -1029.775642607441
148.10471065190737 -172.49254035927532 -997.8483939479636
138.5757261046688 -162.58966716189647 -940.3357470307155
127.75453292343077 -150.90826890626198 -872.5759007621947
117.12152514446413 -139.19972748504844 -804.7004726254169
107.14114137438077 -128.04518603837323 -740.067285921224
96.06866158002455 -115.38245835290638 -666.7559124702294
85.36561717212231 -102.97748102658755 -594.971447652484
74.93785644850036 -90.74351271811277 -524.2088988405333
65.2490499430834 -79.26844487367875 -457.8599987450331
106.3513519586187 -5.328837591192875 -33.862818226954026
74.45306133320248 -7.183780527900417 -43.708582754055485
23.242448322889423 -3.311832768507697 -19.76637449551908
648.3190504701273 -121.35684328060489 -719.3654778712613
644.5080504533723 -148.8523243211035 -878.4163295230369
579.8583804802075 -158.86592469713827 -934.2334646725673
491.16727857972563 -155.31954473252424 -910.6378417953312
408.8591790848748 -146.20903926910918 -854.8897604102934
355.3544992013124 -141.3925238384036 -824.9901846054454
377.4101773572274 -164.9591501000134 -961.0467918213562
428.5688619376124 -203.6445232676131 -1185.1308563729485
420.2542561968706 -215.22560073856457 -1251.3793746026456
393.99418775050117 -215.89314836311388 -1254.5238411132823
349.01262523746703 -203.3884309761892 -1181.3550769896005
324.61860538182714 -200.14138682371146 -1162.147689702459
305.89330340748995 -198.63675077191675 -1153.1870907510247
270.5788857984948 -184.46082794023133 -1069.9438546281551
247.36767646953578 -176.1850448305602 -1021.9062031707399
211.11296809626742 -156.60346832825707 -908.3530034506307
207.4490153025175 -159.82324380774205 -927.0980646541822
197.72116972362159 -157.8048977140464 -915.4944785539833
194.72144121639204 -160.60101776775102 -931.539957304122
195.8385512490048 -166.56103593906266 -966.133825134842
178.90021750350152 -156.58660281473772 -908.3097815457575
183.98819810720357 -165.42060916828407 -959.5923918070807
183.88345343104413 -169.5269952693267 -983.4533414423246
179.22493362365643 -169.15318269275156 -981.3199093720684
175.55255227192393 -169.35887652798928 -982.5392890205964
172.3504098181586 -169.79461464446632 -984.8406873630405
170.8419357624341 -171.38753595458067 -993.9035178616346
169.18041121778634 -172.76911635457057 -1001.7844931041815
167.6227281024514 -174.047119882907 -1009.0426137547969
157.40285947193294 -165.99046196511065 -962.1701691337042
156.30300974374236 -167.23342680590787 -969.1928141361165
155.69098866986056 -168.84215159841244 -978.3166817415374
155.46294238513622 -170.72921881006607 -989.0360587331604
154.5215587609905 -171.67207230494577 -994.358226462275
162.31293619541287 -182.3064596320032 -1055.6878071705614
160.47180581430322 -182.07518820076064 -1054.079070514351
157.62673429717324 -180.53687256155104 -1044.9062759379583
154.03729041730867 -177.96758617568568 -1029.775642607441
148.10471065190737 -172.49254035927532 -997.8483939479636
138.5757261046688 -162.58966716189647 -940.3357470307155
127.75453292343077 -150.90826890626198 -872.5759007621947
117.12152514446413 -139.19972748504844 -804.7004726254169
107.14114137438077 -128.04518603837323 -740.067285921224
96.06866158002455 -115.38245835290638 -666.7559124702294
85.36561717212231 -102.97748102658755 -594.971447652484
74.93785644850036 -90.74351271811277 -524.2088988405333
65.2490499430834 -79.26844487367875 -457.8599987450331

VECTORS L float
24.655046453000868 12.660134791779678 75.44067075485626
81.56998772579178 23.301431162501434 135.11632177301826
134.749524761652 26.968115747280006 153.9278220727627
831.1393124017227 122.93483602717237 728.3147194463583
864.8869815604472 102.78642725448069 617.1636449847175
1011.6397682613675 101.79918289646618 610.5918893935968
1160.4551771313509 102.04542756801031 608.5053096640387
1214.0696264798842 94.9869852878431 564.3950569028618
1247.8309233143293 88.03762438149899 522.3995133279706
1453.2077055265117 93.30399518460615 554.6702144677158
1824.6993453106074 107.7584925885602 641.3341538275288
2004.7023093461398 109.95045634623851 654.3343621528163
2052.790097582309 105.17276241897183 626.5973292472119
2027.2898459651783 97.72462293809257 582.1058434715663
2129.868305264831 97.17450737877985 578.1934982836488
2225.2444848952114 96.44922253195378 573.65281965205
2188.3839706376493 90.62904448805577 537.7973670335249
2184.1935298634075 86.59007179769286 513.7878614802993
2051.755181157178 78.1431158784073 463.3822330409987
2168.4132432881934 79.48979947698862 471.50446231390777
2210.4009370358317 78.17819915263314 463.90903064645954
2375.8948183000102 81.44024056648564 482.5968807357765
2531.2856736698573 84.12176745131431 498.5975005376904
2443.5192961173007 78.89063522178493 467.67405307823657
2643.2628855871562 83.05786142213175 492.4900379005664
2814.379164994201 86.28273280825802 511.3516691593796
2891.577036756213 86.60731494118754 513.1790303080545
2964.87823305377 86.87792766967598 514.7665832956252
3040.9873358440136 87.32416723017275 517.127538286618
3128.731285762459 88.27949044719735 522.5743703116492
3212.737929543316 89.08707339901086 527.2000442618464
3292.7996852425163 89.84430692765078 531.5047314809807
3179.1263475510677 85.43870171909712 505.33843571228203
3253.8642030978235 86.24309492903329 509.87381739799184
3326.706038511288 87.04039624871035 514.3958738139551
3396.566116183686 87.80281613330533 518.7370588661488
3461.715451628015 88.49991176740485 522.6654645073925
3710.5187141766532 93.8948860959546 554.2808575317739
3742.2863772633004 93.81256092337537 553.5168370844208
3744.8189892436053 93.06621809160474 548.8355434924882
3711.250435139717 91.48879100215191 539.3300237573341
3628.2273872845385 88.79340627130128 523.1670164770903
3465.3960299681644 84.26248160234054 496.12020358498233
3240.0778773805096 78.30800592399447 460.8393492113952
3007.6602562353864 72.29232920740097 425.24976117547277
2768.0855915955867 66.19351824614834 389.2890468581438
2508.124830314712 59.71433884068348 351.04631834825307
2250.7827073459375 53.38167697866125 313.6996658261565
1989.1654117295373 47.01650253241849 276.22070094816627
1744.5584907109626 41.117669708713755 241.4962011476439
24.655046453000868 12.660134791779678 75.44067075485626
81.56998772579178 23.301431162501434 135.11632177301826
134.749524761652 26.968115747280006 153.9278220727627