# vtk DataFile Version 4.0
[MyVLM domain - lattices] 
ASCII
DATASET UNSTRUCTURED_GRID
POINTS 152 float
0.0 -1.7677195658382703 -1.3870801112056876
0.0 -3.9966658934848533 -1.149357997424793
0.0 -6.178928810556114 -0.8834287469662493
0.0 -8.321962416554724 -0.6315666588211644
0.0 -10.42582644082063 -0.3941104749092845
0.0 -12.484110489860623 -0.1347050471559812
0.0 -14.49150450793377 0.17676444702345862
0.0 -16.44663786846998 0.5480712171774682
0.0 -18.357869008397426 0.9318122119149241
0.0 -20.2286203522344 1.308577897286193
0.0 -22.05884879999436 1.6786127054613327
0.0 -23.84849127525688 2.0422743605968128
0.0 -25.597478410502156 2.399956265446534
0.0 -27.305239325268843 2.754896043992085
0.0 -28.97215488598116 3.104933695406223
0.0 -30.59905996324192 3.445334433217266
0.0 -32.1860788323278 3.7753934573081036
0.0 -33.73300669861596 4.09627221569998
0.0 -35.239696018693174 4.408807468669943
0.0 -36.70614683510545 4.712998974927548
0.0 -38.132359189262566 5.008846499626307
0.0 -39.51833312143805 5.296349814363691
0.0 -40.86406867076918 5.5755086971811325
0.0 -42.16956587525701 5.84632293256402
0.0 -43.434824771766316 6.108792311441699
0.0 -44.65984539602567 6.362916631187476
0.0 -45.84462778262738 6.608695695618615
0.0 -46.9891719650275 6.846129314996342
0.0 -48.09347825286914 7.075215733247405
0.0 -49.15755048651997 7.295933170564335
0.0 -50.181389446657114 7.508277199507298
0.0 -51.16499458378389 7.712250936426738
0.0 -52.10836536999957 7.907857375196444
0.0 -53.011501298999384 8.09509938721354
0.0 -53.874401886074466 8.27397972139851
0.0 -54.6970666681119 8.444501004195175
0.0 -55.47942192579843 8.607081318604731
0.0 -56.22123454559002 8.763042717231263
0.0 -56.92213460862687 8.914483114179243
0.0 -57.58192967834784 9.062493871419067
0.0 -58.20075458985721 9.206310301075227
0.0 -58.77856522365046 9.346182617291792
0.0 -59.313316580735226 9.493708585675078
0.0 -59.80505508457524 9.648624925679243
0.0 -60.25532909295135 9.80215046397158
0.0 -60.665193767975715 9.948301078848544
0.0 -61.03491628791536 10.085561527061959
0.0 -61.36424122743861 10.21538039765147
0.0 -61.653392491306846 10.336487863614522
0.0 -61.90281366106957 10.44636824897398
0.0 -62.11288873269499 10.542843804376503
-0.7686761955390344 -1.202855003790565 1.816426010081798
-0.8409029948616161 -3.379515514140236 2.350675728922516
-0.8940476007249757 -5.52245137368535 2.8396398057481598
-0.9506443374492793 -7.6235243401811 3.329472505845357
-1.0210144815146838 -9.682984940645742 3.8187530198901207
-1.048631451549771 -11.706132864773359 4.2774253140708005
-0.9920275022819518 -13.696580159041277 4.685004454868919
-0.9074715353829097 -15.657811921041027 5.021725471674035
-0.8388231939293685 -17.58286149277325 5.327098245341424
-0.7803448823218929 -19.46819035929 5.621190691363824
-0.7251531968841737 -21.31341144457434 5.9061980269188314
-0.671766762046156 -23.11797804304714 6.18522077341809
-0.6188683613166902 -24.882624546198148 6.454093989757324
-0.5668565661826578 -26.607592133310966 6.711449880250178
-0.5162677046190278 -28.29273539206779 6.958113119130983
-0.4681223452427161 -29.93707653508331 7.199629014221428
-0.42442582165628834 -31.540503037005998 7.436635728501883
-0.3846819074085718 -33.1032204361158 7.667967596462159
-0.3476243488905531 -34.62535911687615 7.892885171065147
-0.3131098246080671 -36.10690965775994 8.111441884446194
-0.28048746260446866 -37.5478560617684 8.323728460093694
-0.2502235469699514 -38.94820037391687 8.529733300149275
-0.2227998260917326 -40.307942513725706 8.72945686103568
-0.19746739264611052 -41.627066841143304 8.922987841893224
-0.17533279734900953 -42.90557959014804 9.11029088807377
-0.15613374469432648 -44.14347059251953 9.29142366642054
-0.13998404755873647 -45.34073441549713 9.466416987650323
-0.12578653595324127 -46.49735671431634 9.635352204965304
-0.11250427274737486 -47.61332691524778 9.798289284964566
-0.10008179164308317 -48.688642939614276 9.955240016412159
-0.08845752889585208 -49.72330327667665 10.106212967135818
-0.07764231497362577 -50.717307136078325 10.251212619470362
-0.06766212708627829 -51.67065375689527 10.390243288830442
-0.0584684819534103 -52.58334200787462 10.52331139086981
-0.050013688763705585 -53.455370866690096 10.650422723488978
-0.042252254921319045 -54.286739418972836 10.771582472331351
-0.03513536582041269 -55.077504033876764 10.8864709520392
-0.028615518964613278 -55.82784611819264 10.994059353578075
-0.022687693716904638 -56.538253316415876 11.091582107586767
-0.017408965386693863 -57.208977858688996 11.177608745843559
-0.013252482528008399 -57.839609226588955 11.254467434017757
-0.010166684094042405 -58.430168394171545 11.322039222327996
-0.00760098697125575 -58.98307877595703 11.366580244064053
-0.005464879873870877 -59.49834828363901 11.388045629781963
-0.0039015967321000085 -59.97415058341238 11.396793033187123
-0.002883995165670249 -60.40927684935813 11.399678046737108
-0.0022477517166190047 -60.80351306524396 11.397914416799194
-0.00179874084072329 -61.157317891163956 11.388900952720535
-0.0014595970466816986 -61.47050803805109 11.373677138454626
-0.0012027506489664258 -61.74259891357351 11.354991233682991
-0.0010073243559101815 -61.9731710231478 11.335222310410122
-0.603592196400244 -2.438937126639441 1.245608388547808
-0.6506064733449719 -4.610186920939716 1.6922699824526233
-0.6917594768153456 -6.7423522960887725 2.124042691124142
-0.7393720571114861 -8.833414587481984 2.552374930434498
-0.7761172248991705 -10.88466129336732 2.969964934977187
-0.7652471076868961 -12.89796925865479 3.3661685883358294
-0.712312139124323 -14.875164827081331 3.7306281804787234
-0.6548605234921042 -16.815815889788784 4.065794322517346
-0.607188028594223 -18.717455614602695 4.385657114914608
-0.564561779702275 -20.579034320477717 4.696169594699437
-0.5238449845988737 -22.400188567264458 4.999392933383613
-0.48398817126106725 -24.18097218168686 5.295021864446198
-0.4446468478122555 -25.921670971787293 5.581435489932641
-0.4061716015506322 -27.62229709842329 5.858564842192725
-0.369146268698154 -29.28258132883455 6.12793681608509
-0.3347055625871267 -30.902234688979703 6.391190264836913
-0.3034153983993225 -32.48128199378864 6.648184455987527
-0.27461484611217185 -34.01980517203562 6.89845474836898
-0.24777531506198255 -35.517831147213364 7.14184845126644
-0.22259898270470088 -36.97535039786913 7.378419563521689
-0.19901662859040753 -38.392357702219556 7.608197699339862
-0.1773837648981315 -39.76885380689187 7.831178624387461
-0.15760020702669117 -41.10483282632915 8.047395717316483
-0.13980007124817 -42.40029124261217 8.256868929238337
-0.124299953266251 -43.655227589474336 8.459606575764013
-0.11104417209489861 -44.869636025337876 8.655641786127335
-0.09966396881699166 -46.043509142136905 8.84501657355773
-0.08935905326273105 -47.17683763832362 9.02778368975417
-0.07971977414642176 -48.26961728799691 9.203967100992738
-0.07070224520210072 -49.321847322756234 9.373571165089444
-0.06228744145105419 -50.33352690858823 9.536600611969071
-0.05448916577246402 -51.30465532908803 9.693059504565698
-0.04729897838988322 -52.23523174541357 9.842952600188841
-0.04068081401891846 -53.125255226095994 9.986285181461051
-0.03459972888188424 -53.974724926396895 10.123062039131833
-0.029020357778149403 -54.783652369057386 10.253217824488944
-0.023906581794384738 -55.55208836594959 10.376464369085978
-0.019238704755569217 -56.28020843225531 10.49180627686313
-0.015036247163849435 -56.96821972653617 10.59806869323616
-0.011498042968013347 -57.616055690504865 10.69562908900978
-0.00878218748326905 -58.22358158447364 10.785251610925535
-0.006662876649486808 -58.79145291434642 10.863218700267877
-0.004899700066922485 -59.32033160551233 10.925776391611546
-0.0035124287272390825 -59.80973509733509 10.97566142231976
-0.0025445969616638467 -60.25885064490482 11.017483097824103
-0.0019244050808584702 -60.667309974962166 11.053329999564927
-0.0015174347090033604 -61.03520629807221 11.082673504159079
-0.0012218767077768707 -61.36263893829883 11.104950316848935
-0.0009983803858680466 -61.64944087590628 11.121107653625169
-0.0008287781268287279 -61.895376525491066 11.132481585703728

CELLS 100 350
4 0 51 52 1
4 1 52 53 2
4 2 53 54 3
4 3 54 55 4
4 4 55 56 5
4 5 56 57 6
4 6 57 58 7
4 7 58 59 8
4 8 59 60 9
4 9 60 61 10
4 10 61 62 11
4 11 62 63 12
4 12 63 64 13
4 13 64 65 14
4 14 65 66 15
4 15 66 67 16
4 16 67 68 17
4 17 68 69 18
4 18 69 70 19
4 19 70 71 20
4 20 71 72 21
4 21 72 73 22
4 22 73 74 23
4 23 74 75 24
4 24 75 76 25
4 25 76 77 26
4 26 77 78 27
4 27 78 79 28
4 28 79 80 29
4 29 80 81 30
4 30 81 82 31
4 31 82 83 32
4 32 83 84 33
4 33 84 85 34
4 34 85 86 35
4 35 86 87 36
4 36 87 88 37
4 37 88 89 38
4 38 89 90 39
4 39 90 91 40
4 40 91 92 41
4 41 92 93 42
4 42 93 94 43
4 43 94 95 44
4 44 95 96 45
4 45 96 97 46
4 46 97 98 47
4 47 98 99 48
4 48 99 100 49
4 49 100 101 50
1 102
1 103
1 104
1 105
1 106
1 107
1 108
1 109
1 110
1 111
1 112
1 113
1 114
1 115
1 116
1 117
1 118
1 119
1 120
1 121
1 122
1 123
1 124
1 125
1 126
1 127
1 128
1 129
1 130
1 131
1 132
1 133
1 134
1 135
1 136
1 137
1 138
1 139
1 140
1 141
1 142
1 143
1 144
1 145
1 146
1 147
1 148
1 149
1 150
1 151

CELL_TYPES 100
9
9
9
9
9
9
9
9
9
9
9
9
9
9
9
9
9
9
9
9
9
9
9
9
9
9
9
9
9
9
9
9
9
9
9
9
9
9
9
9
9
9
9
9
9
9
9
9
9
9
1
1
1
1
1
1
1
1
1
1
1
1
1
1
1
1
1
1
1
1
1
1
1
1
1
1
1
1
1
1
1
1
1
1
1
1
1
1
1
1
1
1
1
1
1
1
1
1
1
1

CELL_DATA 100

VECTORS S float
9.895305160416439e-18 1.6789604062251208e-15 -5.800324630123786e-16
-0.0 -0.0 0.0
-0.0 -0.0 0.0
-4.119298120501e-20 4.193719104320372e-16 -1.4609046974041335e-16
-3.6465400302268376e-17 1.3425140097275806e-14 -4.6596861889699414e-15
4.267454361986656e-17 -1.3422912283302627e-14 4.6660471980756116e-15
-3.682821402865306e-17 1.3418947810558704e-14 -4.677485978250736e-15
0.0 -0.0 0.0
-3.509909842404129e-17 1.3413409318378326e-14 -4.693358099219613e-15
0.0 -0.0 0.0
0.0 -0.0 0.0
8.408883256988272e-17 -2.682024599731391e-14 9.405365524960754e-15
0.0 -0.0 0.0
7.997936896566992e-17 -2.6815600881719663e-14 9.418636822766419e-15
-1.469578188856921e-16 5.3626313319795656e-14 -1.8851291491880338e-14
6.951032005259878e-17 -2.681109674314695e-14 9.431533634109409e-15
0.0 -0.0 0.0
-6.123351002653331e-17 2.6808016566188174e-14 -9.440342429729254e-15
-2.822292298380908e-17 1.3402890900046939e-14 -4.723357992428296e-15
0.0 -0.0 0.0
0.0 -0.0 0.0
0.0 -0.0 0.0
0.0 -0.0 0.0
-4.394717229506775e-17 2.679710714837111e-14 -9.471361257553284e-15
0.0 -0.0 0.0
-3.96365927986904e-17 2.67942395365222e-14 -9.479489624779293e-15
0.0 -0.0 0.0
0.0 -0.0 0.0
0.0 -0.0 0.0
0.0 -0.0 0.0
6.665427781849163e-17 -5.357789721024337e-14 1.8988911383254947e-14
-3.23307816025367e-17 2.6787794163755405e-14 -9.497715804715844e-15
0.0 -0.0 0.0
0.0 -0.0 0.0
-2.993471878631726e-17 2.6784457741926912e-14 -9.507128605938755e-15
2.935230464180442e-17 -2.6783392407031444e-14 9.510131258794416e-15
2.854149726841361e-17 -2.678233751326539e-14 9.513104101963096e-15
-2.8024913081236216e-17 2.678132212265804e-14 -9.515963793173544e-15
0.0 -0.0 0.0
0.0 -0.0 0.0
0.0 -0.0 0.0
-7.773349732674805e-17 8.033332026096369e-14 -2.8577853591018356e-14
-5.0195535392763655e-17 5.355380839509659e-14 -1.905679287222201e-14
0.0 -0.0 0.0
-2.418468627986208e-17 2.6775354181409528e-14 -9.532753563758003e-15
1.2031877210803729e-17 -1.338734007646811e-14 4.767323425938358e-15
0.0 -0.0 0.0
0.0 -0.0 0.0
0.0 -0.0 0.0
1.1425872515771079e-17 -1.3386286342071075e-14 4.770282921808485e-15
9.895305160416439e-18 1.6789604062251208e-15 -5.800324630123786e-16
-0.0 -0.0 0.0
-0.0 -0.0 0.0
-4.119298120501e-20 4.193719104320372e-16 -1.4609046974041335e-16
-3.6465400302268376e-17 1.3425140097275806e-14 -4.6596861889699414e-15
4.267454361986656e-17 -1.3422912283302627e-14 4.6660471980756116e-15
-3.682821402865306e-17 1.3418947810558704e-14 -4.677485978250736e-15
0.0 -0.0 0.0
-3.509909842404129e-17 1.3413409318378326e-14 -4.693358099219613e-15
0.0 -0.0 0.0
0.0 -0.0 0.0
8.408883256988272e-17 -2.682024599731391e-14 9.405365524960754e-15
0.0 -0.0 0.0
7.997936896566992e-17 -2.6815600881719663e-14 9.418636822766419e-15
-1.469578188856921e-16 5.3626313319795656e-14 -1.8851291491880338e-14
6.951032005259878e-17 -2.681109674314695e-14 9.431533634109409e-15
0.0 -0.0 0.0
-6.123351002653331e-17 2.6808016566188174e-14 -9.440342429729254e-15
-2.822292298380908e-17 1.3402890900046939e-14 -4.723357992428296e-15
0.0 -0.0 0.0
0.0 -0.0 0.0
0.0 -0.0 0.0
0.0 -0.0 0.0
-4.394717229506775e-17 2.679710714837111e-14 -9.471361257553284e-15
0.0 -0.0 0.0
-3.96365927986904e-17 2.67942395365222e-14 -9.479489624779293e-15
0.0 -0.0 0.0
0.0 -0.0 0.0
0.0 -0.0 0.0
0.0 -0.0 0.0
6.665427781849163e-17 -5.357789721024337e-14 1.8988911383254947e-14
-3.23307816025367e-17 2.6787794163755405e-14 -9.497715804715844e-15
0.0 -0.0 0.0
0.0 -0.0 0.0
-2.993471878631726e-17 2.6784457741926912e-14 -9.507128605938755e-15
2.935230464180442e-17 -2.6783392407031444e-14 9.510131258794416e-15
2.854149726841361e-17 -2.678233751326539e-14 9.513104101963096e-15
-2.8024913081236216e-17 2.678132212265804e-14 -9.515963793173544e-15
0.0 -0.0 0.0
0.0 -0.0 0.0
0.0 -0.0 0.0
-7.773349732674805e-17 8.033332026096369e-14 -2.8577853591018356e-14
-5.0195535392763655e-17 5.355380839509659e-14 -1.905679287222201e-14
0.0 -0.0 0.0
-2.418468627986208e-17 2.6775354181409528e-14 -9.532753563758003e-15
1.2031877210803729e-17 -1.338734007646811e-14 4.767323425938358e-15
0.0 -0.0 0.0
0.0 -0.0 0.0
0.0 -0.0 0.0
1.1425872515771079e-17 -1.3386286342071075e-14 4.770282921808485e-15

SCALARS Gamma float
LOOKUP_TABLE default
-0.0
-0.0
-0.0
52.15009967317459
56.18258939128917
56.13323688489634
53.70881308902555
48.78225666577372
45.53287202229173
48.420829680122374
55.41558558509266
56.0960878303121
52.53505785327836
47.793274985832134
46.80764243668428
46.037270774835314
42.46880203282724
40.23926352195011
35.57115817086879
36.019021281512856
35.447471673474304
36.94930653817327
38.433514236921475
36.1344377483065
38.16693308148676
39.45533026036371
39.51389240449674
39.571030832227756
39.826500659465864
40.05222285471538
40.40298775705541
40.66918761548429
38.600554135772605
38.88398051245384
39.17269860208248
39.45296556946289
39.678121885192496
42.034206967155114
41.920250701330076
41.50948783099826
40.74319459101621
39.481733690648774
37.373481392449484
34.671046100673024
31.943032064355144
29.23033284391317
26.328323816909034
23.516505971947744
20.689951030887055
18.07435045600217
-0.0
-0.0
-0.0
52.15009967317459
56.18258939128917
56.13323688489634
53.70881308902555
48.78225666577372
45.53287202229173
48.420829680122374
55.41558558509266
56.0960878303121
52.53505785327836
47.793274985832134
46.80764243668428
46.037270774835314
42.46880203282724
40.23926352195011
35.57115817086879
36.019021281512856
35.447471673474304
36.94930653817327
38.433514236921475
36.1344377483065
38.16693308148676
39.45533026036371
39.51389240449674
39.571030832227756
39.826500659465864
40.05222285471538
40.40298775705541
40.66918761548429
38.600554135772605
38.88398051245384
39.17269860208248
39.45296556946289
39.678121885192496
42.034206967155114
41.920250701330076
41.50948783099826
40.74319459101621
39.481733690648774
37.373481392449484
34.671046100673024
31.943032064355144
29.23033284391317
26.328323816909034
23.516505971947744
20.689951030887055
18.07435045600217

VECTORS Ftot float
118.4356811777881 -13.733716085321063 -37.73307482962044
142.47730676770075 -30.45640433508891 -83.67828318843684
145.62714827791945 -45.08593170890563 -123.87257930529165
1313.9563723266128 3.008384408029689 8.26546823010095
1342.1106319019652 78.58693078983534 215.91581780931628
1434.7011396108626 101.52543733940885 278.9388465902816
1512.8486554114943 98.1493232395961 269.6630493355437
1497.855928640981 95.58569328157522 262.61953391404387
1506.928909712304 102.00660801067644 280.26085214449313
1709.4439517132118 132.1900727059249 363.18923983559426
2086.2973218617467 173.63452203746078 477.05692853572054
2248.776944550291 193.11052201800723 530.5667987035707
2233.062302863416 197.15072928070754 541.6671769277565
2154.3013221301094 183.6670159543791 504.6209790332696
2231.542234128864 178.9282981904918 491.6014589798207
2308.7576561830742 178.6769715410104 490.91094468546333
2235.2811446216606 163.1901156589809 448.36115785123917
2212.707887031391 155.57882210954398 427.44930069132056
2040.311343548975 135.3087641464806 371.7577741467675
2146.6908902353366 138.40121827327113 380.25422203082377
2189.543912226707 138.09792219652047 379.4209229085421
2363.9922850828184 139.53163441675716 383.3600148596386
2537.69635648733 146.89973522068357 403.60370544269193
2457.8991285186835 139.42160088896648 383.05770022665075
2669.6682989149667 148.9704168670996 409.29285650909907
2836.3937363149485 149.98880252887162 412.090848119114
2913.078132359692 149.40487819677892 410.4865292020192
2986.8535957781614 149.8167372358388 411.6181026118345
3073.6936497230477 150.9305169572037 414.6781872465311
3156.5056522305945 151.98602008832856 417.57815826546033
3246.7538617174046 153.8869874360849 422.8010231285414
3329.375683368473 155.31885534094425 426.73504786478424
3215.0576454822967 149.23404739245595 410.0171754245946
3292.694838004712 149.92070413694788 411.90374932500237
3368.5232282689776 151.89852386163292 417.3377643583266
3441.6752535656715 154.3434368900428 424.055107696413
3508.7762374149634 155.19279865971026 426.3887099795224
3764.1512674796813 165.75365101866342 455.4044133659405
3798.573080278669 165.8091480154733 455.5568901115231
3802.9559121744624 164.6176270044032 452.2832130388022
3770.4862121547367 163.25770858301843 448.54686788374715
3688.6866858282706 157.86626233972805 433.7339910721035
3522.927756148446 147.89261668284374 406.331624840172
3294.3391800783015 137.22718463253833 377.0285911132302
3057.177013779022 126.53293689020323 347.64638692311087
2815.370296320398 117.11989232085 321.7842595204929
2550.754638214849 105.46212306621854 289.75480173218057
2290.200882252605 94.06938118338977 258.4535006634335
2023.9263314794812 82.97811725012448 227.98050345357564
1774.8856946968704 72.4164133618087 198.96246050946183
118.4356811777881 -13.733716085321063 -37.73307482962044
142.47730676770075 -30.45640433508891 -83.67828318843684
145.62714827791945 -45.08593170890563 -123.87257930529165
1313.9563723266128 3.008384408029689 8.26546823010095
1342.1106319019652 78.58693078983534 215.91581780931628
1434.7011396108626 101.52543733940885 278.9388465902816
1512.8486554114943 98.1493232395961 269.6630493355437
1497.855928640981 95.58569328157522 262.61953391404387
1506.928909712304 102.00660801067644 280.26085214449313
1709.4439517132118 132.1900727059249 363.18923983559426
2086.2973218617467 173.63452203746078 477.05692853572054
2248.776944550291 193.11052201800723 530.5667987035707
2233.062302863416 197.15072928070754 541.6671769277565
2154.3013221301094 183.6670159543791 504.6209790332696
2231.542234128864 178.9282981904918 491.6014589798207
2308.7576561830742 178.6769715410104 490.91094468546333
2235.2811446216606 163.1901156589809 448.36115785123917
2212.707887031391 155.57882210954398 427.44930069132056
2040.311343548975 135.3087641464806 371.7577741467675
2146.6908902353366 138.40121827327113 380.25422203082377
2189.543912226707 138.09792219652047 379.4209229085421
2363.9922850828184 139.53163441675716 383.3600148596386
2537.69635648733 146.89973522068357 403.60370544269193
2457.8991285186835 139.42160088896648 383.05770022665075
2669.6682989149667 148.9704168670996 409.29285650909907
2836.3937363149485 149.98880252887162 412.090848119114
2913.078132359692 149.40487819677892 410.4865292020192
2986.8535957781614 149.8167372358388 411.6181026118345
3073.6936497230477 150.9305169572037 414.6781872465311
3156.5056522305945 151.98602008832856 417.57815826546033
3246.7538617174046 153.8869874360849 422.8010231285414
3329.375683368473 155.31885534094425 426.73504786478424
3215.0576454822967 149.23404739245595 410.0171754245946
3292.694838004712 149.92070413694788 411.90374932500237
3368.5232282689776 151.89852386163292 417.3377643583266
3441.6752535656715 154.3434368900428 424.055107696413
3508.7762374149634 155.19279865971026 426.3887099795224
3764.1512674796813 165.75365101866342 455.4044133659405
3798.573080278669 165.8091480154733 455.5568901115231
3802.9559121744624 164.6176270044032 452.2832130388022
3770.4862121547367 163.25770858301843 448.54686788374715
3688.6866858282706 157.86626233972805 433.7339910721035
3522.927756148446 147.89261668284374 406.331624840172
3294.3391800783015 137.22718463253833 377.0285911132302
3057.177013779022 126.53293689020323 347.64638692311087
2815.370296320398 117.11989232085 321.7842595204929
2550.754638214849 105.46212306621854 289.75480173218057
2290.200882252605 94.06938118338977 258.4535006634335
2023.9263314794812 82.97811725012448 227.98050345357564
1774.8856946968704 72.4164133618087 198.96246050946183

VECTORS D float
94.00412860573014 9.916351788352287 30.307547743859175
62.42890292142789 12.74814843522905 36.882327842534224
14.454383977398253 4.295104038940786 12.360606597636925
553.7330342538133 214.93841497892782 616.8528580995127
540.8449895152273 258.095514134722 739.3730322115359
494.96826710175293 279.3080799383311 798.9643383081361
427.0806223801524 277.32905686448356 792.2494136975091
358.16137826168364 262.68727289631175 749.0001162533545
318.32226890627453 259.02360932106603 737.897428043284
333.75887035790123 297.583644472394 847.1059142215698
375.27034293704094 362.9315156609977 1032.4375677650596
371.12416588819366 386.06598959377334 1097.5838617709119
341.12290646029214 379.0174094426623 1076.9378375589095
298.31263018252145 351.9105701959734 999.3839573222245
278.38719756450934 346.894346051461 984.6409580402718
264.10325504054595 346.08527508821186 981.8729645932415
233.0959483521508 319.98185611485667 907.3991946950923
213.3136268560136 305.6709917983904 866.6392274141452
180.85416419317093 269.7338872660215 764.309975172716
178.0954464065214 275.702315015726 780.7978928215807
171.0907959080872 274.2280649778665 776.2239768306983
170.94915946711208 283.04594042118003 800.7932666357852
174.0764795584705 297.110447800958 840.1947120742233
160.31097928100561 281.4991744369143 795.6953726505401
166.28892752342887 299.85951231818086 847.2340883245403
166.21635055547304 307.27244501913736 867.8255444795316
162.72331377187848 307.88967735208456 869.2280642131738
159.99502496168134 309.3778514656952 873.0990920696483
158.50839764926297 312.42178424308696 881.5923494821917
156.9473850804376 315.19686348655387 889.1729120275186
156.3709123254494 319.4015682724566 900.6541374741914
155.44307206110153 322.72216311962734 909.6912836059037
146.47764186629286 308.76076480997807 870.0283562651306
145.65515058354603 311.3991273434237 877.1556247782434
145.52882861911584 315.25147858466244 887.7005762180409
145.69044597348127 319.4903142226309 899.3312366543621
145.1623059474164 321.9771111045052 906.029874077559
153.04018008471348 343.0590710170565 965.0400894600507
151.64048254129045 343.2718142765021 965.3336684354825
149.2504884760566 340.9437248815278 958.4940277140937
146.20894224638735 336.80947274336455 946.5936129708673
140.73160863153336 326.61444579810336 917.7415383034811
131.85045314116357 308.1880043138483 865.7292514656046
121.70494330546695 286.3295019377238 804.120108794984
111.65218785702274 264.23486362789015 741.8928581627348
102.27357655132617 243.3320845133932 683.0538926862823
91.76574765025009 219.37318990190363 615.6760639813971
81.64563252490478 196.00257457334317 549.987103730893
71.71184688908151 172.78594456474633 484.76397440743546
62.46578239248586 150.9782457384443 423.5229515582354
94.00412860573014 9.916351788352287 30.307547743859175
62.42890292142789 12.74814843522905 36.882327842534224
14.454383977398253 4.295104038940786 12.360606597636925
553.7330342538133 214.93841497892782 616.8528580995127
540.8449895152273 258.095514134722 739.3730322115359
494.96826710175293 279.3080799383311 798.9643383081361
427.0806223801524 277.32905686448356 792.2494136975091
358.16137826168364 262.68727289631175 749.0001162533545
318.32226890627453 259.02360932106603 737.897428043284
333.75887035790123 297.583644472394 847.1059142215698
375.27034293704094 362.9315156609977 1032.4375677650596
371.12416588819366 386.06598959377334 1097.5838617709119
341.12290646029214 379.0174094426623 1076.9378375589095
298.31263018252145 351.9105701959734 999.3839573222245
278.38719756450934 346.894346051461 984.6409580402718
264.10325504054595 346.08527508821186 981.8729645932415
233.0959483521508 319.98185611485667 907.3991946950923
213.3136268560136 305.6709917983904 866.6392274141452
180.85416419317093 269.7338872660215 764.309975172716
178.0954464065214 275.702315015726 780.7978928215807
171.0907959080872 274.2280649778665 776.2239768306983
170.94915946711208 283.04594042118003 800.7932666357852
174.0764795584705 297.110447800958 840.1947120742233
160.31097928100561 281.4991744369143 795.6953726505401
166.28892752342887 299.85951231818086 847.2340883245403
166.21635055547304 307.27244501913736 867.8255444795316
162.72331377187848 307.88967735208456 869.2280642131738
159.99502496168134 309.3778514656952 873.0990920696483
158.50839764926297 312.42178424308696 881.5923494821917
156.9473850804376 315.19686348655387 889.1729120275186
156.3709123254494 319.4015682724566 900.6541374741914
155.44307206110153 322.72216311962734 909.6912836059037
146.47764186629286 308.76076480997807 870.0283562651306
145.65515058354603 311.3991273434237 877.1556247782434
145.52882861911584 315.25147858466244 887.7005762180409
145.69044597348127 319.4903142226309 899.3312366543621
145.1623059474164 321.9771111045052 906.029874077559
153.04018008471348 343.0590710170565 965.0400894600507
151.64048254129045 343.2718142765021 965.3336684354825
149.2504884760566 340.9437248815278 958.4940277140937
146.20894224638735 336.80947274336455 946.5936129708673
140.73160863153336 326.61444579810336 917.7415383034811
131.85045314116357 308.1880043138483 865.7292514656046
121.70494330546695 286.3295019377238 804.120108794984
111.65218785702274 264.23486362789015 741.8928581627348
102.27357655132617 243.3320845133932 683.0538926862823
91.76574765025009 219.37318990190363 615.6760639813971
81.64563252490478 196.00257457334317 549.987103730893
71.71184688908151 172.78594456474633 484.76397440743546
62.46578239248586 150.9782457384443 423.5229515582354

VECTORS L float
24.43155257205792 -23.65006787367336 -68.04062257347962
80.04840384627286 -43.20455277031796 -120.56061103097109
131.17276430052124 -49.38103574784645 -136.23318590292862
760.2233380727995 -211.9300305708982 -608.5873898694119
801.2656423867383 -179.50858334488666 -523.4572144022196
939.7328725091097 -177.78264259892237 -520.0254917178548
1085.768033031342 -179.1797336248875 -522.5863643619655
1139.6945503792974 -167.10157961473664 -486.38058233931076
1188.6066408060296 -157.0170013103896 -457.636575898791
1375.6850813553106 -165.39357176646917 -483.9166743859757
1711.0269789247059 -189.296993623537 -555.3806392293392
1877.6527786620977 -192.9554675757661 -567.0170630673409
1891.9393964031242 -181.8666801619548 -535.2706606311532
1855.9886919475882 -168.24355424159435 -494.7629782889552
1953.1550365643552 -167.96604786096913 -493.03949906045096
2044.654401142528 -167.40830354720143 -490.9620199077779
2002.1851962695098 -156.7917404558758 -459.0380368438533
1999.3942601753772 -150.09216968884644 -439.1899267228246
1859.457179355804 -134.42512311954084 -392.5522010259486
1968.595443828815 -137.3010967424549 -400.54367079075706
2018.4531163186202 -136.1301427813461 -396.80305392215655
2193.0431256157062 -143.5143060044228 -417.4332517761464
2363.61987692886 -150.21071258027447 -436.59100663153157
2297.5881492376784 -142.07757354794782 -412.63767242388946
2503.3793713915375 -150.88909545108123 -437.94123181544137
2670.1773857594753 -157.2836424902658 -455.7346963604179
2750.354818587814 -158.48479915530567 -458.74153501115455
2826.85857081648 -159.5611142298564 -461.4809894578137
2915.1852520737853 -161.49126728588328 -466.91416223566085
2999.558267150157 -163.2108433982253 -471.59475376205853
3090.3829493919548 -165.51458083637178 -477.85311434565006
3173.932611307372 -167.40330777868306 -482.95623574111966
3068.5800036160035 -159.52671741752212 -460.0111808405361
3147.039687421166 -161.47842320647578 -465.2518754532409
3222.994399649862 -163.35295472302957 -470.36281185971444
3295.9848075921905 -165.14687733258796 -475.2761289579488
3363.6139314675474 -166.78431244479498 -479.64116409803677
3611.111087394968 -177.30541999839315 -509.6356760941104
3646.9325977373787 -177.46266626102872 -509.7767783239593
3653.705423698407 -176.32609787712462 -506.21081467529154
3624.2772699083494 -173.5517641603461 -498.04674508712003
3547.955077196736 -168.74818345837517 -484.0075472313774
3391.077303007283 -160.29538763100453 -459.39762662543274
3172.6342367728353 -149.10231730518555 -427.09151768175417
2945.5248259219998 -137.7019267376869 -394.2464712396239
2713.096719769073 -126.21219219254318 -361.2696331657893
2458.9888905645994 -113.91106683568509 -325.92126224921645
2208.5552497277 -101.93319338995337 -291.5336030674594
1952.2144845903997 -89.80782731462189 -256.78347095385993
1712.4199123043845 -78.56183237663555 -224.56049104877349
24.43155257205792 -23.65006787367336 -68.04062257347962
80.04840384627286 -43.20455277031796 -120.56061103097109
131.17276430052124 -49.38103574784645 -136.23318590292862
760.2233380727995 -211.9300305708982 -608.5873898694119
801.2656423867383 -179.50858334488666 -523.4572144022196
939.7328725091097 -177.78264259892237 -520.0254917178548
1085.768033031342 -179.1797336248875 -522.5863643619655
1139.6945503792974 -167.10157961473664 -486.38058233931076
1188.6066408060296 -157.0170013103896 -457.636575898791
1375.6850813553106 -165.39357176646917 -483.9166743859757
1711.0269789247059 -189.296993623537 -555.3806392293392
1877.6527786620977 -192.9554675757661 -567.0170630673409
1891.9393964031242 -181.8666801619548 -535.2706606311532