# vtk DataFile Version 4.0
[MyVLM domain - lattices] 
ASCII
DATASET UNSTRUCTURED_GRID
POINTS 152 float
0.0 0.6988332456712784 -2.1355223700758312
0.0 -0.2868970128931647 -4.148741034866141
0.0 -1.2831666428711916 -6.108444234296408
0.0 -2.2528002496322284 -8.036095192463822
0.0 -3.195499948531347 -9.931865893148323
0.0 -4.143235920240535 -11.777298343932895
0.0 -5.122490695293344 -13.55710284868517
0.0 -6.140099919446307 -15.267332845487529
0.0 -7.154378048900607 -16.93205549427354
0.0 -8.148256625955138 -18.561125273691584
0.0 -9.121950600652827 -20.15441808227651
0.0 -10.075774550337416 -21.711752298714234
0.0 -11.010074427584687 -23.232928187191998
0.0 -11.927697351141806 -24.716301962934715
0.0 -12.826743848159511 -26.162970287103224
0.0 -13.703050217292613 -27.57533707378999
0.0 -14.555996667719862 -28.953760159392505
0.0 -15.386604559690005 -30.29764986129622
0.0 -16.195609727841397 -31.6065813451746
0.0 -16.98301195998679 -32.880554733534005
0.0 -17.74881104960565 -34.119570145609124
0.0 -18.493006795844156 -35.323627697362966
0.0 -19.215599003515226 -36.49272750148684
0.0 -19.916587483098485 -37.626869667400385
0.0 -20.595972050740293 -38.726054301251565
0.0 -21.253752528253724 -39.79028150591663
0.0 -21.88992874311857 -40.819551381000174
0.0 -22.504500528481366 -41.813864022835105
0.0 -23.097466340077194 -42.77322032300317
0.0 -23.668807025064815 -43.697631339402434
0.0 -24.218518690018975 -44.58709931990299
0.0 -24.746604075412264 -45.44162268229227
0.0 -25.253065814013098 -46.26119990654071
0.0 -25.737906430885747 -47.04582953480177
0.0 -26.2011283433903 -47.79551017141196
0.0 -26.642733861182702 -48.51024048289081
0.0 -27.063090640283956 -49.1898082029356
0.0 -27.46336127424267 -49.8335421078481
0.0 -27.845390637760396 -50.440377058722746
0.0 -28.210138458447133 -51.009758956565555
0.0 -28.556932281070736 -51.54207604358583
0.0 -28.885992140256725 -52.03720128273328
0.0 -29.20751693991453 -52.48924633409036
0.0 -29.521275155017715 -52.89834486869343
0.0 -29.81954475133383 -53.26895520508525
0.0 -30.09706338055301 -53.604115561479105
0.0 -30.352498560125394 -53.904595247033875
0.0 -30.587124157873582 -54.169658793819224
0.0 -30.79982350667215 -54.39995090990063
0.0 -30.988384358194256 -54.596748837445126
0.0 -31.150891631798704 -54.76115824877642
-0.7686761955390344 -2.1182827586738937 -0.5090596866287527
-0.8409029948616161 -3.3647750168465795 -2.3717273407508195
-0.8940476007249757 -4.557178181488366 -4.218192791145852
-0.9506443374492793 -5.736079632327904 -6.025022903201813
-1.0210144815146838 -6.900229930614588 -7.792939040717699
-1.048631451549771 -8.023198243794273 -9.537201051983551
-0.9920275022819518 -9.08697042365623 -11.26820941031806
-0.9074715353829097 -10.074165446745532 -12.99599905429171
-0.8388231939293685 -11.019527719182577 -14.700510291678068
-0.7803448823218929 -11.94070466968078 -16.371554374758926
-0.7251531968841737 -12.839626739828173 -18.008016762563788
-0.671766762046156 -13.719020482395324 -19.608323279116604
-0.6188683613166902 -14.575223309643125 -21.17458852043448
-0.5668565661826578 -15.407032402231508 -22.707506934587187
-0.5162677046190278 -16.215172966511243 -24.206659823492895
-0.4681223452427161 -17.0045214643407 -25.669231760584978
-0.42442582165628834 -17.775639086826533 -27.09489874202694
-0.3846819074085718 -18.527500764922475 -28.48425259170859
-0.3476243488905531 -19.259456239817165 -29.837668736729704
-0.3131098246080671 -19.971552498941854 -31.155120048884203
-0.28048746260446866 -20.6638693231933 -32.43656046664986
-0.2502235469699514 -21.336396513586017 -33.681995878413694
-0.2227998260917326 -21.98913447149143 -34.89142605244381
-0.19746739264611052 -22.622161197624465 -36.06480595500644
-0.17533279734900953 -23.235445601629337 -37.202153536126886
-0.15613374469432648 -23.8290383948769 -38.30343951758151
-0.13998404755873647 -24.402966671856785 -39.368648256359435
-0.12578653595324127 -24.957301973374346 -40.397738448357444
-0.11250427274737486 -25.4920970331718 -41.39067964773527
-0.10008179164308317 -26.00736221811428 -42.34746586918054
-0.08845752889585208 -26.503105062623032 -43.268092762693094
-0.07764231497362577 -26.97932950839715 -44.15255805253193
-0.06766212708627829 -27.436039350348597 -45.000859547703584
-0.0584684819534103 -27.87324023030859 -45.81299399089529
-0.050013688763705585 -28.290937246865273 -46.588958438435824
-0.042252254921319045 -28.68913496019692 -47.328750257505014
-0.03513536582041269 -29.067552243718005 -48.03253175661269
-0.028615518964613278 -29.42528437794724 -48.70082527579493
-0.022687693716904638 -29.759899362003825 -49.335034931414924
-0.017408965386693863 -30.070139263245043 -49.93588699122257
-0.013252482528008399 -30.358051436200427 -50.502199414529116
-0.010166684094042405 -30.62353127818775 -51.03403259372129
-0.00760098697125575 -30.854492635659916 -51.538364472803
-0.005464879873870877 -31.0508960510901 -52.015217832587965
-0.0039015967321000085 -31.221849892284137 -52.4593339544716
-0.002883995165670249 -31.373382866071456 -52.86723216294308
-0.0022477517166190047 -31.506562323094435 -53.238296222821695
-0.00179874084072329 -31.619100814682476 -53.57384679321319
-0.0014595970466816986 -31.71191244768311 -53.87335611428308
-0.0012027506489664258 -31.787414001100288 -54.135428858022856
-0.0010073243559101815 -31.847697595743384 -54.358857137920026
-0.603592196400244 -2.004654636722914 -1.865828060885086
-0.6506064733449719 -3.1669904063461494 -3.7533682081065702
-0.6917594768153456 -4.301967541744029 -5.609273313725403
-0.7393720571114861 -5.419653610873881 -7.427730864671334
-0.7761172248991705 -6.513627548999806 -9.21244806439812
-0.7652471076868961 -7.574529077235673 -10.968829072440363
-0.712312139124323 -8.593249778243116 -12.70213263600025
-0.6548605234921042 -9.571944683266404 -14.411114547208802
-0.607188028594223 -10.522916480180728 -16.088671845909513
-0.564561779702275 -11.451400181891852 -17.73178209599203
-0.5238449845988737 -12.359208352207592 -19.339398813253993
-0.48398817126106725 -13.24607254425468 -20.911676985569937
-0.4446468478122555 -14.110567364293797 -22.449439564398965
-0.4061716015506322 -14.952632163191197 -23.952721565534777
-0.369146268698154 -15.773609669750996 -25.420747764140852
-0.3347055625871267 -16.57494106731427 -26.852686092627277
-0.3034153983993225 -17.35650259783211 -28.248608002736912
-0.27461484611217185 -18.117885662718788 -29.608749398973213
-0.24777531506198255 -18.858955988013154 -30.93318780444379
-0.22259898270470088 -19.579761059499738 -32.22189580321817
-0.19901662859040753 -20.28032691947347 -33.474858359770344
-0.1773837648981315 -20.960649844323964 -34.692077623927794
-0.15760020702669117 -21.620759186745175 -35.87353664890475
-0.13980007124817 -22.260672491450023 -37.01922530525649
-0.124299953266251 -22.880397071064092 -38.12913937103667
-0.11104417209489861 -23.47996205894667 -39.20326202609245
-0.09966396881699166 -24.059404400911667 -40.24157193974824
-0.08935905326273105 -24.618770486024623 -41.24404232926455
-0.07971977414642176 -25.158081389875026 -42.210661026644125
-0.07070224520210072 -25.67734094466196 -43.14142581936579
-0.06228744145105419 -26.17655330981147 -44.036334305983786
-0.05448916577246402 -26.655722058207825 -44.895384423692434
-0.04729897838988322 -27.1148513733588 -45.71857375714238
-0.04068081401891846 -27.5539459007247 -46.505899624275884
-0.03459972888188424 -27.973009853219946 -47.25735959276566
-0.029020357778149403 -28.371985764151432 -47.97298684102244
-0.023906581794384738 -28.750620222440297 -48.652927676000814
-0.019238704755569217 -29.108037891482034 -49.29768747352505
-0.015036247163849435 -29.443205621494272 -49.9078627229001
-0.011498042968013347 -29.756455354731784 -50.48326177717581
-0.00878218748326905 -30.048459070561503 -51.023496668883794
-0.006662876649486808 -30.315947602714285 -51.530454852049566
-0.004899700066922485 -30.55561976939779 -52.00604226486959
-0.0035124287272390825 -30.769882217059287 -52.448869429369665
-0.0025445969616638467 -30.9627883008692 -52.85659613985106
-0.0019244050808584702 -31.136174688522008 -53.22816199572593
-0.0015174347090033604 -31.28957651641621 -53.56383538611971
-0.0012218767077768707 -31.422498431455313 -53.863902303276085
-0.0009983803858680466 -31.53577340140207 -54.127881833032944
-0.0008287781268287279 -31.630576347565498 -54.35509563425627

CELLS 100 350
4 0 51 52 1
4 1 52 53 2
4 2 53 54 3
4 3 54 55 4
4 4 55 56 5
4 5 56 57 6
4 6 57 58 7
4 7 58 59 8
4 8 59 60 9
4 9 60 61 10
4 10 61 62 11
4 11 62 63 12
4 12 63 64 13
4 13 64 65 14
4 14 65 66 15
4 15 66 67 16
4 16 67 68 17
4 17 68 69 18
4 18 69 70 19
4 19 70 71 20
4 20 71 72 21
4 21 72 73 22
4 22 73 74 23
4 23 74 75 24
4 24 75 76 25
4 25 76 77 26
4 26 77 78 27
4 27 78 79 28
4 28 79 80 29
4 29 80 81 30
4 30 81 82 31
4 31 82 83 32
4 32 83 84 33
4 33 84 85 34
4 34 85 86 35
4 35 86 87 36
4 36 87 88 37
4 37 88 89 38
4 38 89 90 39
4 39 90 91 40
4 40 91 92 41
4 41 92 93 42
4 42 93 94 43
4 43 94 95 44
4 44 95 96 45
4 45 96 97 46
4 46 97 98 47
4 47 98 99 48
4 48 99 100 49
4 49 100 101 50
1 102
1 103
1 104
1 105
1 106
1 107
1 108
1 109
1 110
1 111
1 112
1 113
1 114
1 115
1 116
1 117
1 118
1 119
1 120
1 121
1 122
1 123
1 124
1 125
1 126
1 127
1 128
1 129
1 130
1 131
1 132
1 133
1 134
1 135
1 136
1 137
1 138
1 139
1 140
1 141
1 142
1 143
1 144
1 145
1 146
1 147
1 148
1 149
1 150
1 151

CELL_TYPES 100
9
9
9
9
9
9
9
9
9
9
9
9
9
9
9
9
9
9
9
9
9
9
9
9
9
9
9
9
9
9
9
9
9
9
9
9
9
9
9
9
9
9
9
9
9
9
9
9
9
9
1
1
1
1
1
1
1
1
1
1
1
1
1
1
1
1
1
1
1
1
1
1
1
1
1
1
1
1
1
1
1
1
1
1
1
1
1
1
1
1
1
1
1
1
1
1
1
1
1
1

CELL_DATA 100

VECTORS S float
-2.864868068028944e-17 -4.5025869951434214e-15 -5.496634200891067e-15
-4.008473087375836e-17 -4.518279950787511e-15 -5.4836700698352695e-15
1.0223861839802465e-16 9.04827233629618e-15 1.0957495458803728e-14
-2.4519945076713997e-19 1.1216125111160343e-15 1.3774719364361877e-15
3.75662382793538e-17 -8.964527378136601e-15 -1.102652390379488e-14
0.0 -0.0 -0.0
0.0 -0.0 -0.0
0.0 -0.0 -0.0
0.0 -0.0 -0.0
-1.6525829795661168e-16 3.5975390309529454e-14 4.401043341705731e-14
8.619490942185866e-17 -1.7996169082395503e-14 -2.199827347183724e-14
0.0 -0.0 -0.0
0.0 -0.0 -0.0
0.0 -0.0 -0.0
1.4932955180185133e-16 -3.604347940080852e-14 -4.395474446693684e-14
1.4206345352282488e-16 -3.6050221530376234e-14 -4.394923905338106e-14
6.571199223230795e-17 -1.802964084039477e-14 -2.1970919417419972e-14
-6.215286636919994e-17 1.803350426703577e-14 2.1967758825568004e-14
1.1542281581972868e-16 -3.607447542911594e-14 -4.392941119424392e-14
0.0 -0.0 -0.0
-5.285214073622568e-17 1.8045469524758767e-14 2.1957955351729318e-14
9.778031767084516e-17 -3.6097076116565295e-14 -4.391088478531982e-14
-9.537621498673956e-17 3.609883185476646e-14 4.3909446704373055e-14
9.225986076098608e-17 -3.610431668965734e-14 -4.3904943597233863e-14
-8.968955491286098e-17 3.610951672962165e-14 4.3900672262759e-14
4.1829021221843715e-17 -1.805751778306714e-14 -2.1948072097419258e-14
4.012749922727426e-17 -1.806002492310147e-14 -2.194601231447471e-14
-1.1644076510220752e-16 5.418729534645567e-14 6.583210134198249e-14
3.7501164853239096e-17 -1.8064805089645964e-14 -2.194208234607764e-14
0.0 -0.0 -0.0
7.073785404295483e-17 -3.613885183388738e-14 -4.387656153425887e-14
-3.4326904315081267e-17 1.8072236021883235e-14 2.1935967582472908e-14
0.0 -0.0 -0.0
3.2698495657762256e-17 -1.807682473381714e-14 -2.1932188794043212e-14
6.403851607983922e-17 -3.615822247812644e-14 -4.3860610051343725e-14
0.0 -0.0 -0.0
-6.135976872702375e-17 3.6167303139299575e-14 4.385312630125768e-14
3.024132892655935e-17 -1.8085858064229196e-14 -2.1924743795285197e-14
-5.925479246146044e-17 3.617608850530058e-14 4.3845882099822037e-14
2.904200976915908e-17 -1.809017339766495e-14 -2.1921184957716135e-14
2.87614556330638e-17 -1.8092201619437993e-14 -2.1919511406201355e-14
2.803457494520246e-17 -1.809420397407984e-14 -2.1917859465589177e-14
2.7200113548460018e-17 -1.8096132867767076e-14 -2.1916267983675028e-14
2.6715221961766207e-17 -1.8097924107813842e-14 -2.191478944071885e-14
0.0 -0.0 -0.0
0.0 -0.0 -0.0
0.0 -0.0 -0.0
-2.5452383235868248e-17 1.810380018321027e-14 2.1909936970445617e-14
0.0 -0.0 -0.0
-1.24831114295904e-17 9.052946099005184e-15 1.095410438315314e-14
-2.864868068028944e-17 -4.5025869951434214e-15 -5.496634200891067e-15
-4.008473087375836e-17 -4.518279950787511e-15 -5.4836700698352695e-15
1.0223861839802465e-16 9.04827233629618e-15 1.0957495458803728e-14
-2.4519945076713997e-19 1.1216125111160343e-15 1.3774719364361877e-15
3.75662382793538e-17 -8.964527378136601e-15 -1.102652390379488e-14
0.0 -0.0 -0.0
0.0 -0.0 -0.0
0.0 -0.0 -0.0
0.0 -0.0 -0.0
-1.6525829795661168e-16 3.5975390309529454e-14 4.401043341705731e-14
8.619490942185866e-17 -1.7996169082395503e-14 -2.199827347183724e-14
0.0 -0.0 -0.0
0.0 -0.0 -0.0
0.0 -0.0 -0.0
1.4932955180185133e-16 -3.604347940080852e-14 -4.395474446693684e-14
1.4206345352282488e-16 -3.6050221530376234e-14 -4.394923905338106e-14
6.571199223230795e-17 -1.802964084039477e-14 -2.1970919417419972e-14
-6.215286636919994e-17 1.803350426703577e-14 2.1967758825568004e-14
1.1542281581972868e-16 -3.607447542911594e-14 -4.392941119424392e-14
0.0 -0.0 -0.0
-5.285214073622568e-17 1.8045469524758767e-14 2.1957955351729318e-14
9.778031767084516e-17 -3.6097076116565295e-14 -4.391088478531982e-14
-9.537621498673956e-17 3.609883185476646e-14 4.3909446704373055e-14
9.225986076098608e-17 -3.610431668965734e-14 -4.3904943597233863e-14
-8.968955491286098e-17 3.610951672962165e-14 4.3900672262759e-14
4.1829021221843715e-17 -1.805751778306714e-14 -2.1948072097419258e-14
4.012749922727426e-17 -1.806002492310147e-14 -2.194601231447471e-14
-1.1644076510220752e-16 5.418729534645567e-14 6.583210134198249e-14
3.7501164853239096e-17 -1.8064805089645964e-14 -2.194208234607764e-14
0.0 -0.0 -0.0
7.073785404295483e-17 -3.613885183388738e-14 -4.387656153425887e-14
-3.4326904315081267e-17 1.8072236021883235e-14 2.1935967582472908e-14
0.0 -0.0 -0.0
3.2698495657762256e-17 -1.807682473381714e-14 -2.1932188794043212e-14
6.403851607983922e-17 -3.615822247812644e-14 -4.3860610051343725e-14
0.0 -0.0 -0.0
-6.135976872702375e-17 3.6167303139299575e-14 4.385312630125768e-14
3.024132892655935e-17 -1.8085858064229196e-14 -2.1924743795285197e-14
-5.925479246146044e-17 3.617608850530058e-14 4.3845882099822037e-14
2.904200976915908e-17 -1.809017339766495e-14 -2.1921184957716135e-14
2.87614556330638e-17 -1.8092201619437993e-14 -2.1919511406201355e-14
2.803457494520246e-17 -1.809420397407984e-14 -2.1917859465589177e-14
2.7200113548460018e-17 -1.8096132867767076e-14 -2.1916267983675028e-14
2.6715221961766207e-17 -1.8097924107813842e-14 -2.191478944071885e-14
0.0 -0.0 -0.0
0.0 -0.0 -0.0
0.0 -0.0 -0.0
-2.5452383235868248e-17 1.810380018321027e-14 2.1909936970445617e-14
0.0 -0.0 -0.0
-1.24831114295904e-17 9.052946099005184e-15 1.095410438315314e-14

SCALARS Gamma float
LOOKUP_TABLE default
-0.0
-0.0
-0.0
51.39981442258793
55.17320621888372
55.17755649744221
52.91892371022383
48.17467095044613
45.075902493694585
47.79937340700607
54.50220744213397
55.14447035292546
51.291288443181
46.33591747697806
45.31393643305918
44.549256154742295
40.95524298066043
38.77164205092633
34.041252892735514
34.38120221228804
34.024081830112216
35.60523194771857
37.13047173003967
35.02568047968717
37.11217251077352
38.3853690982994
38.49224334253566
38.59930564269062
38.80877784034318
39.07293842552306
39.404426288151235
39.68788278433028
37.693384866038606
38.000588296959826
38.31232955462026
38.61474059801527
38.861826002437375
41.20013006575802
41.116627945453956
40.7379870277904
40.00444214955305
38.76274022218153
36.7062383450905
34.06366050064397
31.38214043063321
28.731357863331823
25.881125863381673
23.130472972757484
20.351268260314082
17.77908889393552
-0.0
-0.0
-0.0
51.39981442258793
55.17320621888372
55.17755649744221
52.91892371022383
48.17467095044613
45.075902493694585
47.79937340700607
54.50220744213397
55.14447035292546
51.291288443181
46.33591747697806
45.31393643305918
44.549256154742295
40.95524298066043
38.77164205092633
34.041252892735514
34.38120221228804
34.024081830112216
35.60523194771857
37.13047173003967
35.02568047968717
37.11217251077352
38.3853690982994
38.49224334253566
38.59930564269062
38.80877784034318
39.07293842552306
39.404426288151235
39.68788278433028
37.693384866038606
38.000588296959826
38.31232955462026
38.61474059801527
38.861826002437375
41.20013006575802
41.116627945453956
40.7379870277904
40.00444214955305
38.76274022218153
36.7062383450905
34.06366050064397
31.38214043063321
28.731357863331823
25.881125863381673
23.130472972757484
20.351268260314082
17.77908889393552

VECTORS Ftot float
116.129772707077 30.34534692548787 -25.462769413123354
139.86964257418333 67.49651087895576 -56.63629738428475
143.21910431139958 100.18279642873247 -84.0633475336575
1280.9771597133247 -9.177705938834405 7.7010096683294424
1311.4174279168979 -171.1632422374306 143.62301343253472
1404.4948862409838 -222.4509246252119 186.65848880805925
1485.116270321668 -216.783774872777 181.90318554096476
1473.8696083688724 -211.96062898818258 177.85608560808737
1487.3702091365928 -226.98803984956848 190.46558051942563
1684.6642062228273 -291.9059320372309 244.93815991089937
2049.2154406908116 -381.84573906484064 320.406618815922
2207.5663714802677 -426.10007727636577 357.54041768720714
2178.585773044558 -429.4578773342029 360.35794647730535
2088.080080564161 -395.6347872583665 331.9770040693952
2159.880696471278 -384.45857901903867 322.59905185781486
2234.301611983531 -383.5483194263065 321.83525336927767
2155.723926078614 -348.7801909093395 292.6613295539666
2132.957001234882 -331.72695801047956 278.351968118153
1953.2745294311435 -286.5882182407589 240.4760682255734
2049.9660847581677 -291.61563447634734 244.69457133463027
2102.324392350603 -292.8303563633514 245.71384402199834
2278.510248714776 -297.6408762753146 249.75034950589762
2452.6652673073427 -313.7550383726856 263.2717369785325
2383.4475762400975 -298.6485967285748 250.59592736655802
2596.8995017823127 -320.14842816130937 268.63642799213926
2760.6673965814593 -321.56936461644176 269.8287352475671
2838.8575840672484 -321.0121075128227 269.3611410174495
2914.5597551223136 -322.47687311713304 270.59022529578743
2996.2886130344496 -324.0143148548194 271.88029209083663
3080.4257448614435 -326.74921394537546 274.1751449090293
3168.2584016945516 -330.57633245250764 277.38647863683565
3250.5811478289443 -333.8528197063127 280.1357778830605
3140.843567920475 -321.4434065738743 269.72304390050505
3219.3485185120517 -322.445821234099 270.56416967218627
3295.9453803076863 -327.1353070840656 274.49911551930427
3369.945687261016 -332.67648835923757 279.1487186835875
3437.9241419669816 -334.92724588480894 281.0373284931639
3690.729100610779 -358.667872919637 300.95807988200534
3726.988353613408 -359.10715688410244 301.3266828945704
3733.4702129741795 -356.80452898784205 299.3945486760798
3703.206313731772 -354.4975293367025 297.45874611968253
3622.694143107399 -341.8817228028463 286.8728275101199
3461.118733184294 -320.4321927837894 268.8745347822034
3237.6218907993525 -297.4670449826381 249.60448773232568
3004.4035263875717 -274.30046865931337 230.16542208378374
2768.143601964398 -254.06499001636408 213.18583941778934
2508.1769141870022 -228.79685401315766 191.9833558169616
2253.2674090807377 -204.22710886171456 171.36689172226602
1991.375357273651 -180.17656806253603 151.1860918080613
1746.397157287701 -157.24647533655474 131.94545945882965
116.129772707077 30.34534692548787 -25.462769413123354
139.86964257418333 67.49651087895576 -56.63629738428475
143.21910431139958 100.18279642873247 -84.0633475336575
1280.9771597133247 -9.177705938834405 7.7010096683294424
1311.4174279168979 -171.1632422374306 143.62301343253472
1404.4948862409838 -222.4509246252119 186.65848880805925
1485.116270321668 -216.783774872777 181.90318554096476
1473.8696083688724 -211.96062898818258 177.85608560808737
1487.3702091365928 -226.98803984956848 190.46558051942563
1684.6642062228273 -291.9059320372309 244.93815991089937
2049.2154406908116 -381.84573906484064 320.406618815922
2207.5663714802677 -426.10007727636577 357.54041768720714
2178.585773044558 -429.4578773342029 360.35794647730535
2088.080080564161 -395.6347872583665 331.9770040693952
2159.880696471278 -384.45857901903867 322.59905185781486
2234.301611983531 -383.5483194263065 321.83525336927767
2155.723926078614 -348.7801909093395 292.6613295539666
2132.957001234882 -331.72695801047956 278.351968118153
1953.2745294311435 -286.5882182407589 240.4760682255734
2049.9660847581677 -291.61563447634734 244.69457133463027
2102.324392350603 -292.8303563633514 245.71384402199834
2278.510248714776 -297.6408762753146 249.75034950589762
2452.6652673073427 -313.7550383726856 263.2717369785325
2383.4475762400975 -298.6485967285748 250.59592736655802
2596.8995017823127 -320.14842816130937 268.63642799213926
2760.6673965814593 -321.56936461644176 269.8287352475671
2838.8575840672484 -321.0121075128227 269.3611410174495
2914.5597551223136 -322.47687311713304 270.59022529578743
2996.2886130344496 -324.0143148548194 271.88029209083663
3080.4257448614435 -326.74921394537546 274.1751449090293
3168.2584016945516 -330.57633245250764 277.38647863683565
3250.5811478289443 -333.8528197063127 280.1357778830605
3140.843567920475 -321.4434065738743 269.72304390050505
3219.3485185120517 -322.445821234099 270.56416967218627
3295.9453803076863 -327.1353070840656 274.49911551930427
3369.945687261016 -332.67648835923757 279.1487186835875
3437.9241419669816 -334.92724588480894 281.0373284931639
3690.729100610779 -358.667872919637 300.95807988200534
3726.988353613408 -359.10715688410244 301.3266828945704
3733.4702129741795 -356.80452898784205 299.3945486760798
3703.206313731772 -354.4975293367025 297.45874611968253
3622.694143107399 -341.8817228028463 286.8728275101199
3461.118733184294 -320.4321927837894 268.8745347822034
3237.6218907993525 -297.4670449826381 249.60448773232568
3004.4035263875717 -274.30046865931337 230.16542208378374
2768.143601964398 -254.06499001636408 213.18583941778934
2508.1769141870022 -228.79685401315766 191.9833558169616
2253.2674090807377 -204.22710886171456 171.36689172226602
1991.375357273651 -180.17656806253603 151.1860918080613
1746.397157287701 -157.24647533655474 131.94545945882965

VECTORS D float
91.91635973626984 -24.49472257047395 19.58586526253298
60.39165974798485 -29.581051633635187 23.93190826949018
12.97631096380832 -9.19704714721009 7.473487667026621
535.767153876238 -494.60178006105446 402.8270193178739
522.4536046372425 -591.4536011488674 482.6297628726578
479.0198431987778 -640.1613395728443 523.0142442319056
414.3632301594146 -636.568178209977 520.7556036624342
348.8793561232681 -603.4864803312818 494.03730418867514
310.9565154224882 -596.3346783609798 488.46119507410964
325.02958774651074 -682.3206493024519 558.9689444373728
364.06430999456717 -828.3864675437725 679.106178256911
360.3879481608628 -881.4803418262449 723.0595419934733
328.1559954975203 -856.8114661304622 703.1824466247292
284.0599445356851 -787.7413613127292 646.7415323568958
264.47175381757165 -774.4346907038746 635.9453253367179
250.74679647245935 -771.7507646678893 633.8541596714682
220.39238657043697 -710.3024826832111 583.543220473882
201.38709668412187 -677.3516924371007 556.6130581753091
169.50879408900767 -593.2010526219988 487.57726082302906
166.21756425056182 -603.5842731642226 496.2210411210514
160.8572569665071 -603.7635926321096 496.57169744297306
161.48852261738256 -625.8406660812021 514.8338201323295
164.65050120813612 -657.8225075274219 541.1666421373421
152.13713623539556 -624.9319019104768 514.2194385707804
158.35401339818472 -667.5455840575825 549.3982185952268
158.21242888914628 -683.2776583642325 562.4601688447037
155.20283412657986 -685.5754838696585 564.4641973881246
152.89532973707813 -689.7380974555043 568.0032155354094
151.06192812372538 -694.950051890041 572.4070320494326
149.7990598884234 -701.8228774307184 578.1803598117697
149.07862820767463 -710.3961822238826 585.3568961856222
148.27903602828036 -717.8790506451057 591.6661551358093
139.92103763495564 -687.4415265811457 566.6919493853478
139.1237204482876 -692.9165088493953 571.3191482927217
139.16359217438216 -701.9527535989599 578.8856022289181
139.444738345509 -711.6887814123028 587.0322504878715
139.09096932981825 -717.6642493383488 592.0789972737564
146.8947592812243 -765.6228089383636 631.7696514614411
145.68513963625307 -766.4477779171109 632.5728634718656
143.50605927883066 -761.530505024565 628.633288504353
140.75007142544084 -752.8746564868891 621.601823314629
135.27924013092044 -728.9266355521806 601.9355924117496
126.81397818822603 -687.9112620288354 568.1616488166969
117.11881946725931 -639.2179597318616 528.0291197932327
107.4581610373919 -589.7552453168425 487.24308342595765
98.49803408439394 -543.2888001393026 448.91562403473097
88.39483297617915 -489.7425974849543 404.72196298681104
78.70414069689144 -437.77273907877566 361.81543619150074
69.14019644533776 -385.89443727340523 318.9706205625056
60.231501916104335 -337.1541745846324 278.70744511204373
91.91635973626984 -24.49472257047395 19.58586526253298
60.39165974798485 -29.581051633635187 23.93190826949018
12.97631096380832 -9.19704714721009 7.473487667026621
535.767153876238 -494.60178006105446 402.8270193178739
522.4536046372425 -591.4536011488674 482.6297628726578
479.0198431987778 -640.1613395728443 523.0142442319056
414.3632301594146 -636.568178209977 520.7556036624342
348.8793561232681 -603.4864803312818 494.03730418867514
310.9565154224882 -596.3346783609798 488.46119507410964
325.02958774651074 -682.3206493024519 558.9689444373728
364.06430999456717 -828.3864675437725 679.106178256911
360.3879481608628 -881.4803418262449 723.0595419934733
328.1559954975203 -856.8114661304622 703.1824466247292
284.0599445356851 -787.7413613127292 646.7415323568958
264.47175381757165 -774.4346907038746 635.9453253367179
250.74679647245935 -771.7507646678893 633.8541596714682
220.39238657043697 -710.3024826832111 583.543220473882
201.38709668412187 -677.3516924371007 556.6130581753091
169.50879408900767 -593.2010526219988 487.57726082302906
166.21756425056182 -603.5842731642226 496.2210411210514
160.8572569665071 -603.7635926321096 496.57169744297306
161.48852261738256 -625.8406660812021 514.8338201323295
164.65050120813612 -657.8225075274219 541.1666421373421
152.13713623539556 -624.9319019104768 514.2194385707804
158.35401339818472 -667.5455840575825 549.3982185952268
158.21242888914628 -683.2776583642325 562.4601688447037
155.20283412657986 -685.5754838696585 564.4641973881246
152.89532973707813 -689.7380974555043 568.0032155354094
151.06192812372538 -694.950051890041 572.4070320494326
149.7990598884234 -701.8228774307184 578.1803598117697
149.07862820767463 -710.3961822238826 585.3568961856222
148.27903602828036 -717.8790506451057 591.6661551358093
139.92103763495564 -687.4415265811457 566.6919493853478
139.1237204482876 -692.9165088493953 571.3191482927217
139.16359217438216 -701.9527535989599 578.8856022289181
139.444738345509 -711.6887814123028 587.0322504878715
139.09096932981825 -717.6642493383488 592.0789972737564
146.8947592812243 -765.6228089383636 631.7696514614411
145.68513963625307 -766.4477779171109 632.5728634718656
143.50605927883066 -761.530505024565 628.633288504353
140.75007142544084 -752.8746564868891 621.601823314629
135.27924013092044 -728.9266355521806 601.9355924117496
126.81397818822603 -687.9112620288354 568.1616488166969
117.11881946725931 -639.2179597318616 528.0291197932327
107.4581610373919 -589.7552453168425 487.24308342595765
98.49803408439394 -543.2888001393026 448.91562403473097
88.39483297617915 -489.7425974849543 404.72196298681104
78.70414069689144 -437.77273907877566 361.81543619150074
69.14019644533776 -385.89443727340523 318.9706205625056
60.231501916104335 -337.1541745846324 278.70744511204373

VECTORS L float
24.21341297080715 54.84006949596183 -45.048634675656324
79.47798282619848 97.07756251259097 -80.56820565377494
130.24279334759123 109.37984357594253 -91.53683520068414
745.2100058370868 485.42407412222 -395.12600964954447
788.9638232796557 420.2903589114368 -339.00674944012326
925.475043042206 417.7104149476324 -336.35575542384635
1070.7530401622535 419.7844033371997 -338.8524181214693
1124.9902522456043 391.5258513430993 -316.1812185805878
1176.4136937141047 369.3466385114113 -297.99561455468415
1359.6346184763165 390.414717265221 -314.0307845264734
1685.1511306962448 446.540728478932 -358.69955944098905
1847.1784233194053 455.38026454987937 -365.5191243062665
1850.4297775470382 427.3535887962595 -342.8245001474241
1804.0201360284761 392.1065740543628 -314.7645282875008
1895.4089426537068 389.97611168483604 -313.3462734789031
1983.5548155110716 388.2024452415827 -312.01890630219043
1935.3315395081772 361.52229177387164 -290.8818909199154
1931.5699045507602 345.6247344266211 -278.2610900571561
1783.7657353421355 306.61283438124 -247.1011925974559
1883.7485205076061 311.96863868787534 -251.52646978642113
1941.467135384096 310.9332362687583 -250.85785342097464
2117.021726097393 328.19978980588735 -265.0834706264319
2288.0147660992066 344.0674691547363 -277.8949051588097
2231.310440004702 326.28330518190205 -263.6235112042225
2438.545488384128 347.39715589627326 -280.7617906030876
2602.454967692313 361.7082937477907 -292.6314335971366
2683.6547499406684 364.56337635683576 -295.1030563706751
2761.6644253852355 367.2612243383713 -297.4129902396219
2845.2266849107245 370.93573703522145 -300.5267399585959
2930.6266849730205 375.0736634853431 -304.0052149027404
3019.1797734868774 379.8198497713753 -307.9704175487867
3102.302111800665 384.0262309387932 -311.5303772527488
3000.9225302855198 365.9981200072712 -296.9689054848427
3080.224798063764 370.47068761529647 -300.75497862053555
3156.781788133304 374.8174465148941 -304.3864867096135
3230.5009489155063 379.012293053065 -307.88353180428373
3298.833172637164 382.73700345353996 -311.04166878059243