# vtk DataFile Version 4.0
[MyVLM domain - lattices] 
ASCII
DATASET UNSTRUCTURED_GRID
POINTS 152 float
0.0 0.31738683046912886 -2.224430106385588
0.0 -1.0029597229297615 -4.035893192909115
0.0 -2.324392667971855 -5.792823691600291
0.0 -3.6140284375550085 -7.522814191486317
0.0 -4.871603537241368 -9.226085790652814
0.0 -6.125397252075302 -10.878909351449092
0.0 -7.39883475557517 -12.461628819415639
0.0 -8.697962531393806 -13.969170592349434
0.0 -9.985907551273685 -15.432474814661768
0.0 -11.24757187799795 -16.864210159902825
0.0 -12.483145646042113 -18.264217086304345
0.0 -13.692907115403 -19.632262106005612
0.0 -14.877162299099515 -20.96808844359533
0.0 -16.03842962151694 -22.269582890100665
0.0 -17.175028900278786 -23.538155285934035
0.0 -18.283277125320502 -24.776896043482225
0.0 -19.362626059474415 -25.986265188350426
0.0 -20.41397914892068 -27.165504639182096
0.0 -21.437987277609473 -28.31406823949468
0.0 -22.43465025785016 -29.431956146779346
0.0 -23.403967906964592 -30.51916851432124
0.0 -24.34594004728715 -31.575705491199525
0.0 -25.260566506164707 -32.60156722228737
0.0 -26.147847115956665 -33.59675384825196
0.0 -27.00778171403492 -34.561265505554445
0.0 -27.840370142783886 -35.495102326450024
0.0 -28.64561224960048 -36.398264438987894
0.0 -29.423507886894143 -37.27075196701123
0.0 -30.174055688682373 -38.112566056715444
0.0 -30.89723871328246 -38.92372092386026
0.0 -31.59305351675758 -39.704219458251785
0.0 -32.26150252319805 -40.45405962583673
0.0 -32.90258806142426 -41.17323947250275
0.0 -33.51631236498669 -41.861757124078494
0.0 -34.10267757216587 -42.51961078633354
0.0 -34.66168572597241 -43.146798744978426
0.0 -35.193662037249624 -43.7430481157145
0.0 -35.69963488036574 -44.307495989988645
0.0 -36.18123614280032 -44.838773051618666
0.0 -36.639314753463864 -45.33616696466884
0.0 -37.07327589078238 -45.80017684370254
0.0 -37.483314186808705 -46.23063937303599
0.0 -37.87845110168892 -46.619984648787955
0.0 -38.25848183951384 -46.96838451513028
0.0 -38.61657585999274 -47.281570475901674
0.0 -38.948078342767104 -47.56344838914816
0.0 -39.25181063782458 -47.81500725966037
0.0 -39.52889954740732 -48.03530158809252
0.0 -39.778357321453406 -48.22516019515727
0.0 -39.998227111433685 -48.38622507173369
0.0 -40.1868149290692 -48.51991764276188
-0.7686761955390344 -2.1744985707209357 -0.13348998531095635
-0.8409029948616161 -3.7255026543765366 -1.7514084232678153
-0.8940476007249757 -5.220425896218116 -3.3627632779017054
-0.9506443374492793 -6.695169941354499 -4.937429492043155
-1.0210144815146838 -8.148629596326302 -6.47633443311631
-1.048631451549771 -9.557425417162678 -7.99909578393424
-0.9920275022819518 -10.905622954280451 -9.5190841352652
-0.9074715353829097 -12.177847789821692 -11.049200155463343
-0.8388231939293685 -13.404833155307887 -12.563655601294109
-0.7803448823218929 -14.60218911788277 -14.04935207117453
-0.7251531968841737 -15.771623253380499 -15.50485673885196
-0.671766762046156 -16.915547339318973 -16.928145882700655
-0.6188683613166902 -18.03072162664149 -18.32193797495919
-0.5668565661826578 -19.116082159178287 -19.68712578085721
-0.5162677046190278 -20.17227041960723 -21.02317103251631
-0.4681223452427161 -21.20359989168106 -22.32645428731047
-0.42442582165628834 -22.210566978076766 -23.59655901393651
-0.3846819074085718 -23.19226495199018 -24.834246046521404
-0.3476243488905531 -24.148118625734128 -26.039998024841303
-0.3131098246080671 -25.078169562131652 -27.213780073546726
-0.28048746260446866 -25.98248833152903 -28.35553297708613
-0.2502235469699514 -26.861065912393954 -29.46526430542396
-0.2227998260917326 -27.713902659760294 -30.542973760651428
-0.19746739264611052 -28.54106756931105 -31.58860344851636
-0.17533279734900953 -29.342533140011984 -32.60217644512646
-0.15613374469432648 -30.118344228704096 -33.58365511112297
-0.13998404755873647 -30.868524801870507 -34.533019336238766
-0.12578653595324127 -31.593138141068728 -35.450216020942264
-0.11250427274737486 -32.29223089203227 -36.33520602481568
-0.10008179164308317 -32.9658122247917 -37.18798165328977
-0.08845752889585208 -33.613888803933875 -38.00853731411212
-0.07764231497362577 -34.236464116096336 -38.796870081646475
-0.06766212708627829 -34.8335415180758 -39.55297713920596
-0.0584684819534103 -35.40512600036495 -40.27685429926998
-0.050013688763705585 -35.95122207292979 -40.968497777527745
-0.042252254921319045 -36.471833769484796 -41.627904189290916
-0.03513536582041269 -36.96671241896593 -42.255282194357605
-0.028615518964613278 -37.4350577500091 -42.85130330013428
-0.022687693716904638 -37.87471853153927 -43.41777260382259
-0.017408965386693863 -38.28458205680839 -43.955623777244405
-0.013252482528008399 -38.66645931721878 -44.463337218182
-0.010166684094042405 -39.02025778626589 -44.94099056559119
-0.00760098697125575 -39.33528663349257 -45.397554491365554
-0.005464879873870877 -39.6115109566673 -45.83305828195469
-0.0039015967321000085 -39.856987580120006 -46.24074145903491
-0.002883995165670249 -40.07704920811743 -46.6161293524228
-0.0022477517166190047 -40.27263996773125 -46.95842974544074
-0.00179874084072329 -40.44173649182302 -47.26934044470831
-0.0014595970466816986 -40.58514735536982 -47.5481829752605
-0.0012027506489664258 -40.705010324906105 -47.79316353798669
-0.0010073243559101815 -40.80317598993348 -48.00272930391863
-0.603592196400244 -2.2981970709691315 -1.4893773156288768
-0.6506064733449719 -3.7706422553356975 -3.1464039985022456
-0.6917594768153456 -5.2106510772805885 -4.7770270241151485
-0.7393720571114861 -6.627128823479846 -6.373773969702192
-0.7761172248991705 -8.01439572872295 -7.941410724156696
-0.7652471076868961 -9.364172140247483 -9.486884741057883
-0.712312139124323 -10.668401189909426 -11.016956535493838
-0.6548605234921042 -11.928989114757028 -12.530026584660444
-0.607188028594223 -13.156818281105448 -14.016963498996313
-0.564561779702275 -14.356519329728734 -15.47388170953583
-0.5238449845988737 -15.52969556744294 -16.899435882120976
-0.48398817126106725 -16.67610953904799 -18.29382526532256
-0.4446468478122555 -17.794500409759472 -19.658107825143148
-0.4061716015506322 -18.884814532269033 -20.992328577019407
-0.369146268698154 -19.94823961993302 -22.295490911112072
-0.3347055625871267 -20.986050474258548 -23.566525141946695
-0.3034153983993225 -21.998137624824494 -24.805523126113282
-0.27461484611217185 -22.984139644962884 -26.012788136595617
-0.24777531506198255 -23.943937762382124 -27.18841983517976
-0.22259898270470088 -24.8775739807246 -28.332382976624896
-0.19901662859040753 -25.785071335752587 -29.444658231631383
-0.1773837648981315 -26.66642653373933 -30.525248363964142
-0.15760020702669117 -27.521665538666927 -31.57413158725534
-0.13980007124817 -28.35080386974509 -32.59129487934186
-0.124299953266251 -29.15384799537088 -33.576732812594095
-0.11104417209489861 -29.930823685513523 -34.530423763440396
-0.09966396881699166 -30.68176362066404 -35.45234030969277
-0.08935905326273105 -31.40670883435994 -36.34244802012506
-0.07971977414642176 -32.10567796905459 -37.200731251861505
-0.07070224520210072 -32.77867441452709 -38.02718716053971
-0.06228744145105419 -33.42570185000578 -38.821812658920535
-0.05448916577246402 -34.04676343589234 -39.584605095112096
-0.04729897838988322 -34.64186287271664 -40.31556136400113
-0.04068081401891846 -35.21100426962959 -41.01467801760065
-0.03459972888188424 -35.75419135317275 -41.68195192897099
-0.029020357778149403 -36.271373291071775 -42.317425751454806
-0.023906581794384738 -36.76232592806756 -42.92128757364735
-0.019238704755569217 -37.2262749834764 -43.494187094184745
-0.015036247163849435 -37.6623065826634 -44.036891144936064
-0.011498042968013347 -38.07071434579097 -44.54915334933133
-0.00878218748326905 -38.45209267350563 -45.03047494600727
-0.006662876649486808 -38.80354981847162 -45.483282399086775
-0.004899700066922485 -39.1221657139603 -45.91002593548487
-0.0035124287272390825 -39.41006916373357 -46.308919276750096
-0.0025445969616638467 -39.67084557093403 -46.67695391242787
-0.0019244050808584702 -39.90611956351721 -47.01276661779989
-0.0015174347090033604 -40.11547994548684 -47.316702427275004
-0.0012218767077768707 -40.298488551304914 -47.58912900539453
-0.0009983803858680466 -40.45588218421435 -47.82942810082906
-0.0008287781268287279 -40.5887001231277 -48.03672765502644

CELLS 100 350
4 0 51 52 1
4 1 52 53 2
4 2 53 54 3
4 3 54 55 4
4 4 55 56 5
4 5 56 57 6
4 6 57 58 7
4 7 58 59 8
4 8 59 60 9
4 9 60 61 10
4 10 61 62 11
4 11 62 63 12
4 12 63 64 13
4 13 64 65 14
4 14 65 66 15
4 15 66 67 16
4 16 67 68 17
4 17 68 69 18
4 18 69 70 19
4 19 70 71 20
4 20 71 72 21
4 21 72 73 22
4 22 73 74 23
4 23 74 75 24
4 24 75 76 25
4 25 76 77 26
4 26 77 78 27
4 27 78 79 28
4 28 79 80 29
4 29 80 81 30
4 30 81 82 31
4 31 82 83 32
4 32 83 84 33
4 33 84 85 34
4 34 85 86 35
4 35 86 87 36
4 36 87 88 37
4 37 88 89 38
4 38 89 90 39
4 39 90 91 40
4 40 91 92 41
4 41 92 93 42
4 42 93 94 43
4 43 94 95 44
4 44 95 96 45
4 45 96 97 46
4 46 97 98 47
4 47 98 99 48
4 48 99 100 49
4 49 100 101 50
1 102
1 103
1 104
1 105
1 106
1 107
1 108
1 109
1 110
1 111
1 112
1 113
1 114
1 115
1 116
1 117
1 118
1 119
1 120
1 121
1 122
1 123
1 124
1 125
1 126
1 127
1 128
1 129
1 130
1 131
1 132
1 133
1 134
1 135
1 136
1 137
1 138
1 139
1 140
1 141
1 142
1 143
1 144
1 145
1 146
1 147
1 148
1 149
1 150
1 151

CELL_TYPES 100
9
9
9
9
9
9
9
9
9
9
9
9
9
9
9
9
9
9
9
9
9
9
9
9
9
9
9
9
9
9
9
9
9
9
9
9
9
9
9
9
9
9
9
9
9
9
9
9
9
9
1
1
1
1
1
1
1
1
1
1
1
1
1
1
1
1
1
1
1
1
1
1
1
1
1
1
1
1
1
1
1
1
1
1
1
1
1
1
1
1
1
1
1
1
1
1
1
1
1
1

CELL_DATA 100

VECTORS S float
1.00359765315828e-17 2.7012564621869917e-15 2.3075717298069557e-15
-0.0 -0.0 -0.0
-5.3089792780042137e-17 -1.084615334627453e-14 -9.181858787826103e-15
-0.0 -0.0 -0.0
0.0 -0.0 -0.0
-4.0760811667706266e-17 2.1644771145515248e-14 1.8419983375693332e-14
0.0 -0.0 -0.0
0.0 -0.0 -0.0
2.869561237317878e-17 -2.1675402140851922e-14 -1.8383951847752936e-14
3.2579897749262886e-17 -2.167905435523035e-14 -1.837963840121853e-14
-6.863516260899242e-17 4.336422345938747e-14 3.6752056823585095e-14
0.0 -0.0 -0.0
-6.913131701666464e-17 4.337375175908569e-14 3.674081037467034e-14
6.647706043454385e-17 -4.337790871565029e-14 -3.6735907284867904e-14
0.0 -0.0 -0.0
-5.801396348540268e-17 4.3384499108571505e-14 3.6728138249354034e-14
5.410880029126953e-17 -4.33868200639827e-14 -3.672540244515482e-14
0.0 -0.0 -0.0
2.4110879628961468e-17 -2.169494052120502e-14 -1.8360897074848384e-14
-7.020883555291522e-17 6.508607442421341e-14 5.508121357851519e-14
0.0 -0.0 -0.0
2.111278881751537e-17 -2.1696011067975346e-14 -1.8359635751690603e-14
0.0 -0.0 -0.0
0.0 -0.0 -0.0
0.0 -0.0 -0.0
-1.873359705582227e-17 2.1697425421422535e-14 1.8357966828613257e-14
-3.6179651269512596e-17 4.3395253608465184e-14 3.671545891140526e-14
-1.760886863916098e-17 2.1697920349657046e-14 1.8357382966370782e-14
-3.405778699793338e-17 4.339751126548259e-14 3.671279237288715e-14
1.652789582561809e-17 -2.169944493709884e-14 -1.835558179946337e-14
-1.607379263882312e-17 2.170017314818629e-14 1.8354721297754458e-14
1.5637620040153818e-17 -2.1700943891210258e-14 -1.8353810412056124e-14
0.0 -0.0 -0.0
1.507357412476162e-17 -2.1701839549219915e-14 -1.8352751834904582e-14
1.471584910131571e-17 -2.1702737411624365e-14 -1.8351690364437315e-14
0.0 -0.0 -0.0
-2.803797186534033e-17 4.3409195390372515e-14 3.669898141935085e-14
0.0 -0.0 -0.0
1.338916946175023e-17 -2.1706484482717817e-14 -1.8347259170731408e-14
-2.616225919851908e-17 4.341483514131726e-14 3.669231081539703e-14
1.2867637180693229e-17 -2.1708323278988067e-14 -1.834508385876647e-14
0.0 -0.0 -0.0
1.216767452151748e-17 -2.171008168377114e-14 -1.834300335762924e-14
2.382013242193108e-17 -4.3421796394417084e-14 -3.6684074177609325e-14
2.3363896088462518e-17 -4.342333009958199e-14 -3.668225899500139e-14
1.154336100648461e-17 -2.171265377979665e-14 -1.8339959093079107e-14
0.0 -0.0 -0.0
-1.115389975364563e-17 2.1713901812636704e-14 1.8338481687642762e-14
5.52227550789814e-18 -1.0857181427456875e-14 -9.168967918601185e-15
5.4533167074783796e-18 -1.0857402008482026e-14 -9.168706758541601e-15
1.00359765315828e-17 2.7012564621869917e-15 2.3075717298069557e-15
-0.0 -0.0 -0.0
-5.3089792780042137e-17 -1.084615334627453e-14 -9.181858787826103e-15
-0.0 -0.0 -0.0
0.0 -0.0 -0.0
-4.0760811667706266e-17 2.1644771145515248e-14 1.8419983375693332e-14
0.0 -0.0 -0.0
0.0 -0.0 -0.0
2.869561237317878e-17 -2.1675402140851922e-14 -1.8383951847752936e-14
3.2579897749262886e-17 -2.167905435523035e-14 -1.837963840121853e-14
-6.863516260899242e-17 4.336422345938747e-14 3.6752056823585095e-14
0.0 -0.0 -0.0
-6.913131701666464e-17 4.337375175908569e-14 3.674081037467034e-14
6.647706043454385e-17 -4.337790871565029e-14 -3.6735907284867904e-14
0.0 -0.0 -0.0
-5.801396348540268e-17 4.3384499108571505e-14 3.6728138249354034e-14
5.410880029126953e-17 -4.33868200639827e-14 -3.672540244515482e-14
0.0 -0.0 -0.0
2.4110879628961468e-17 -2.169494052120502e-14 -1.8360897074848384e-14
-7.020883555291522e-17 6.508607442421341e-14 5.508121357851519e-14
0.0 -0.0 -0.0
2.111278881751537e-17 -2.1696011067975346e-14 -1.8359635751690603e-14
0.0 -0.0 -0.0
0.0 -0.0 -0.0
0.0 -0.0 -0.0
-1.873359705582227e-17 2.1697425421422535e-14 1.8357966828613257e-14
-3.6179651269512596e-17 4.3395253608465184e-14 3.671545891140526e-14
-1.760886863916098e-17 2.1697920349657046e-14 1.8357382966370782e-14
-3.405778699793338e-17 4.339751126548259e-14 3.671279237288715e-14
1.652789582561809e-17 -2.169944493709884e-14 -1.835558179946337e-14
-1.607379263882312e-17 2.170017314818629e-14 1.8354721297754458e-14
1.5637620040153818e-17 -2.1700943891210258e-14 -1.8353810412056124e-14
0.0 -0.0 -0.0
1.507357412476162e-17 -2.1701839549219915e-14 -1.8352751834904582e-14
1.471584910131571e-17 -2.1702737411624365e-14 -1.8351690364437315e-14
0.0 -0.0 -0.0
-2.803797186534033e-17 4.3409195390372515e-14 3.669898141935085e-14
0.0 -0.0 -0.0
1.338916946175023e-17 -2.1706484482717817e-14 -1.8347259170731408e-14
-2.616225919851908e-17 4.341483514131726e-14 3.669231081539703e-14
1.2867637180693229e-17 -2.1708323278988067e-14 -1.834508385876647e-14
0.0 -0.0 -0.0
1.216767452151748e-17 -2.171008168377114e-14 -1.834300335762924e-14
2.382013242193108e-17 -4.3421796394417084e-14 -3.6684074177609325e-14
2.3363896088462518e-17 -4.342333009958199e-14 -3.668225899500139e-14
1.154336100648461e-17 -2.171265377979665e-14 -1.8339959093079107e-14
0.0 -0.0 -0.0
-1.115389975364563e-17 2.1713901812636704e-14 1.8338481687642762e-14
5.52227550789814e-18 -1.0857181427456875e-14 -9.168967918601185e-15
5.4533167074783796e-18 -1.0857402008482026e-14 -9.168706758541601e-15

SCALARS Gamma float
LOOKUP_TABLE default
-0.0
-0.0
-0.0
55.85495447480682
62.17849382445715
61.3819787797545
57.90573751679227
52.31374068491956
47.97985763754523
51.64749984295233
59.86014720540205
60.58351810365405
57.91656077763663
53.246825297619964
52.088143890235536
51.14606884328101
47.48547879094282
44.94988814693835
40.21019508795669
40.6675552278337
39.77751334064711
40.84468176828753
41.89738804793784
39.107811236850765
40.968996370113565
42.297856901850174
42.245979203185314
42.20041209299296
42.25467418017781
42.37863933959334
42.57529163297988
42.75086648899968
40.4993694775113
40.704391623599605
40.9195318771877
41.130762432158086
41.28966612144766
43.6457531704017
43.45287104399237
42.962508424016036
42.11736931272684
40.7534432437465
38.542428737103734
35.72609936575079
32.90925723922648
30.081012471854606
27.08587119441641
24.166575161209757
21.261492037260062
18.570166004640576
-0.0
-0.0
-0.0
55.85495447480682
62.17849382445715
61.3819787797545
57.90573751679227
52.31374068491956
47.97985763754523
51.64749984295233
59.86014720540205
60.58351810365405
57.91656077763663
53.246825297619964
52.088143890235536
51.14606884328101
47.48547879094282
44.94988814693835
40.21019508795669
40.6675552278337
39.77751334064711
40.84468176828753
41.89738804793784
39.107811236850765
40.968996370113565
42.297856901850174
42.245979203185314
42.20041209299296
42.25467418017781
42.37863933959334
42.57529163297988
42.75086648899968
40.4993694775113
40.704391623599605
40.9195318771877
41.130762432158086
41.28966612144766
43.6457531704017
43.45287104399237
42.962508424016036
42.11736931272684
40.7534432437465
38.542428737103734
35.72609936575079
32.90925723922648
30.081012471854606
27.08587119441641
24.166575161209757
21.261492037260062
18.570166004640576

VECTORS Ftot float
132.0926075534836 27.16529587563105 -32.37433895366799
157.22556752747047 59.72306904553397 -71.17518209576717
159.10485118296606 87.65936755405623 -104.46836620708287
1494.1568678853614 6.744281515920031 -8.037521726064423
1527.87919073578 -173.1966086378434 206.4076805692833
1607.4541820005722 -213.20845627887473 254.0919437418146
1666.327778159732 -198.49188058550072 236.55341178855141
1634.5361454412102 -190.5227266087664 227.05614390684187
1611.9413092380905 -197.89482290056563 235.84186614754404
1841.9021564339107 -266.7709284897096 317.9252124273046
2270.630147825399 -358.12268172252425 426.7939925322912
2445.891619923443 -393.3985257798171 468.8341064193629
2473.817166848231 -414.8501456823485 494.39915150517027
2406.700874208722 -397.7478467418121 474.0174253011659
2488.61070284174 -388.14476382400994 462.57291673389506
2569.845334284816 -385.84408569065647 459.8310753030681
2502.9986144057707 -355.6476116148399 423.84431883953573
2475.1927201394274 -339.7247485854653 404.8681896198931
2309.462893466292 -298.2103183458817 355.39321823736765
2425.9764845826257 -305.70224495784413 364.32174869262604
2458.760099022529 -303.05549534458123 361.1674753323226
2615.438912605043 -299.8586488884422 357.3576220832468
2768.1819442865317 -311.59825070227225 371.34833472050434
2661.6162002082374 -293.7673800159873 350.0983305210415
2866.8659320775396 -311.21502042273255 370.89161865807193
3041.191998831335 -315.20472313755437 375.6463612018438
3114.8953354423556 -312.5868464189003 372.52649721741903
3185.5726713235804 -312.4044646204186 372.30914305385465
3260.988979189963 -312.7707745695519 372.7456942517373
3339.6781659505587 -313.8281224742293 374.0057924157585
3421.8387012563153 -315.86358325131994 376.4315601094409
3500.2207593209246 -317.7183574137268 378.64199388094016
3373.6791010073666 -303.58429362922504 361.7976725878045
3446.9371749719767 -305.4206240576489 363.9861259730688
3518.82443828689 -308.3107504699801 367.43044450801585
3588.0550040529342 -312.4352527535753 372.3458349221535
3651.3307717802522 -313.1263901620965 373.1695004117348
3908.7002762288093 -332.4348617531627 396.1804407978912
3937.655638426103 -331.7356820932021 395.3471909262644
3936.2541136097275 -328.637755087663 391.6552252878185
3897.937559239122 -324.6501115287557 386.9029367505056
3807.4792386519384 -314.43796172557995 374.73257053446065
3633.1027387296476 -294.20246734397824 350.61684740726685
3394.5625831244042 -272.6371055049769 324.91624996004293
3149.615166475366 -251.25073790310785 299.42896953797504
2897.3778865470676 -232.1661826335005 276.6848822323578
2624.192107566182 -208.9548263209428 249.02266495788277
2353.5413938870065 -186.11297588088757 221.80080763444735
2079.7352196818906 -164.14220520367516 195.61706274781594
1823.4811379098721 -143.20880822111005 170.66961168864313
132.0926075534836 27.16529587563105 -32.37433895366799
157.22556752747047 59.72306904553397 -71.17518209576717
159.10485118296606 87.65936755405623 -104.46836620708287
1494.1568678853614 6.744281515920031 -8.037521726064423
1527.87919073578 -173.1966086378434 206.4076805692833
1607.4541820005722 -213.20845627887473 254.0919437418146
1666.327778159732 -198.49188058550072 236.55341178855141
1634.5361454412102 -190.5227266087664 227.05614390684187
1611.9413092380905 -197.89482290056563 235.84186614754404
1841.9021564339107 -266.7709284897096 317.9252124273046
2270.630147825399 -358.12268172252425 426.7939925322912
2445.891619923443 -393.3985257798171 468.8341064193629
2473.817166848231 -414.8501456823485 494.39915150517027
2406.700874208722 -397.7478467418121 474.0174253011659
2488.61070284174 -388.14476382400994 462.57291673389506
2569.845334284816 -385.84408569065647 459.8310753030681
2502.9986144057707 -355.6476116148399 423.84431883953573
2475.1927201394274 -339.7247485854653 404.8681896198931
2309.462893466292 -298.2103183458817 355.39321823736765
2425.9764845826257 -305.70224495784413 364.32174869262604
2458.760099022529 -303.05549534458123 361.1674753323226
2615.438912605043 -299.8586488884422 357.3576220832468
2768.1819442865317 -311.59825070227225 371.34833472050434
2661.6162002082374 -293.7673800159873 350.0983305210415
2866.8659320775396 -311.21502042273255 370.89161865807193
3041.191998831335 -315.20472313755437 375.6463612018438
3114.8953354423556 -312.5868464189003 372.52649721741903
3185.5726713235804 -312.4044646204186 372.30914305385465
3260.988979189963 -312.7707745695519 372.7456942517373
3339.6781659505587 -313.8281224742293 374.0057924157585
3421.8387012563153 -315.86358325131994 376.4315601094409
3500.2207593209246 -317.7183574137268 378.64199388094016
3373.6791010073666 -303.58429362922504 361.7976725878045
3446.9371749719767 -305.4206240576489 363.9861259730688
3518.82443828689 -308.3107504699801 367.43044450801585
3588.0550040529342 -312.4352527535753 372.3458349221535
3651.3307717802522 -313.1263901620965 373.1695004117348
3908.7002762288093 -332.4348617531627 396.1804407978912
3937.655638426103 -331.7356820932021 395.3471909262644
3936.2541136097275 -328.637755087663 391.6552252878185
3897.937559239122 -324.6501115287557 386.9029367505056
3807.4792386519384 -314.43796172557995 374.73257053446065
3633.1027387296476 -294.20246734397824 350.61684740726685
3394.5625831244042 -272.6371055049769 324.91624996004293
3149.615166475366 -251.25073790310785 299.42896953797504
2897.3778865470676 -232.1661826335005 276.6848822323578
2624.192107566182 -208.9548263209428 249.02266495788277
2353.5413938870065 -186.11297588088757 221.80080763444735
2079.7352196818906 -164.14220520367516 195.61706274781594
1823.4811379098721 -143.20880822111005 170.66961168864313

VECTORS D float
107.55815066093014 -22.585228565161565 25.970609174005116
75.8328790009967 -29.189215610465787 34.00722693407695
24.334973578618825 -13.546725503372546 15.86148587233405
658.5780215177477 -477.6497607189934 560.7283644368908
657.2999102142451 -585.0162486154684 687.9786128978265
588.9717281641172 -620.1712491247479 730.0479837439933
498.4063694047722 -603.558192182992 711.2419304250683
414.1789882404033 -565.5121473063591 666.9482046437332
359.1050381576559 -544.427479002718 642.4619353174605
381.86612899076687 -635.0201100336259 749.6924771167552
434.5531908615384 -784.6621619455185 926.6444902151325
426.78409576416203 -829.2740787874371 979.5439122733495
401.115532023653 -833.3682781979159 984.573777730189
356.4834470850627 -787.1953027224133 930.1685048789504
332.09908747472196 -775.4322859702021 916.3804057861273
313.5725667344378 -770.720448242445 910.8959446850578
278.40920666478644 -717.4864246731516 848.0375086513416
254.5361371222719 -685.3878554280127 810.1376539228213
217.75123979931914 -610.7347223371178 721.9202632222012
214.1454163252163 -623.8619134201914 737.452121851251
204.11933109708121 -616.0925346915184 728.2756845661044
200.0828846944613 -624.2255484581625 737.8920202545056
200.72337185531688 -645.9006759454159 763.5129647314708
183.4342941097209 -607.3257691564195 717.9982135320028
188.54035166861357 -641.1666602087545 757.9915316072119
188.68327905238073 -657.9008735673921 777.7707623473646
183.95086186689016 -656.5553631428568 776.1864515538629
180.23711268419333 -657.4791424873798 777.2951004526608
177.19226820163976 -659.6655315728995 779.9427737226556
174.77909059157514 -663.1225013832168 784.0818718336085
173.0095926620019 -668.1007129848397 790.0246392893333
171.35701933065852 -672.6950651966324 795.5185955334257
160.75928204882865 -640.9408249950728 757.9651226229622
159.6417447207429 -645.6385373775822 763.5885039311124
158.9398494955329 -651.3985384048716 770.4723697582795
158.6440722377452 -658.2721418973861 778.6771630424445
157.5689194313987 -661.3644452350594 782.4118062645618
165.36555020978793 -701.5311878459481 830.0124924639493
163.41726237329536 -700.1550369768242 828.4666568236579
160.45645203145503 -693.7899930379111 821.0160495283791
156.71482838817053 -683.3625133783694 808.7545971953713
150.70278383218658 -662.2792498135288 783.8765107614066
140.97249717874172 -623.954319335507 738.5821330912538
129.93469586227656 -578.8581279241688 685.2607131893158
119.11311512615013 -533.7948753835537 631.965823829138
108.91307311915502 -490.7132839520007 581.0233713410721
97.65397166715537 -442.0778503623448 523.4737744663549
86.7511981246364 -394.3702330989787 467.0116250287089
76.18545464622619 -347.5555985603623 411.5942972286261
66.33260418213118 -303.5514176678485 359.4990647391361
107.55815066093014 -22.585228565161565 25.970609174005116
75.8328790009967 -29.189215610465787 34.00722693407695
24.334973578618825 -13.546725503372546 15.86148587233405
658.5780215177477 -477.6497607189934 560.7283644368908
657.2999102142451 -585.0162486154684 687.9786128978265
588.9717281641172 -620.1712491247479 730.0479837439933
498.4063694047722 -603.558192182992 711.2419304250683
414.1789882404033 -565.5121473063591 666.9482046437332
359.1050381576559 -544.427479002718 642.4619353174605
381.86612899076687 -635.0201100336259 749.6924771167552
434.5531908615384 -784.6621619455185 926.6444902151325
426.78409576416203 -829.2740787874371 979.5439122733495
401.115532023653 -833.3682781979159 984.573777730189
356.4834470850627 -787.1953027224133 930.1685048789504
332.09908747472196 -775.4322859702021 916.3804057861273
313.5725667344378 -770.720448242445 910.8959446850578
278.40920666478644 -717.4864246731516 848.0375086513416
254.5361371222719 -685.3878554280127 810.1376539228213
217.75123979931914 -610.7347223371178 721.9202632222012
214.1454163252163 -623.8619134201914 737.452121851251
204.11933109708121 -616.0925346915184 728.2756845661044
200.0828846944613 -624.2255484581625 737.8920202545056
200.72337185531688 -645.9006759454159 763.5129647314708
183.4342941097209 -607.3257691564195 717.9982135320028
188.54035166861357 -641.1666602087545 757.9915316072119
188.68327905238073 -657.9008735673921 777.7707623473646
183.95086186689016 -656.5553631428568 776.1864515538629
180.23711268419333 -657.4791424873798 777.2951004526608
177.19226820163976 -659.6655315728995 779.9427737226556
174.77909059157514 -663.1225013832168 784.0818718336085
173.0095926620019 -668.1007129848397 790.0246392893333
171.35701933065852 -672.6950651966324 795.5185955334257
160.75928204882865 -640.9408249950728 757.9651226229622
159.6417447207429 -645.6385373775822 763.5885039311124
158.9398494955329 -651.3985384048716 770.4723697582795
158.6440722377452 -658.2721418973861 778.6771630424445
157.5689194313987 -661.3644452350594 782.4118062645618
165.36555020978793 -701.5311878459481 830.0124924639493
163.41726237329536 -700.1550369768242 828.4666568236579
160.45645203145503 -693.7899930379111 821.0160495283791
156.71482838817053 -683.3625133783694 808.7545971953713
150.70278383218658 -662.2792498135288 783.8765107614066
140.97249717874172 -623.954319335507 738.5821330912538
129.93469586227656 -578.8581279241688 685.2607131893158
119.11311512615013 -533.7948753835537 631.965823829138
108.91307311915502 -490.7132839520007 581.0233713410721
97.65397166715537 -442.0778503623448 523.4737744663549
86.7511981246364 -394.3702330989787 467.0116250287089
76.18545464622619 -347.5555985603623 411.5942972286261
66.33260418213118 -303.5514176678485 359.4990647391361

VECTORS L float
24.534456892553436 49.75052444079264 -58.34494812767312
81.39268852647382 88.91228465599978 -105.18240902984411
134.76987760434722 101.20609305742877 -120.3298520794169
835.5788463676138 484.39404223491346 -568.7658861629554
870.5792805215351 411.81963997762495 -481.5709323285432
1018.4824538364553 406.9627928458735 -475.9560400021791
1167.9214087549599 405.0663115974912 -474.6885186365168
1220.3571572008068 374.98942069759255 -439.8920607368914
1252.8362710804352 346.53265610215243 -406.6200691699165
1460.0360274431443 368.24918154391645 -431.76726468945077
1836.0769569638603 426.5394802229943 -499.85049768284125
2019.1075241592814 435.8755530076198 -510.70980585398615
2072.701634824578 418.51813251556746 -490.174626225019
2050.21742712366 389.4474559806015 -456.15107957778497
2156.511615367018 387.28752214619215 -453.8074890522323
2256.272767550378 384.8763625517884 -451.0648693819896
2224.589407740984 361.83881305831187 -424.19318981180595
2220.6565830171558 345.6631068425475 -405.2694643029282
2091.711653666973 312.524403991236 -366.52704498483365
2211.8310682574097 318.1596684623475 -373.13037315862505
2254.640767925448 313.0370393469371 -367.1082092337816
2415.3560279105814 324.3668995697202 -380.5343981712588
2567.4585724312155 334.3024252431439 -392.1646300109667
2478.1819060985167 313.55838914043215 -367.8998830109615
2678.3255804089267 329.9516397860219 -387.09991294913993
2852.508719778954 342.6961504298376 -402.1244011455207
2930.9444735754664 343.96851672395655 -403.65995433644383
3005.335558639387 345.0746778669611 -404.9859573988061
3083.796710988324 346.89475700334754 -407.1970794709183
3164.8990753589833 349.29437890898737 -410.07607941784994
3248.829108594315 352.23712973351974 -413.59307917989247
3328.863739990267 354.9767077829057 -416.8766016524856
3212.9198189585386 337.35653136584784 -396.1674500351577
3287.295430251234 340.21791331993325 -399.6023779580436
3359.884588791357 343.08778793489154 -403.04192525026355
3429.410931815189 345.83688914381077 -406.331328120291
3493.761852348853 348.2380550729629 -409.242305852827
3743.334726019022 369.0963260927856 -433.83205166605836
3774.238376052808 368.419354883622 -433.1194658973933
3775.797661578273 365.15223795024826 -429.36082424056065
3741.222730850952 358.7124018496138 -421.85166044486573
3656.7764548197524 347.8412880879491 -409.1439402269463
3492.1302415509067 329.7518519915286 -387.9652856839869