# vtk DataFile Version 4.0
[MyVLM domain - lattices] 
ASCII
DATASET UNSTRUCTURED_GRID
POINTS 152 float
0.0 -1.4999999999999911 -1.6729685287983833
0.0 -3.736363636363618 -1.8259104159977302
0.0 -5.931651205936892 -1.9429672071329722
0.0 -8.085862708719816 -2.0670653503984946
0.0 -10.198998144712386 -2.198548813354169
0.0 -12.271057513914602 -2.3005016111659704
0.0 -14.30204081632647 -2.3423443515691638
0.0 -16.291948051947983 -2.316183910728506
0.0 -18.240779220779142 -2.2701546085111306
0.0 -20.148534322819952 -2.223965402213796
0.0 -22.015213358070408 -2.177368088906223
0.0 -23.84081632653051 -2.1299994259602193
0.0 -25.62534322820026 -2.081459941750284
0.0 -27.36879406307966 -2.0284620667262336
0.0 -29.07116883116871 -1.9731991232097452
0.0 -30.7324675324674 -1.9204789393857606
0.0 -32.35269016697575 -1.871017188049255
0.0 -33.93183673469374 -1.8236345039711341
0.0 -35.46990723562138 -1.7774812184983153
0.0 -36.96690166975866 -1.7325575766435373
0.0 -38.422820037105595 -1.6888638168761736
0.0 -39.83766233766218 -1.6464001711222283
0.0 -41.21142857142841 -1.6051668647643411
0.0 -42.54411873840428 -1.5651641166417818
0.0 -43.8357328385898 -1.5263921390504562
0.0 -45.08627087198497 -1.4888511377429023
0.0 -46.295732838589785 -1.4525413119282902
0.0 -47.46411873840425 -1.417462854272423
0.0 -48.591428571428374 -1.3836175479388104
0.0 -49.677662337662134 -1.3510275087235597
0.0 -50.72282003710554 -1.3196972323668978
0.0 -51.726901669758604 -1.289623554443655
0.0 -52.689907235621305 -1.2608034348947146
0.0 -53.611836734693654 -1.2332339580270166
0.0 -54.49269016697566 -1.2069123325135553
0.0 -55.33246753246731 -1.1818358913933786
0.0 -56.131168831168594 -1.1575801020610892
0.0 -56.88879406307953 -1.132802517120194
0.0 -57.60534322820013 -1.1053728587595595
0.0 -58.28081632653037 -1.0741829289912452
0.0 -58.915213358070254 -1.0400092122338258
0.0 -59.5085343228198 -1.0025976343867478
0.0 -60.060779220778976 -0.95017151561494
0.0 -60.57194805194781 -0.8829981979910438
0.0 -61.04204081632629 -0.8099943186006721
0.0 -61.4710575139144 -0.7372363138703679
0.0 -61.85899814471218 -0.6662628021178107
0.0 -62.20586270871959 -0.5956028474824546
0.0 -62.511651205936666 -0.5265458660951887
0.0 -62.77636363636338 -0.46164634229007623
0.0 -62.99999999999974 -0.4031156207145189
-0.7686761955390344 -1.4999999999999967 1.5799568380958027
-0.8409029948616161 -3.736363636363624 1.7281169722329455
-0.8940476007249757 -5.931651205936898 1.8375356791681723
-0.9506443374492793 -8.085862708719823 1.9550792281255613
-1.0210144815146838 -10.198998144712393 2.0793048915071166
-1.048631451549771 -12.27105751391461 2.1796929727327554
-0.9920275022819518 -14.302040816326478 2.235442525165102
-0.9074715353829097 -16.29194805194799 2.2264836716631775
-0.8388231939293685 -18.24077922077915 2.192935796679862
-0.7803448823218929 -20.14853432281996 2.155176395651556
-0.7251531968841737 -22.015213358070415 2.115434550519261
-0.671766762046156 -23.84081632653052 2.0768586132350775
-0.6188683613166902 -25.62534322820027 2.0352193917647936
-0.5668565661826578 -27.36879406307967 1.9891279899688568
-0.5162677046190278 -29.071168831168716 1.9394218040109434
-0.4681223452427161 -30.732467532467414 1.8917316870242966
-0.42442582165628834 -32.35269016697575 1.846705646681905
-0.3846819074085718 -33.93183673469374 1.8031600352041603
-0.3476243488905531 -35.46990723562138 1.760343998391506
-0.3131098246080671 -36.96690166975866 1.718311792656103
-0.28048746260446866 -38.422820037105595 1.6771555410423915
-0.2502235469699514 -39.83766233766218 1.6368634667763355
-0.2227998260917326 -41.21142857142841 1.59743603332174
-0.19746739264611052 -42.54411873840428 1.558963308146126
-0.17533279734900953 -43.8357328385898 1.521409391198923
-0.15613374469432648 -45.08627087198497 1.484832838927367
-0.13998404755873647 -46.295732838589785 1.4492649373532116
-0.12578653595324127 -47.46411873840425 1.4147882946829182
-0.11250427274737486 -48.591428571428374 1.3814638025970192
-0.10008179164308317 -49.677662337662134 1.3493034317202552
-0.08845752889585208 -50.72282003710554 1.3183158820529135
-0.07764231497362577 -51.726901669758604 1.2885057050770514
-0.06766212708627829 -52.689907235621305 1.2598772827795495
-0.0584684819534103 -53.611836734693654 1.232437129785958
-0.050013688763705585 -54.49269016697566 1.2061911334387498
-0.042252254921319045 -55.33246753246731 1.1811445593782373
-0.03513536582041269 -56.131168831168594 1.1569727905847564
-0.028615518964613278 -56.88879406307953 1.1326311469861743
-0.022687693716904638 -57.60534322820013 1.1053113958561016
-0.017408965386693863 -58.28081632653037 1.073561001694752
-0.013252482528008399 -58.915213358070254 1.0397440458796223
-0.010166684094042405 -59.5085343228198 1.0037397436372304
-0.00760098697125575 -60.060779220778976 0.9515922069598085
-0.005464879873870877 -60.57194805194781 0.8832558742198936
-0.0039015967321000085 -61.04204081632629 0.8092481826266414
-0.002883995165670249 -61.4710575139144 0.7365304832017159
-0.0022477517166190047 -61.85899814471218 0.6663352463065326
-0.00179874084072329 -62.20586270871959 0.5960211537296014
-0.0014595970466816986 -62.511651205936666 0.5266437251399279
-0.0012027506489664258 -62.77636363636338 0.4609936165545054
-0.0010073243559101815 -62.99999999999974 0.40148660099828437
-0.603592196400244 -2.618181818181809 0.8031678107737666
-0.6506064733449719 -4.83400742115026 0.8660100413840816
-0.6917594768153456 -7.00875695732836 0.9209765205437167
-0.7393720571114861 -9.142430426716105 0.9796922743931709
-0.7761172248991705 -11.2350278293135 1.0347428960249343
-0.7652471076868961 -13.28654916512054 1.075320066369805
-0.712312139124323 -15.29699443413723 1.0909062910233964
-0.6548605234921042 -17.26636363636357 1.0839899857236848
-0.607188028594223 -19.194656771799554 1.0687770707836655
-0.564561779702275 -21.081873840445184 1.0513124184240539
-0.5238449845988737 -22.928014842300463 1.0336889970495713
-0.48398817126106725 -24.73307977736539 1.015596830911139
-0.4446468478122555 -26.497068645639963 0.995390017090554
-0.4061716015506322 -28.219981447124194 0.9729985240004279
-0.369146268698154 -29.901818181818054 0.9499728013137768
-0.3347055625871267 -31.54257884972158 0.9279769842104486
-0.3034153983993225 -33.14226345083474 0.9068681692047258
-0.27461484611217185 -34.700871985157555 0.8861745472896935
-0.24777531506198255 -36.218404452690024 0.8657410722501215
-0.22259898270470088 -37.69486085343213 0.8456225759469712
-0.19901662859040753 -39.13024118738389 0.8258491294322224
-0.1773837648981315 -40.52454545454529 0.8064164330509569
-0.15760020702669117 -41.87777365491634 0.7873583803746842
-0.13980007124817 -43.18992578849704 0.7686952302928634
-0.124299953266251 -44.461001855287385 0.7504354266981892
-0.11104417209489861 -45.691001855287375 0.7326126098963183
-0.09966396881699166 -46.87992578849702 0.7152694412384595
-0.08935905326273105 -48.02777365491631 0.6984594862035719
-0.07971977414642176 -49.13454545454525 0.6822070807861816
-0.07070224520210072 -50.20024118738384 0.6665166500286309
-0.06228744145105419 -51.22486085343207 0.6513929968224179
-0.05448916577246402 -52.208404452689955 0.6368402467789293
-0.04729897838988322 -53.15087198515748 0.6228632305968488
-0.04068081401891846 -54.05226345083465 0.6094673123916939
-0.03459972888188424 -54.91257884972148 0.5966573568180034
-0.029020357778149403 -55.73181818181795 0.5843670070543143
-0.023906581794384738 -56.50998144712406 0.5723036491914388
-0.019238704755569217 -57.24706864563983 0.5594565315808844
-0.015036247163849435 -57.94307977736524 0.5446326756127196
-0.011498042968013347 -58.598014842300316 0.5282153751872566
-0.00878218748326905 -59.21187384044503 0.5109805652412478
-0.006662876649486808 -59.78465677179939 0.48915333772367864
-0.004899700066922485 -60.31636363636339 0.4589218162416403
-0.0035124287272390825 -60.806994434137046 0.4230649567434861
-0.0025445969616638467 -61.25654916512035 0.3862631706267539
-0.0019244050808584702 -61.66502782931329 0.35063725906707066
-0.0015174347090033604 -62.032430426715884 0.3156504438135172
-0.0012218767077768707 -62.358756957328126 0.280730740378868
-0.0009983803858680466 -62.644007421150015 0.24683997708725425
-0.0008287781268287279 -62.88818181818156 0.21533483620672175

CELLS 100 350
4 0 51 52 1
4 1 52 53 2
4 2 53 54 3
4 3 54 55 4
4 4 55 56 5
4 5 56 57 6
4 6 57 58 7
4 7 58 59 8
4 8 59 60 9
4 9 60 61 10
4 10 61 62 11
4 11 62 63 12
4 12 63 64 13
4 13 64 65 14
4 14 65 66 15
4 15 66 67 16
4 16 67 68 17
4 17 68 69 18
4 18 69 70 19
4 19 70 71 20
4 20 71 72 21
4 21 72 73 22
4 22 73 74 23
4 23 74 75 24
4 24 75 76 25
4 25 76 77 26
4 26 77 78 27
4 27 78 79 28
4 28 79 80 29
4 29 80 81 30
4 30 81 82 31
4 31 82 83 32
4 32 83 84 33
4 33 84 85 34
4 34 85 86 35
4 35 86 87 36
4 36 87 88 37
4 37 88 89 38
4 38 89 90 39
4 39 90 91 40
4 40 91 92 41
4 41 92 93 42
4 42 93 94 43
4 43 94 95 44
4 44 95 96 45
4 45 96 97 46
4 46 97 98 47
4 47 98 99 48
4 48 99 100 49
4 49 100 101 50
1 102
1 103
1 104
1 105
1 106
1 107
1 108
1 109
1 110
1 111
1 112
1 113
1 114
1 115
1 116
1 117
1 118
1 119
1 120
1 121
1 122
1 123
1 124
1 125
1 126
1 127
1 128
1 129
1 130
1 131
1 132
1 133
1 134
1 135
1 136
1 137
1 138
1 139
1 140
1 141
1 142
1 143
1 144
1 145
1 146
1 147
1 148
1 149
1 150
1 151

CELL_TYPES 100
9
9
9
9
9
9
9
9
9
9
9
9
9
9
9
9
9
9
9
9
9
9
9
9
9
9
9
9
9
9
9
9
9
9
9
9
9
9
9
9
9
9
9
9
9
9
9
9
9
9
1
1
1
1
1
1
1
1
1
1
1
1
1
1
1
1
1
1
1
1
1
1
1
1
1
1
1
1
1
1
1
1
1
1
1
1
1
1
1
1
1
1
1
1
1
1
1
1
1
1

CELL_DATA 100

VECTORS S float
-0.0 -0.0 0.0
-2.117754801288745e-17 -3.504436883551776e-15 5.833079154256926e-16
-0.0 -0.0 0.0
-1.700553772119e-20 2.1919717118023847e-16 -3.5445823924775217e-17
0.0 -0.0 0.0
-4.314378923555018e-17 1.4029590933440002e-14 -2.2621026922683026e-15
0.0 -0.0 0.0
1.69480394179694e-17 -7.012723884569936e-15 1.1439031501342177e-15
0.0 -0.0 0.0
0.0 -0.0 0.0
0.0 -0.0 0.0
4.054587648157045e-17 -1.4022102130461514e-14 2.308116030745864e-15
-4.08029663949819e-17 1.4021426089218316e-14 -2.3122147995158935e-15
0.0 -0.0 0.0
3.5222790302859817e-17 -1.4020066792706759e-14 2.320534037600729e-15
-3.32505655736951e-17 1.401953298692635e-14 -2.3237859120306212e-15
-3.009632894796872e-17 1.4018566929097788e-14 -2.329649587806863e-15
0.0 -0.0 0.0
-2.63792963237558e-17 1.4017742354877299e-14 -2.334650967828704e-15
0.0 -0.0 0.0
0.0 -0.0 0.0
-2.2432680382994428e-17 1.4016758313895325e-14 -2.3405928482493764e-15
2.1477608750582628e-17 -1.4016216308433678e-14 2.3438453114698503e-15
2.074124522092638e-17 -1.4015907838149222e-14 2.345695847682066e-15
-2.0112437128317618e-17 1.401561358165475e-14 -2.3474588720969523e-15
-1.8819489166580958e-17 1.4015309571229959e-14 -2.349283973042942e-15
-1.798768960605569e-17 1.4015027226316759e-14 -2.350974271488656e-15
0.0 -0.0 0.0
-1.6672402003043228e-17 1.40144120618922e-14 -2.3546482385020743e-15
0.0 -0.0 0.0
0.0 -0.0 0.0
0.0 -0.0 0.0
1.4810640444013078e-17 -1.401329485840705e-14 2.3613004029244575e-15
0.0 -0.0 0.0
1.3965777586151328e-17 -1.4012747895075519e-14 2.3645492430254073e-15
-1.367649806829756e-17 1.4012482787510561e-14 -2.3661214718817575e-15
1.3276505492995129e-17 -1.4012219394230168e-14 2.3676830697837958e-15
-1.3044359469107739e-17 1.4012015776469682e-14 -2.3688890774432173e-15
0.0 -0.0 0.0
0.0 -0.0 0.0
-1.2252865251839329e-17 1.4011288179599652e-14 -2.3731930288291538e-15
0.0 -0.0 0.0
0.0 -0.0 0.0
0.0 -0.0 0.0
2.223568720174582e-17 -2.802092180871103e-14 4.756155328690749e-15
0.0 -0.0 0.0
0.0 -0.0 0.0
0.0 -0.0 0.0
-5.2910290197991194e-18 7.0049352972620435e-15 -1.190777653606662e-15
-5.22679839941243e-18 7.004881597670668e-15 -1.1910937903196596e-15
-0.0 -0.0 0.0
-2.117754801288745e-17 -3.504436883551776e-15 5.833079154256926e-16
-0.0 -0.0 0.0
-1.700553772119e-20 2.1919717118023847e-16 -3.5445823924775217e-17
0.0 -0.0 0.0
-4.314378923555018e-17 1.4029590933440002e-14 -2.2621026922683026e-15
0.0 -0.0 0.0
1.69480394179694e-17 -7.012723884569936e-15 1.1439031501342177e-15
0.0 -0.0 0.0
0.0 -0.0 0.0
0.0 -0.0 0.0
4.054587648157045e-17 -1.4022102130461514e-14 2.308116030745864e-15
-4.08029663949819e-17 1.4021426089218316e-14 -2.3122147995158935e-15
0.0 -0.0 0.0
3.5222790302859817e-17 -1.4020066792706759e-14 2.320534037600729e-15
-3.32505655736951e-17 1.401953298692635e-14 -2.3237859120306212e-15
-3.009632894796872e-17 1.4018566929097788e-14 -2.329649587806863e-15
0.0 -0.0 0.0
-2.63792963237558e-17 1.4017742354877299e-14 -2.334650967828704e-15
0.0 -0.0 0.0
0.0 -0.0 0.0
-2.2432680382994428e-17 1.4016758313895325e-14 -2.3405928482493764e-15
2.1477608750582628e-17 -1.4016216308433678e-14 2.3438453114698503e-15
2.074124522092638e-17 -1.4015907838149222e-14 2.345695847682066e-15
-2.0112437128317618e-17 1.401561358165475e-14 -2.3474588720969523e-15
-1.8819489166580958e-17 1.4015309571229959e-14 -2.349283973042942e-15
-1.798768960605569e-17 1.4015027226316759e-14 -2.350974271488656e-15
0.0 -0.0 0.0
-1.6672402003043228e-17 1.40144120618922e-14 -2.3546482385020743e-15
0.0 -0.0 0.0
0.0 -0.0 0.0
0.0 -0.0 0.0
1.4810640444013078e-17 -1.401329485840705e-14 2.3613004029244575e-15
0.0 -0.0 0.0
1.3965777586151328e-17 -1.4012747895075519e-14 2.3645492430254073e-15
-1.367649806829756e-17 1.4012482787510561e-14 -2.3661214718817575e-15
1.3276505492995129e-17 -1.4012219394230168e-14 2.3676830697837958e-15
-1.3044359469107739e-17 1.4012015776469682e-14 -2.3688890774432173e-15
0.0 -0.0 0.0
0.0 -0.0 0.0
-1.2252865251839329e-17 1.4011288179599652e-14 -2.3731930288291538e-15
0.0 -0.0 0.0
0.0 -0.0 0.0
0.0 -0.0 0.0
2.223568720174582e-17 -2.802092180871103e-14 4.756155328690749e-15
0.0 -0.0 0.0
0.0 -0.0 0.0
0.0 -0.0 0.0
-5.2910290197991194e-18 7.0049352972620435e-15 -1.190777653606662e-15
-5.22679839941243e-18 7.004881597670668e-15 -1.1910937903196596e-15

SCALARS Gamma float
LOOKUP_TABLE default
-0.0
-0.0
-0.0
52.58973531764603
56.820513944314875
56.76005704555552
54.23403316531108
49.269467543274544
45.91403876435757
48.963924542166794
56.2009168903663
56.93038980131503
53.583167497089455
48.887855238219295
47.88581331302706
47.08657179478313
43.462660434247894
41.25673940465934
36.60118650068657
37.08408386900745
36.45946277121107
37.88004864527857
39.42150035593515
36.99356992533901
38.99854327666202
40.319529766271785
40.36469043434782
40.41028479341289
40.58591268583048
40.83798180123391
41.11672286479276
41.364432174959724
39.24596701909892
39.51241001737361
39.7847571112165
40.04930656487932
40.258877293521486
42.636547207503014
42.50106214171238
42.06696196485651
41.276362040386616
39.96940191654193
37.82628593846722
35.08312726528883
32.323309411733575
29.5680810350337
26.63056354053377
23.776833924203025
20.917934381183592
18.272751357221797
-0.0
-0.0
-0.0
52.58973531764603
56.820513944314875
56.76005704555552
54.23403316531108
49.269467543274544
45.91403876435757
48.963924542166794
56.2009168903663
56.93038980131503
53.583167497089455
48.887855238219295
47.88581331302706
47.08657179478313
43.462660434247894
41.25673940465934
36.60118650068657
37.08408386900745
36.45946277121107
37.88004864527857
39.42150035593515
36.99356992533901
38.99854327666202
40.319529766271785
40.36469043434782
40.41028479341289
40.58591268583048
40.83798180123391
41.11672286479276
41.364432174959724
39.24596701909892
39.51241001737361
39.7847571112165
40.04930656487932
40.258877293521486
42.636547207503014
42.50106214171238
42.06696196485651
41.276362040386616
39.96940191654193
37.82628593846722
35.08312726528883
32.323309411733575
29.5680810350337
26.63056354053377
23.776833924203025
20.917934381183592
18.272751357221797

VECTORS Ftot float
119.81127550767825 -6.993749284636308 -39.663523168922616
143.91450359018557 -15.523378826679844 -88.03745611878868
147.1120369605391 -23.005403921922053 -130.47012901535967
1334.3216111613772 1.2485398590245953 7.0808214035543084
1363.20928692538 40.63425617661273 230.4483183081145
1456.2655894539892 52.332529398437345 296.7925225519697
1533.079215987059 50.36843424609294 285.65358542247947
1517.9827748178957 48.97300986214079 277.7397404831204
1524.184133845032 52.124110407228414 295.6105197162634
1732.6095079255751 67.99699831345838 385.630140323696
2119.848592674373 89.63274415218999 508.3325523527652
2286.98391798404 99.47990132051054 564.1785557763803
2280.820506202996 102.4705994203334 581.139647537871
2205.6897938085244 96.02794172526364 544.6015200818015
2284.577690109685 93.6053777291136 530.8624769335752
2362.654939114155 93.44679012977612 529.9630819646358
2288.9543906362214 85.4208233091758 484.44556225010973
2270.248941371939 81.71120799333274 463.4072883515933
2100.585906480158 71.28971034992666 404.30403823335524
2210.996689442733 73.0455574885387 414.2619421885935
2252.607266833059 72.82252727374986 412.99707498623604
2424.07475017042 73.22749752775577 415.29377542526584
2603.335546475707 77.27021345620011 438.2211567721313
2516.5038203301897 73.22532421829487 415.28144997483184
2727.832891728024 78.09590203773148 442.9038694132361
2898.2148968323904 78.83542156035121 447.09789303712193
2975.4188063948704 78.47760632622254 445.0686220050257
3049.7216058302124 78.6731158874198 446.17741182500504
3131.6933051290684 79.04590623359465 448.29161093779555
3217.5686399487877 79.69332041422851 451.9632792101871
3303.8915316814023 80.46013704584303 456.312112432043
3385.9748708219668 81.1523939094664 460.2380961972159
3268.483344294855 77.86510458983233 441.5949520429515
3345.3956105762386 78.29864864687936 444.0537025716856
3420.590171240597 79.25899699702175 449.5001087103482
3493.0641104827223 80.48791309874287 456.4696382558746
3559.473807629687 80.86180595659943 458.5900900231214
3817.369070262888 86.24352764085478 489.1113503692815
3850.4573574434758 86.22027817309115 488.9794960854378
3853.272249331293 85.55344347401874 485.1976885798981
3819.119535514132 84.73673209602582 480.56588819001195
3733.4492375020004 81.97226015446819 464.8877887270128
3564.8553718748385 76.77198118013193 435.3955411229192
3332.7895217650566 71.21259109713425 403.8666732170511
3092.919703499132 65.65933010681776 372.37256512307664
2847.297183221352 60.745266216368925 344.5035239207341
2579.4902044328755 54.693775152769234 310.18381267016184
2315.068488346283 48.760574664814534 276.53496061067705
2045.801814096843 43.00521368827778 243.89468653910663
1793.9959350215045 37.529481781883725 212.84026772927314
119.81127550767825 -6.993749284636308 -39.663523168922616
143.91450359018557 -15.523378826679844 -88.03745611878868
147.1120369605391 -23.005403921922053 -130.47012901535967
1334.3216111613772 1.2485398590245953 7.0808214035543084
1363.20928692538 40.63425617661273 230.4483183081145
1456.2655894539892 52.332529398437345 296.7925225519697
1533.079215987059 50.36843424609294 285.65358542247947
1517.9827748178957 48.97300986214079 277.7397404831204
1524.184133845032 52.124110407228414 295.6105197162634
1732.6095079255751 67.99699831345838 385.630140323696
2119.848592674373 89.63274415218999 508.3325523527652
2286.98391798404 99.47990132051054 564.1785557763803
2280.820506202996 102.4705994203334 581.139647537871
2205.6897938085244 96.02794172526364 544.6015200818015
2284.577690109685 93.6053777291136 530.8624769335752
2362.654939114155 93.44679012977612 529.9630819646358
2288.9543906362214 85.4208233091758 484.44556225010973
2270.248941371939 81.71120799333274 463.4072883515933
2100.585906480158 71.28971034992666 404.30403823335524
2210.996689442733 73.0455574885387 414.2619421885935
2252.607266833059 72.82252727374986 412.99707498623604
2424.07475017042 73.22749752775577 415.29377542526584
2603.335546475707 77.27021345620011 438.2211567721313
2516.5038203301897 73.22532421829487 415.28144997483184
2727.832891728024 78.09590203773148 442.9038694132361
2898.2148968323904 78.83542156035121 447.09789303712193
2975.4188063948704 78.47760632622254 445.0686220050257
3049.7216058302124 78.6731158874198 446.17741182500504
3131.6933051290684 79.04590623359465 448.29161093779555
3217.5686399487877 79.69332041422851 451.9632792101871
3303.8915316814023 80.46013704584303 456.312112432043
3385.9748708219668 81.1523939094664 460.2380961972159
3268.483344294855 77.86510458983233 441.5949520429515
3345.3956105762386 78.29864864687936 444.0537025716856
3420.590171240597 79.25899699702175 449.5001087103482
3493.0641104827223 80.48791309874287 456.4696382558746
3559.473807629687 80.86180595659943 458.5900900231214
3817.369070262888 86.24352764085478 489.1113503692815
3850.4573574434758 86.22027817309115 488.9794960854378
3853.272249331293 85.55344347401874 485.1976885798981
3819.119535514132 84.73673209602582 480.56588819001195
3733.4492375020004 81.97226015446819 464.8877887270128
3564.8553718748385 76.77198118013193 435.3955411229192
3332.7895217650566 71.21259109713425 403.8666732170511
3092.919703499132 65.65933010681776 372.37256512307664
2847.297183221352 60.745266216368925 344.5035239207341
2579.4902044328755 54.693775152769234 310.18381267016184
2315.068488346283 48.760574664814534 276.53496061067705
2045.801814096843 43.00521368827778 243.89468653910663
1793.9959350215045 37.529481781883725 212.84026772927314

VECTORS D float
95.47586540602222 4.7323157472031605 31.755559191152514
63.76968075926341 6.129781213705803 39.14213444677272
15.350978915925412 2.1911134877755556 13.651350268013184
564.2721795075616 105.84536723723382 654.2776203571793
552.7164575245824 127.7480942253576 786.1345149966694
505.66735185699844 138.4393595459432 848.9584422621826
435.6291576040129 137.44787695228376 840.3308089261332
365.648405458946 130.4990491097719 794.6099063633804
324.4417095286796 128.6460042193251 781.2471609878153
341.5032520826078 148.53666415219732 900.1211342873671
385.2007575692147 181.89678809532342 1100.3374307862125
380.8983739710196 193.59654536445103 1169.4328347563878
352.3798476642831 191.46269008873517 1154.8242902859438
309.42482469562964 178.64742136676006 1076.128728309271
288.8072025667286 176.26913393719394 1060.588810971594
273.83916814837414 175.89474347256206 1057.2647154816702
241.72565121583514 162.9927403616127 977.6790453479127
221.901964766082 156.2363145816049 936.3846140896256
188.77236059975175 138.36434005488456 828.6360636396195
186.08522989056894 141.60621808257383 847.4439709539859
178.57761517602282 140.73758686712134 841.6825371223275
177.69191643471248 144.70447106745334 864.8669901895098
181.45155061105132 152.29548612103721 909.0656795618976
166.81796675175679 144.08645994296623 859.4645946627402
172.7162277269999 153.2375322350669 913.4321027854423
172.8607672133705 157.2634079639162 936.8140338753287
169.15732033678012 157.54854673541234 937.9109118001555
166.28951696594825 158.31286468573202 941.8689944513271
164.2101777677991 159.5583524241123 948.4978198323877
162.83290240212693 161.20467144983093 957.6504014718995
161.72012581280725 162.98799117639652 967.5858986687624
160.64867268469 164.63153747855785 976.6817375296749
151.24664133580723 157.42934890359717 933.3263244272035
150.40271734021334 158.84328968481364 941.0800899047407
150.1530982213276 160.74490580217687 951.7166294116191
150.2254700955882 162.8688008611812 963.6621523597587
149.56927127392217 164.0789320426402 970.199206902538
157.57769648057365 174.72318113444015 1032.622630475265
156.03969634222167 174.79033447861815 1032.3792435502676
153.4916514225432 173.57032001405503 1024.5595310877097
150.23228301338293 171.37918634973087 1011.0439238880318
144.50888249958308 166.18886954755266 979.8849027205304
135.34173240368827 156.80899816007286 924.0957547935695
124.88267142400767 145.68017589686048 858.0892622325943
114.55574887937019 134.46452495172394 791.6631088991311
104.8823270386957 123.8012275672111 728.5746141781356
94.09104441988505 111.62130149789284 656.6424796523471
83.67025973270775 99.69987818273066 586.308687238071
73.47840627284417 87.8941103543763 516.7243253173651
63.99772319047474 76.80606324628924 451.4194265776689
95.47586540602222 4.7323157472031605 31.755559191152514
63.76968075926341 6.129781213705803 39.14213444677272
15.350978915925412 2.1911134877755556 13.651350268013184
564.2721795075616 105.84536723723382 654.2776203571793
552.7164575245824 127.7480942253576 786.1345149966694
505.66735185699844 138.4393595459432 848.9584422621826
435.6291576040129 137.44787695228376 840.3308089261332
365.648405458946 130.4990491097719 794.6099063633804
324.4417095286796 128.6460042193251 781.2471609878153
341.5032520826078 148.53666415219732 900.1211342873671
385.2007575692147 181.89678809532342 1100.3374307862125
380.8983739710196 193.59654536445103 1169.4328347563878
352.3798476642831 191.46269008873517 1154.8242902859438
309.42482469562964 178.64742136676006 1076.128728309271
288.8072025667286 176.26913393719394 1060.588810971594
273.83916814837414 175.89474347256206 1057.2647154816702
241.72565121583514 162.9927403616127 977.6790453479127
221.901964766082 156.2363145816049 936.3846140896256
188.77236059975175 138.36434005488456 828.6360636396195
186.08522989056894 141.60621808257383 847.4439709539859
178.57761517602282 140.73758686712134 841.6825371223275
177.69191643471248 144.70447106745334 864.8669901895098
181.45155061105132 152.29548612103721 909.0656795618976
166.81796675175679 144.08645994296623 859.4645946627402
172.7162277269999 153.2375322350669 913.4321027854423
172.8607672133705 157.2634079639162 936.8140338753287
169.15732033678012 157.54854673541234 937.9109118001555
166.28951696594825 158.31286468573202 941.8689944513271
164.2101777677991 159.5583524241123 948.4978198323877
162.83290240212693 161.20467144983093 957.6504014718995
161.72012581280725 162.98799117639652 967.5858986687624
160.64867268469 164.63153747855785 976.6817375296749
151.24664133580723 157.42934890359717 933.3263244272035
150.40271734021334 158.84328968481364 941.0800899047407
150.1530982213276 160.74490580217687 951.7166294116191
150.2254700955882 162.8688008611812 963.6621523597587
149.56927127392217 164.0789320426402 970.199206902538
157.57769648057365 174.72318113444015 1032.622630475265
156.03969634222167 174.79033447861815 1032.3792435502676
153.4916514225432 173.57032001405503 1024.5595310877097
150.23228301338293 171.37918634973087 1011.0439238880318
144.50888249958308 166.18886954755266 979.8849027205304
135.34173240368827 156.80899816007286 924.0957547935695
124.88267142400767 145.68017589686048 858.0892622325943
114.55574887937019 134.46452495172394 791.6631088991311
104.8823270386957 123.8012275672111 728.5746141781356
94.09104441988505 111.62130149789284 656.6424796523471
83.67025973270775 99.69987818273066 586.308687238071
73.47840627284417 87.8941103543763 516.7243253173651
63.99772319047474 76.80606324628924 451.4194265776689

VECTORS L float
24.33541010165603 -11.72606503183947 -71.41908236007514
80.14482283092217 -21.65316004038565 -127.17959056556141
131.7610580446137 -25.19651740969761 -144.12147928337285
770.0494316538154 -104.59682737820918 -647.1967989536249
810.4928294007977 -87.11383804874492 -555.686196688555
950.5982375969908 -86.10683014750587 -552.1659197102132
1097.450058383046 -87.07944270619087 -554.677223503654
1152.33436935895 -81.52603924763112 -516.8701658802601
1199.7424243163525 -76.5218938120967 -485.6366412715521
1391.1062558429676 -80.53966583873891 -514.4909939636711
1734.647835105158 -92.26404394313347 -592.0048784334474
1906.085544013021 -94.11664404394044 -605.2542789800073
1928.4406585387135 -88.9920906684018 -573.6846427480731
1896.2649691128954 -82.61947964149647 -531.5272082274698
1995.7704875429563 -82.66375620808034 -529.7263340380186
2088.815770965781 -82.44795334278592 -527.3016335170345
2047.2287394203859 -77.57191705243687 -493.2334830978028
2048.346976605858 -74.52510658827221 -472.97732573803256
1911.8135458804065 -67.07462970495791 -424.3320254062643
2024.911459552164 -68.56066059403513 -433.18202876539226
2074.029651657036 -67.91505959337148 -428.68546213609153
2246.382833735708 -71.47697353969757 -449.57321476424397
2421.883995864656 -75.02527266483713 -470.84452278976613
2349.685853578433 -70.86113572467134 -444.18314468790834
2555.1166640010247 -75.14163019733546 -470.52823337220616
2725.3541296190197 -78.42798640356499 -489.7161408382067
2806.2614860580907 -79.07094040918982 -492.8422897951299
2883.4320888642656 -79.63974879831223 -495.69158262632203
2967.48312736127 -80.51244619051764 -500.20620889459224
3054.735737546661 -81.51135103560246 -505.6871222617126
3142.1714058685952 -82.52785413055352 -511.2737862367197
3225.326198137277 -83.47914356909143 -516.4436413324589
3117.2367029590478 -79.56424431376489 -491.7313723842523
3194.9928932360253 -80.54464103793433 -497.0263873330555
3270.4370730192695 -81.4859088051551 -502.21652070127084
3342.838640387133 -82.3808877624383 -507.1925141038841
3409.9045363557652 -83.21712608604075 -511.60911687941666
3659.791373782316 -88.47965349358537 -543.5112801059836
3694.417661101254 -88.570056305527 -543.3997474648298
3699.78059790875 -88.01687654003636 -539.3618425078117
3668.8872525007496 -86.6424542537051 -530.4780356980202
3588.9403550024185 -84.21660939308448 -514.9971139935177
3429.5136394711512 -80.0370169799409 -488.7002136706503
3207.906850341049 -74.46758479972624 -454.2225890155431
2978.363954619763 -68.80519484490615 -419.2905437760543
2742.4148561826564 -63.05596135084216 -384.0710902574014
2485.399160012991 -56.927526345123646 -346.4586669821854
2231.398228613575 -50.93930351791611 -309.77372662739396
1972.323407823999 -44.88889666609851 -272.8296387782585
1729.9982118310297 -39.2765814644055 -238.5791588483957
24.33541010165603 -11.72606503183947 -71.41908236007514
80.14482283092217 -21.65316004038565 -127.17959056556141
131.7610580446137 -25.19651740969761 -144.12147928337285
770.0494316538154 -104.59682737820918 -647.1967989536249
810.4928294007977 -87.11383804874492 -555.686196688555
950.5982375969908 -86.10683014750587 -552.1659197102132
1097.450058383046 -87.07944270619087 -554.677223503654
1152.33436935895 -81.52603924763112 -516.8701658802601
1199.7424243163525 -76.5218938120967 -485.6366412715521
1391.1062558429676 -80.53966583873891 -514.4909939636711