# vtk DataFile Version 4.0
[MyVLM domain - lattices] 
ASCII
DATASET UNSTRUCTURED_GRID
POINTS 152 float
0.0 2.2244301063855434 0.31738683046912053
0.0 4.035893192909036 -1.0029597229297484
0.0 5.792823691600178 -2.3243926679718205
0.0 7.522814191486172 -3.614028437554954
0.0 9.226085790652638 -4.871603537241293
0.0 10.878909351448886 -6.125397252075207
0.0 12.461628819415402 -7.398834755575054
0.0 13.969170592349172 -8.697962531393669
0.0 15.432474814661477 -9.985907551273526
0.0 16.86421015990251 -11.247571877997773
0.0 18.264217086304 -12.483145646041915
0.0 19.63226210600524 -13.692907115402782
0.0 20.968088443594933 -14.877162299099277
0.0 22.269582890100246 -16.038429621516684
0.0 23.538155285933595 -17.17502890027851
0.0 24.776896043481756 -18.28327712532021
0.0 25.98626518834994 -19.362626059474103
0.0 27.165504639181584 -20.41397914892035
0.0 28.31406823949415 -21.437987277609132
0.0 29.43195614677879 -22.4346502578498
0.0 30.51916851432066 -23.403967906964215
0.0 31.57570549119893 -24.34594004728676
0.0 32.60156722228676 -25.2605665061643
0.0 33.596753848251325 -26.147847115956246
0.0 34.5612655055538 -27.007781714034483
0.0 35.49510232644936 -27.840370142783435
0.0 36.398264438987205 -28.645612249600017
0.0 37.270751967010526 -29.42350788689367
0.0 38.112566056714726 -30.174055688681882
0.0 38.92372092385953 -30.89723871328196
0.0 39.70421945825104 -31.593053516757067
0.0 40.45405962583597 -32.26150252319752
0.0 41.17323947250198 -32.902588061423735
0.0 41.86175712407771 -33.51631236498615
0.0 42.51961078633274 -34.10267757216532
0.0 43.146798744977616 -34.66168572597186
0.0 43.743048115713684 -35.193662037249055
0.0 44.30749598998781 -35.699634880365174
0.0 44.83877305161783 -36.18123614279973
0.0 45.336166964667996 -36.63931475346327
0.0 45.80017684370168 -37.07327589078177
0.0 46.230639373035125 -37.483314186808094
0.0 46.61998464878708 -37.878451101688306
0.0 46.9683845151294 -38.25848183951322
0.0 47.281570475900786 -38.616575859992125
0.0 47.56344838914727 -38.94807834276647
0.0 47.81500725965948 -39.251810637823944
0.0 48.03530158809163 -39.52889954740669
0.0 48.22516019515637 -39.77835732145276
0.0 48.38622507173278 -39.99822711143304
0.0 48.51991764276097 -40.18681492906855
-0.7686761955390344 0.1334899853109568 -2.174498570720897
-0.8409029948616161 1.7514084232677853 -3.7255026543764727
-0.8940476007249757 3.362763277901645 -5.220425896218028
-0.9506443374492793 4.937429492043067 -6.695169941354385
-1.0210144815146838 6.476334433116192 -8.148629596326165
-1.048631451549771 7.999095783934092 -9.557425417162518
-0.9920275022819518 9.519084135265025 -10.90562295428027
-0.9074715353829097 11.04920015546314 -12.17784778982149
-0.8388231939293685 12.563655601293878 -13.404833155307662
-0.7803448823218929 14.049352071174273 -14.602189117882526
-0.7251531968841737 15.504856738851675 -15.77162325338024
-0.671766762046156 16.928145882700342 -16.915547339318692
-0.6188683613166902 18.321937974958846 -18.030721626641192
-0.5668565661826578 19.687125780856842 -19.116082159177974
-0.5162677046190278 21.02317103251592 -20.172270419606896
-0.4681223452427161 22.326454287310053 -21.20359989168071
-0.42442582165628834 23.596559013936073 -22.2105669780764
-0.3846819074085718 24.834246046520942 -23.1922649519898
-0.3476243488905531 26.03999802484082 -24.14811862573373
-0.3131098246080671 27.21378007354622 -25.078169562131244
-0.28048746260446866 28.35553297708561 -25.982488331528604
-0.2502235469699514 29.46526430542342 -26.861065912393517
-0.2227998260917326 30.542973760650856 -27.713902659759846
-0.19746739264611052 31.588603448515773 -28.54106756931059
-0.17533279734900953 32.602176445125856 -29.342533140011508
-0.15613374469432648 33.583655111122354 -30.118344228703606
-0.13998404755873647 34.53301933623812 -30.86852480187
-0.12578653595324127 35.450216020941596 -31.593138141068216
-0.11250427274737486 36.33520602481501 -32.292230892031746
-0.10008179164308317 37.18798165328907 -32.96581222479116
-0.08845752889585208 38.008537314111415 -33.61388880393332
-0.07764231497362577 38.79687008164575 -34.23646411609578
-0.06766212708627829 39.55297713920522 -34.83354151807523
-0.0584684819534103 40.27685429926923 -35.405126000364376
-0.050013688763705585 40.968497777526984 -35.9512220729292
-0.042252254921319045 41.627904189290135 -36.471833769484206
-0.03513536582041269 42.25528219435682 -36.966712418965336
-0.028615518964613278 42.85130330013348 -37.4350577500085
-0.022687693716904638 43.41777260382178 -37.874718531538655
-0.017408965386693863 43.95562377724359 -38.284582056807764
-0.013252482528008399 44.46333721818117 -38.66645931721814
-0.010166684094042405 44.940990565590354 -39.02025778626525
-0.00760098697125575 45.3975544913647 -39.33528663349193
-0.005464879873870877 45.83305828195384 -39.611510956666656
-0.0039015967321000085 46.24074145903405 -39.856987580119366
-0.002883995165670249 46.61612935242193 -40.07704920811678
-0.0022477517166190047 46.958429745439865 -40.27263996773059
-0.00179874084072329 47.26934044470743 -40.44173649182237
-0.0014595970466816986 47.548182975259614 -40.58514735536916
-0.0012027506489664258 47.7931635379858 -40.705010324905444
-0.0010073243559101815 48.00272930391773 -40.80317598993282
-0.603592196400244 1.4893773156288506 -2.298197070969093
-0.6506064733449719 3.1464039985021883 -3.770642255335635
-0.6917594768153456 4.7770270241150605 -5.2106510772805015
-0.7393720571114861 6.373773969702074 -6.627128823479737
-0.7761172248991705 7.9414107241565475 -8.01439572872282
-0.7652471076868961 9.486884741057706 -9.36417214024733
-0.712312139124323 11.016956535493632 -10.66840118990925
-0.6548605234921042 12.530026584660213 -11.928989114756831
-0.607188028594223 14.016963498996054 -13.156818281105235
-0.564561779702275 15.473881709535542 -14.3565193297285
-0.5238449845988737 16.89943588212066 -15.529695567442689
-0.48398817126106725 18.293825265322216 -16.676109539047715
-0.4446468478122555 19.65810782514278 -17.79450040975918
-0.4061716015506322 20.992328577019016 -18.884814532268727
-0.369146268698154 22.295490911111656 -19.948239619932693
-0.3347055625871267 23.566525141946258 -20.98605047425821
-0.3034153983993225 24.80552312611282 -21.998137624824132
-0.27461484611217185 26.012788136595127 -22.984139644962507
-0.24777531506198255 27.188419835179257 -23.94393776238173
-0.22259898270470088 28.332382976624366 -24.877573980724197
-0.19901662859040753 29.444658231630836 -25.785071335752164
-0.1773837648981315 30.525248363963563 -26.66642653373889
-0.15760020702669117 31.574131587254747 -27.52166553866648
-0.13980007124817 32.59129487934125 -28.350803869744624
-0.124299953266251 33.57673281259347 -29.15384799537041
-0.11104417209489861 34.53042376343975 -29.93082368551304
-0.09966396881699166 35.452340309692104 -30.681763620663542
-0.08935905326273105 36.34244802012438 -31.406708834359424
-0.07971977414642176 37.20073125186081 -32.10567796905407
-0.07070224520210072 38.027187160539 -32.778674414526556
-0.06228744145105419 38.82181265891981 -33.42570185000523
-0.05448916577246402 39.58460509511136 -34.04676343589178
-0.04729897838988322 40.315561364000374 -34.64186287271608
-0.04068081401891846 41.014678017599884 -35.21100426962902
-0.03459972888188424 41.68195192897021 -35.75419135317217
-0.029020357778149403 42.31742575145402 -36.27137329107119
-0.023906581794384738 42.921287573646545 -36.762325928066964
-0.019238704755569217 43.49418709418393 -37.22627498347579
-0.015036247163849435 44.03689114493525 -37.66230658266279
-0.011498042968013347 44.549153349330496 -38.07071434579035
-0.00878218748326905 45.03047494600643 -38.45209267350501
-0.006662876649486808 45.48328239908592 -38.80354981847099
-0.004899700066922485 45.910025935484015 -39.12216571395967
-0.0035124287272390825 46.308919276749236 -39.41006916373293
-0.0025445969616638467 46.676953912426995 -39.67084557093338
-0.0019244050808584702 47.01276661779901 -39.90611956351657
-0.0015174347090033604 47.31670242727412 -40.115479945486186
-0.0012218767077768707 47.58912900539364 -40.29848855130425
-0.0009983803858680466 47.829428100828174 -40.4558821842137
-0.0008287781268287279 48.036727655025544 -40.58870012312704

CELLS 100 350
4 0 51 52 1
4 1 52 53 2
4 2 53 54 3
4 3 54 55 4
4 4 55 56 5
4 5 56 57 6
4 6 57 58 7
4 7 58 59 8
4 8 59 60 9
4 9 60 61 10
4 10 61 62 11
4 11 62 63 12
4 12 63 64 13
4 13 64 65 14
4 14 65 66 15
4 15 66 67 16
4 16 67 68 17
4 17 68 69 18
4 18 69 70 19
4 19 70 71 20
4 20 71 72 21
4 21 72 73 22
4 22 73 74 23
4 23 74 75 24
4 24 75 76 25
4 25 76 77 26
4 26 77 78 27
4 27 78 79 28
4 28 79 80 29
4 29 80 81 30
4 30 81 82 31
4 31 82 83 32
4 32 83 84 33
4 33 84 85 34
4 34 85 86 35
4 35 86 87 36
4 36 87 88 37
4 37 88 89 38
4 38 89 90 39
4 39 90 91 40
4 40 91 92 41
4 41 92 93 42
4 42 93 94 43
4 43 94 95 44
4 44 95 96 45
4 45 96 97 46
4 46 97 98 47
4 47 98 99 48
4 48 99 100 49
4 49 100 101 50
1 102
1 103
1 104
1 105
1 106
1 107
1 108
1 109
1 110
1 111
1 112
1 113
1 114
1 115
1 116
1 117
1 118
1 119
1 120
1 121
1 122
1 123
1 124
1 125
1 126
1 127
1 128
1 129
1 130
1 131
1 132
1 133
1 134
1 135
1 136
1 137
1 138
1 139
1 140
1 141
1 142
1 143
1 144
1 145
1 146
1 147
1 148
1 149
1 150
1 151

CELL_TYPES 100
9
9
9
9
9
9
9
9
9
9
9
9
9
9
9
9
9
9
9
9
9
9
9
9
9
9
9
9
9
9
9
9
9
9
9
9
9
9
9
9
9
9
9
9
9
9
9
9
9
9
1
1
1
1
1
1
1
1
1
1
1
1
1
1
1
1
1
1
1
1
1
1
1
1
1
1
1
1
1
1
1
1
1
1
1
1
1
1
1
1
1
1
1
1
1
1
1
1
1
1

CELL_DATA 100

VECTORS S float
-0.0 0.0 -0.0
-0.0 0.0 -0.0
-0.0 0.0 -0.0
0.0 0.0 -0.0
-3.7918377825049456e-17 -9.304430993804816e-15 1.0741253084008703e-14
-1.7783893767245738e-16 -3.719322233094983e-14 4.298612396736937e-14
7.724461327964502e-17 1.857698375010644e-14 -2.151007380192631e-14
-7.291992006753808e-17 -1.8563728031387573e-14 2.1521529945806567e-14
0.0 0.0 -0.0
8.319896561384854e-17 1.854921522156983e-14 -2.1534002404158846e-14
1.7495673417069946e-16 3.708612151220949e-14 -4.3078570648386945e-14
1.7785940503194024e-16 3.707455190371229e-14 -4.30885162770343e-14
0.0 0.0 -0.0
0.0 0.0 -0.0
1.5290876677547872e-16 3.7041947048881415e-14 -4.311664464591572e-14
-7.244385725732361e-17 -1.8516811345997816e-14 2.156191124206266e-14
-6.715050069025428e-17 -1.8512869204370825e-14 2.156531315743946e-14
0.0 0.0 -0.0
1.1845346632879456e-16 3.701313656863914e-14 -4.314148766457698e-14
0.0 0.0 -0.0
0.0 0.0 -0.0
0.0 0.0 -0.0
4.8850472640408e-17 1.849395281627195e-14 -2.158158682319597e-14
4.7215705952368786e-17 1.8491087896065993e-14 -2.1584045173307738e-14
-1.3766392911931574e-16 -5.5465225689911763e-14 6.475902941155478e-14
-8.542053586225851e-17 -3.697118643617346e-14 4.3177521288501734e-14
-8.197752323312557e-17 -3.6966131085547095e-14 4.3181856143953533e-14
3.965215679086769e-17 1.8480652488396304e-14 -2.1592996046308842e-14
7.660624197193854e-17 3.6956565596915757e-14 -4.319005277317705e-14
0.0 0.0 -0.0
3.6146149591275076e-17 1.8473692557386936e-14 -2.1598957004849386e-14
0.0 0.0 -0.0
3.4718516618311517e-17 1.8469248958291417e-14 -2.1602759186908774e-14
0.0 0.0 -0.0
-3.2968718158542876e-17 -1.8465387648368687e-14 2.160606255210357e-14
6.485335855828301e-17 3.6926434094550866e-14 -4.3215836528845986e-14
3.164929203035632e-17 1.8461035584656688e-14 -2.160978321063563e-14
-6.251794776914408e-17 -3.691784689486046e-14 4.322317595849607e-14
0.0 0.0 -0.0
-3.007093069853399e-17 -1.8454777270406058e-14 2.1615130316173135e-14
0.0 0.0 -0.0
0.0 0.0 -0.0
-2.8207458732129e-17 -1.844902843978811e-14 2.162003979907247e-14
-2.7724262848549098e-17 -1.8447295568086055e-14 2.1621519015444733e-14
0.0 0.0 -0.0
0.0 0.0 -0.0
0.0 0.0 -0.0
0.0 0.0 -0.0
1.3109007766797299e-17 9.220093070688044e-15 -1.0813792288477928e-14
0.0 0.0 -0.0
-0.0 0.0 -0.0
-0.0 0.0 -0.0
-0.0 0.0 -0.0
0.0 0.0 -0.0
-3.7918377825049456e-17 -9.304430993804816e-15 1.0741253084008703e-14
-1.7783893767245738e-16 -3.719322233094983e-14 4.298612396736937e-14
7.724461327964502e-17 1.857698375010644e-14 -2.151007380192631e-14
-7.291992006753808e-17 -1.8563728031387573e-14 2.1521529945806567e-14
0.0 0.0 -0.0
8.319896561384854e-17 1.854921522156983e-14 -2.1534002404158846e-14
1.7495673417069946e-16 3.708612151220949e-14 -4.3078570648386945e-14
1.7785940503194024e-16 3.707455190371229e-14 -4.30885162770343e-14
0.0 0.0 -0.0
0.0 0.0 -0.0
1.5290876677547872e-16 3.7041947048881415e-14 -4.311664464591572e-14
-7.244385725732361e-17 -1.8516811345997816e-14 2.156191124206266e-14
-6.715050069025428e-17 -1.8512869204370825e-14 2.156531315743946e-14
0.0 0.0 -0.0
1.1845346632879456e-16 3.701313656863914e-14 -4.314148766457698e-14
0.0 0.0 -0.0
0.0 0.0 -0.0
0.0 0.0 -0.0
4.8850472640408e-17 1.849395281627195e-14 -2.158158682319597e-14
4.7215705952368786e-17 1.8491087896065993e-14 -2.1584045173307738e-14
-1.3766392911931574e-16 -5.5465225689911763e-14 6.475902941155478e-14
-8.542053586225851e-17 -3.697118643617346e-14 4.3177521288501734e-14
-8.197752323312557e-17 -3.6966131085547095e-14 4.3181856143953533e-14
3.965215679086769e-17 1.8480652488396304e-14 -2.1592996046308842e-14
7.660624197193854e-17 3.6956565596915757e-14 -4.319005277317705e-14
0.0 0.0 -0.0
3.6146149591275076e-17 1.8473692557386936e-14 -2.1598957004849386e-14
0.0 0.0 -0.0
3.4718516618311517e-17 1.8469248958291417e-14 -2.1602759186908774e-14
0.0 0.0 -0.0
-3.2968718158542876e-17 -1.8465387648368687e-14 2.160606255210357e-14
6.485335855828301e-17 3.6926434094550866e-14 -4.3215836528845986e-14
3.164929203035632e-17 1.8461035584656688e-14 -2.160978321063563e-14
-6.251794776914408e-17 -3.691784689486046e-14 4.322317595849607e-14
0.0 0.0 -0.0
-3.007093069853399e-17 -1.8454777270406058e-14 2.1615130316173135e-14
0.0 0.0 -0.0
0.0 0.0 -0.0
-2.8207458732129e-17 -1.844902843978811e-14 2.162003979907247e-14
-2.7724262848549098e-17 -1.8447295568086055e-14 2.1621519015444733e-14
0.0 0.0 -0.0
0.0 0.0 -0.0
0.0 0.0 -0.0
0.0 0.0 -0.0
1.3109007766797299e-17 9.220093070688044e-15 -1.0813792288477928e-14
0.0 0.0 -0.0

SCALARS Gamma float
LOOKUP_TABLE default
-0.0
-0.0
-0.0
50.949415588669154
54.50473338951053
54.54815193212436
52.458950493875506
47.800368275515474
44.776936768688834
47.35158356219443
53.864075407595024
54.499641058955945
50.46822285969411
45.57398736911049
44.54641267058835
43.732282787571954
40.11862517834009
37.92455807939894
33.14912534397525
33.54062349858138
33.07084811880188
34.71182200964352
36.37476869290822
34.37277737174859
36.47415318056357
37.72210478296216
37.841113801180676
37.960521248100434
38.18261751068981
38.45961711725941
38.80389113060572
39.11070855454485
37.161914374326685
37.46601043477632
37.78858130895766
38.10097794295263
38.35785933704831
40.67890888356717
40.610805205604464
40.24905345260082
39.53343559098926
38.31317197890578
36.28665687531608
33.679735634179075
31.02625707913872
28.413497505344896
25.595517116595392
22.88321757499328
20.137256896410836
17.592036522955564
-0.0
-0.0
-0.0
50.949415588669154
54.50473338951053
54.54815193212436
52.458950493875506
47.800368275515474
44.776936768688834
47.35158356219443
53.864075407595024
54.499641058955945
50.46822285969411
45.57398736911049
44.54641267058835
43.732282787571954
40.11862517834009
37.92455807939894
33.14912534397525
33.54062349858138
33.07084811880188
34.71182200964352
36.37476869290822
34.37277737174859
36.47415318056357
37.72210478296216
37.841113801180676
37.960521248100434
38.18261751068981
38.45961711725941
38.80389113060572
39.11070855454485
37.161914374326685
37.46601043477632
37.78858130895766
38.10097794295263
38.35785933704831
40.67890888356717
40.610805205604464
40.24905345260082
39.53343559098926
38.31317197890578
36.28665687531608
33.679735634179075
31.02625707913872
28.413497505344896
25.595517116595392
22.88321757499328
20.137256896410836
17.592036522955564

VECTORS Ftot float
114.75975932312626 30.077596920957657 25.238100483074536
138.37065723661414 67.09836117485453 56.302210114420525
141.83967854406907 99.75283196429699 83.70256451013103
1261.8170724472034 -10.476149000253791 -8.79053276227121
1291.334755910704 -168.00619116256092 -140.97393304000485
1384.7937662102197 -219.18324412520178 -183.91657930569704
1468.3942147742591 -214.8663746019388 -180.29429568088662
1459.1447712465201 -210.68607132765777 -176.78660474522823
1474.7722558776297 -226.04236470530577 -189.67206485466284
1667.283509253021 -288.9670833320148 -242.47217304626864
2023.4575890344915 -377.052108798169 -316.38428542716014
2179.56598504545 -421.8269095247718 -353.95480420288885
2142.3918476700587 -421.37468187050774 -353.5753401449877
2052.6505934464326 -387.4048994441837 -325.0713082398867
2122.337263322798 -376.1347684075699 -315.6145454437444
2192.0618804392575 -374.3377892246341 -314.1067008741098
2110.7203090826006 -339.5499617644453 -284.9162476828064
2085.7101676548596 -322.0740290832028 -270.2521990154968
1901.6139291733493 -277.01930986415283 -232.44680073599596
1999.5893176980235 -282.2379026762354 -236.82572003987886
2043.3830394030683 -281.87292688404386 -236.51946898726231
2221.0713598584753 -287.82918690934713 -241.51736457769024
2402.5852304113646 -304.96826277510024 -255.89875681536319
2338.892968429346 -290.67027332102157 -243.90131913786908
2552.1279105021904 -312.0356865933755 -261.82902953465145
2712.9402059100307 -312.7641611712702 -262.44029228428496
2790.77418068992 -312.43466006651835 -262.16380802881514
2866.260592004296 -313.9792496501564 -263.4598725787661
2947.902088460984 -315.4863086029608 -264.7244451902267
3032.0295842764217 -318.29718433008725 -267.0830499761437
3119.9310165388138 -322.1955271700048 -270.35414801532113
3203.4101381217333 -325.70439891157383 -273.29844099952004
3096.604973003711 -314.00490646025366 -263.4814011986559
3174.468960385702 -314.4607603153219 -263.86390800031444
3251.2506587771118 -319.2555056788747 -267.8871770664606
3325.4502602515167 -324.7787749868422 -272.5217503056689
3393.633990754512 -327.18388236557854 -274.5398750201083
3644.2528277107335 -350.8896506631338 -294.43137645536103
3681.3251407937805 -351.4678106558563 -294.9165102920159
3688.821565200014 -349.3418236324177 -293.1325953647609
3659.6999681785137 -347.446867854955 -291.5425386707947
3580.8402755525394 -334.6455757136328 -280.8009791564186
3421.682456762431 -313.7120432473215 -263.2356597846991
3201.234837262446 -291.28874713044735 -244.42028028325103
2970.4177954816646 -268.59058972160443 -225.37426477308708
2737.5943230184857 -248.86308339004268 -208.8209214862261
2480.5606155259175 -224.11363182860003 -188.05366580917953
2229.2288274464872 -200.13168247571693 -167.93042095226306
1970.4784014754698 -176.62964317391192 -148.20986844220448
1728.0612817660895 -154.1451871437299 -129.34316968005695
114.75975932312626 30.077596920957657 25.238100483074536
138.37065723661414 67.09836117485453 56.302210114420525
141.83967854406907 99.75283196429699 83.70256451013103
1261.8170724472034 -10.476149000253791 -8.79053276227121
1291.334755910704 -168.00619116256092 -140.97393304000485
1384.7937662102197 -219.18324412520178 -183.91657930569704
1468.3942147742591 -214.8663746019388 -180.29429568088662
1459.1447712465201 -210.68607132765777 -176.78660474522823
1474.7722558776297 -226.04236470530577 -189.67206485466284
1667.283509253021 -288.9670833320148 -242.47217304626864
2023.4575890344915 -377.052108798169 -316.38428542716014
2179.56598504545 -421.8269095247718 -353.95480420288885
2142.3918476700587 -421.37468187050774 -353.5753401449877
2052.6505934464326 -387.4048994441837 -325.0713082398867
2122.337263322798 -376.1347684075699 -315.6145454437444
2192.0618804392575 -374.3377892246341 -314.1067008741098
2110.7203090826006 -339.5499617644453 -284.9162476828064
2085.7101676548596 -322.0740290832028 -270.2521990154968
1901.6139291733493 -277.01930986415283 -232.44680073599596
1999.5893176980235 -282.2379026762354 -236.82572003987886
2043.3830394030683 -281.87292688404386 -236.51946898726231
2221.0713598584753 -287.82918690934713 -241.51736457769024
2402.5852304113646 -304.96826277510024 -255.89875681536319
2338.892968429346 -290.67027332102157 -243.90131913786908
2552.1279105021904 -312.0356865933755 -261.82902953465145
2712.9402059100307 -312.7641611712702 -262.44029228428496
2790.77418068992 -312.43466006651835 -262.16380802881514
2866.260592004296 -313.9792496501564 -263.4598725787661
2947.902088460984 -315.4863086029608 -264.7244451902267
3032.0295842764217 -318.29718433008725 -267.0830499761437
3119.9310165388138 -322.1955271700048 -270.35414801532113
3203.4101381217333 -325.70439891157383 -273.29844099952004
3096.604973003711 -314.00490646025366 -263.4814011986559
3174.468960385702 -314.4607603153219 -263.86390800031444
3251.2506587771118 -319.2555056788747 -267.8871770664606
3325.4502602515167 -324.7787749868422 -272.5217503056689
3393.633990754512 -327.18388236557854 -274.5398750201083
3644.2528277107335 -350.8896506631338 -294.43137645536103
3681.3251407937805 -351.4678106558563 -294.9165102920159
3688.821565200014 -349.3418236324177 -293.1325953647609
3659.6999681785137 -347.446867854955 -291.5425386707947
3580.8402755525394 -334.6455757136328 -280.8009791564186
3421.682456762431 -313.7120432473215 -263.2356597846991
3201.234837262446 -291.28874713044735 -244.42028028325103
2970.4177954816646 -268.59058972160443 -225.37426477308708
2737.5943230184857 -248.86308339004268 -208.8209214862261
2480.5606155259175 -224.11363182860003 -188.05366580917953
2229.2288274464872 -200.13168247571693 -167.93042095226306
1970.4784014754698 -176.62964317391192 -148.20986844220448
1728.0612817660895 -154.1451871437299 -129.34316968005695

VECTORS D float
90.70207992725386 -23.266005327535293 -20.55065663572877
59.19596934331975 -28.25778168229293 -24.619663805083608
12.094546729407753 -8.391069896511194 -7.274020254367068
525.2918105789721 -475.70466845042966 -411.33337974942873
510.46726043879954 -568.1207286237305 -490.3230548605059
468.6981552127157 -616.332852201944 -531.3354615815346
407.0670071483666 -615.5006322564087 -530.1098273795932
343.209636321372 -584.747678800591 -503.2202675304041
306.1702287674577 -579.0823160803774 -497.7576505043633
318.8434018880515 -660.4424296955684 -567.6678723825568
356.42092376379713 -800.4270192938728 -687.635987279109
353.27511338079654 -853.0549206761019 -732.5338247645342
319.71531150144847 -824.3553992625816 -707.6286506272401
276.74054082170807 -757.4418583474708 -649.9806925246023
257.4671244510292 -744.2655774509799 -638.4930310751141
243.52074375377697 -740.2407497815988 -634.8814155964682
213.49132535190535 -679.8187592128743 -582.9296162230094
194.62179793123823 -647.0327391244757 -554.705838139492
163.01494557173928 -564.1513003447092 -483.56467449306416
160.23819919042168 -575.2367952710161 -492.8620185614823
154.13920031787475 -572.6967804813528 -490.6009955999023
155.33041729124633 -595.9396307640872 -510.4249982918655
159.2981881194554 -629.7429215192328 -539.2862990347066
147.413133667884 -599.2785632593084 -513.0804853011758
153.65145955708712 -641.1619037322412 -548.8197978505092
153.3591994209854 -655.7314023243281 -561.1732026137585
150.5140744732989 -658.3691735409352 -563.315813004174
148.328135436073 -662.7121006622189 -566.9185728306264
146.5834232802378 -667.9859527139702 -571.3176041642545
145.42203182875372 -674.9994554764598 -577.2033731047286
144.7926016194407 -683.6848737180079 -584.5166720471732
144.16110216508739 -691.6306405810143 -591.1950612605629
136.1556355477482 -662.966155137147 -566.5831731286922
135.2522251913652 -667.8264350788088 -570.6572984967482
135.36690361148845 -677.0044400857661 -578.3879650640288
135.69275831997666 -686.7525091518323 -586.6025784421033
135.41648812596384 -692.9610188365417 -591.7917855487254
143.13674316242228 -740.0028574114688 -631.8453693099055
142.01664127117672 -741.2041161238816 -632.7524841654954
139.94311255888965 -736.8099504036711 -628.886113886074
137.34187789976227 -728.982366232335 -622.0945705806558
131.94372998358122 -705.556222616206 -602.0001614443669
123.71572608748858 -666.0816180813512 -568.226012677916
114.28300080776144 -619.134091199553 -528.0933849525893
104.85438786411869 -571.2676699236979 -487.1943505422153
96.14447279661668 -526.4827416662781 -448.93968845992845
86.28789337224214 -474.65673412257996 -404.69679277765476
76.86081657298867 -424.49564302728453 -361.8885735551134
67.54981509160567 -374.3458991425514 -319.0942111354098
58.846127746107 -327.08389186161315 -278.7832320764341
90.70207992725386 -23.266005327535293 -20.55065663572877
59.19596934331975 -28.25778168229293 -24.619663805083608
12.094546729407753 -8.391069896511194 -7.274020254367068
525.2918105789721 -475.70466845042966 -411.33337974942873
510.46726043879954 -568.1207286237305 -490.3230548605059
468.6981552127157 -616.332852201944 -531.3354615815346
407.0670071483666 -615.5006322564087 -530.1098273795932
343.209636321372 -584.747678800591 -503.2202675304041
306.1702287674577 -579.0823160803774 -497.7576505043633
318.8434018880515 -660.4424296955684 -567.6678723825568
356.42092376379713 -800.4270192938728 -687.635987279109
353.27511338079654 -853.0549206761019 -732.5338247645342
319.71531150144847 -824.3553992625816 -707.6286506272401
276.74054082170807 -757.4418583474708 -649.9806925246023
257.4671244510292 -744.2655774509799 -638.4930310751141
243.52074375377697 -740.2407497815988 -634.8814155964682
213.49132535190535 -679.8187592128743 -582.9296162230094
194.62179793123823 -647.0327391244757 -554.705838139492
163.01494557173928 -564.1513003447092 -483.56467449306416
160.23819919042168 -575.2367952710161 -492.8620185614823
154.13920031787475 -572.6967804813528 -490.6009955999023
155.33041729124633 -595.9396307640872 -510.4249982918655
159.2981881194554 -629.7429215192328 -539.2862990347066
147.413133667884 -599.2785632593084 -513.0804853011758
153.65145955708712 -641.1619037322412 -548.8197978505092
153.3591994209854 -655.7314023243281 -561.1732026137585
150.5140744732989 -658.3691735409352 -563.315813004174
148.328135436073 -662.7121006622189 -566.9185728306264
146.5834232802378 -667.9859527139702 -571.3176041642545
145.42203182875372 -674.9994554764598 -577.2033731047286
144.7926016194407 -683.6848737180079 -584.5166720471732
144.16110216508739 -691.6306405810143 -591.1950612605629
136.1556355477482 -662.966155137147 -566.5831731286922
135.2522251913652 -667.8264350788088 -570.6572984967482
135.36690361148845 -677.0044400857661 -578.3879650640288
135.69275831997666 -686.7525091518323 -586.6025784421033
135.41648812596384 -692.9610188365417 -591.7917855487254
143.13674316242228 -740.0028574114688 -631.8453693099055
142.01664127117672 -741.2041161238816 -632.7524841654954
139.94311255888965 -736.8099504036711 -628.886113886074
137.34187789976227 -728.982366232335 -622.0945705806558
131.94372998358122 -705.556222616206 -602.0001614443669
123.71572608748858 -666.0816180813512 -568.226012677916
114.28300080776144 -619.134091199553 -528.0933849525893
104.85438786411869 -571.2676699236979 -487.1943505422153
96.14447279661668 -526.4827416662781 -448.93968845992845
86.28789337224214 -474.65673412257996 -404.69679277765476
76.86081657298867 -424.49564302728453 -361.8885735551134
67.54981509160567 -374.3458991425514 -319.0942111354098
58.846127746107 -327.08389186161315 -278.7832320764341

VECTORS L float
24.057679395872416 53.34360224849295 45.788757118803304
79.17468789329442 95.35614285714749 80.92187391950415
129.74513181466133 108.14390186080821 90.97658476449813
736.5252618682313 465.22851945017584 402.54284698715753
780.8674954719041 400.11453746116956 349.349121820501
916.0956109975041 397.14960807674225 347.4188822758376
1061.3272076258925 400.63425765446993 349.8155316987066
1115.935134925148 374.06160747293313 326.4336627851758
1168.602027110172 353.0399513750717 308.0855856497007
1348.44010736497 371.47534636355357 325.1956993362881
1667.036665270694 423.37491049570383 371.25170185194884
1826.290871664654 431.2280111513301 378.5790205616452
1822.6765361686107 402.9807173920741 354.05331048225247
1775.9100526247248 370.0369589032873 324.9093842847158
1864.870138871769 368.13080904341007 322.87848563136964
1948.5411366854803 365.9029605569645 320.77471472235817
1897.2289837306953 340.2687974484291 298.01336854020303
1891.0883697236213 324.9587100412728 284.45363912399523
1738.5989836016108 287.1319904805565 251.11787375706828
1839.351118507602 292.9988925947808 256.0362985216035
1889.2438390851937 290.823853597309 254.08152661263998
2065.740942567229 308.11044385474 268.90763371417523
2243.2870422919095 324.7746587441326 283.3875422193436
2191.479834761462 308.60828993828676 269.17916616330666
2398.476450945103 329.12621713886546 286.9907683158577
2559.5810064890456 342.96724115305784 298.7329103294735
2640.2601062166214 345.934513474417 301.15200497535875
2717.9324565682236 348.7328510120625 303.4587002518604
2801.318665180746 352.4996441110095 306.59315897402786
2886.6075524476696 356.70227114637277 310.1203231285851
2975.1384149193736 361.48934654800314 314.16252403185223
3059.2490359566464 365.9262416694404 317.8966202610428
2960.4493374559634 348.9612486768932 303.1017719300361
3039.216735194337 353.3656747634868 306.7933904964339
3115.8837551656225 357.74893440689107 310.50078799756795
3189.7575019315404 361.9737341649902 314.08082813643455
3258.217502628547 365.77713647096317 317.25191052861703
3501.1160845483105 389.113206748335 337.4139928545446
3539.308499522604 389.73630546802536 337.8359738734795
3548.8784526411255 387.4681267712534 335.7535185213131
3522.3580902787517 381.53549837738007 330.55203190986117
3448.8965455689586 370.9106469025733 321.1991822879485
3297.9667306749416 352.3695748340296 304.9903528932168
3086.9518364546843 327.8453440691056 283.67310466933816
2865.5634076175465 302.6770802020936 261.8200857691284
2641.44985022187 277.6196582762355 240.11876697370235
2394.272722153676 250.5431022939801 216.64312696847537
2152.368010873499 224.36396055156757 193.95815260285028
1902.9285863838643 197.71625596863953 170.88434269320533
1669.2151540199827 172.93870471788327 149.44006239637713
24.057679395872416 53.34360224849295 45.788757118803304
79.17468789329442 95.35614285714749 80.92187391950415