# vtk DataFile Version 4.0
[MyVLM domain - lattices] 
ASCII
DATASET UNSTRUCTURED_GRID
POINTS 152 float
0.0 -1.4999999999999758 -1.6729685287983622
0.0 -3.73636363636358 -1.8259104159977033
0.0 -5.931651205936832 -1.9429672071329387
0.0 -8.085862708719732 -2.0670653503984555
0.0 -10.19899814471228 -2.1985488133541233
0.0 -12.271057513914478 -2.3005016111659193
0.0 -14.302040816326326 -2.342344351569108
0.0 -16.291948051947816 -2.316183910728446
0.0 -18.240779220778958 -2.2701546085110667
0.0 -20.148534322819746 -2.2239654022137287
0.0 -22.015213358070184 -2.177368088906152
0.0 -23.84081632653027 -2.129999425960145
0.0 -25.6253432282 -2.0814599417502064
0.0 -27.36879406307938 -2.028462066726153
0.0 -29.071168831168418 -1.9731991232096608
0.0 -30.73246753246709 -1.9204789393856738
0.0 -32.352690166975414 -1.8710171880491644
0.0 -33.93183673469339 -1.823634503971041
0.0 -35.469907235621015 -1.7774812184982198
0.0 -36.966901669758286 -1.732557576643439
0.0 -38.422820037105204 -1.6888638168760723
0.0 -39.83766233766177 -1.6464001711221243
0.0 -41.21142857142799 -1.6051668647642348
0.0 -42.544118738403846 -1.5651641166416732
0.0 -43.83573283858935 -1.5263921390503452
0.0 -45.08627087198451 -1.4888511377427889
0.0 -46.29573283858931 -1.4525413119281743
0.0 -47.46411873840377 -1.4174628542723051
0.0 -48.591428571427876 -1.3836175479386905
0.0 -49.67766233766163 -1.3510275087234378
0.0 -50.72282003710503 -1.3196972323667742
0.0 -51.72690166975808 -1.2896235544435293
0.0 -52.68990723562078 -1.2608034348945871
0.0 -53.611836734693114 -1.2332339580268876
0.0 -54.49269016697511 -1.2069123325134243
0.0 -55.33246753246674 -1.181835891393246
0.0 -56.131168831168026 -1.1575801020609555
0.0 -56.888794063078954 -1.1328025171200586
0.0 -57.605343228199544 -1.1053728587594231
0.0 -58.280816326529774 -1.0741829289911076
0.0 -58.91521335806966 -1.0400092122336873
0.0 -59.50853432281919 -1.0025976343866083
0.0 -60.060779220778365 -0.9501715156147997
0.0 -60.57194805194719 -0.8829981979909034
0.0 -61.04204081632565 -0.8099943186005313
0.0 -61.47105751391378 -0.7372363138702269
0.0 -61.85899814471155 -0.6662628021176698
0.0 -62.20586270871896 -0.5956028474823136
0.0 -62.51165120593602 -0.5265458660950477
0.0 -62.77636363636273 -0.4616463422899354
0.0 -62.99999999999909 -0.40311562071437823
-0.7686761955390344 -1.4999999999999813 1.5799568380957891
-0.8409029948616161 -3.736363636363586 1.728116972232935
-0.8940476007249757 -5.931651205936839 1.8375356791681658
-0.9506443374492793 -8.08586270871974 1.9550792281255578
-1.0210144815146838 -10.198998144712288 2.0793048915071166
-1.048631451549771 -12.271057513914485 2.179692972732759
-0.9920275022819518 -14.30204081632633 2.2354425251651096
-0.9074715353829097 -16.291948051947823 2.2264836716631895
-0.8388231939293685 -18.240779220778965 2.192935796679878
-0.7803448823218929 -20.148534322819753 2.1551763956515764
-0.7251531968841737 -22.01521335807019 2.1154345505192858
-0.671766762046156 -23.840816326530277 2.076858613235107
-0.6188683613166902 -25.625343228200006 2.0352193917648274
-0.5668565661826578 -27.368794063079395 1.989127989968895
-0.5162677046190278 -29.07116883116842 1.9394218040109859
-0.4681223452427161 -30.732467532467094 1.8917316870243428
-0.42442582165628834 -32.352690166975414 1.8467056466819556
-0.3846819074085718 -33.93183673469339 1.8031600352042145
-0.3476243488905531 -35.469907235621015 1.760343998391564
-0.3131098246080671 -36.966901669758286 1.7183117926561642
-0.28048746260446866 -38.422820037105204 1.6771555410424566
-0.2502235469699514 -39.83766233766177 1.636863466776404
-0.2227998260917326 -41.21142857142799 1.597436033321812
-0.19746739264611052 -42.544118738403846 1.5589633081462013
-0.17533279734900953 -43.83573283858935 1.5214093911990016
-0.15613374469432648 -45.08627087198451 1.484832838927449
-0.13998404755873647 -46.29573283858931 1.4492649373532966
-0.12578653595324127 -47.46411873840377 1.414788294683006
-0.11250427274737486 -48.591428571427876 1.3814638025971095
-0.10008179164308317 -49.67766233766163 1.3493034317203483
-0.08845752889585208 -50.72282003710503 1.3183158820530092
-0.07764231497362577 -51.72690166975808 1.2885057050771496
-0.06766212708627829 -52.68990723562078 1.2598772827796498
-0.0584684819534103 -53.611836734693114 1.2324371297860608
-0.050013688763705585 -54.49269016697511 1.206191133438855
-0.042252254921319045 -55.33246753246674 1.1811445593783445
-0.03513536582041269 -56.131168831168026 1.1569727905848657
-0.028615518964613278 -56.888794063078954 1.1326311469862853
-0.022687693716904638 -57.605343228199544 1.1053113958562144
-0.017408965386693863 -58.280816326529774 1.0735610016948671
-0.013252482528008399 -58.91521335806966 1.0397440458797387
-0.010166684094042405 -59.50853432281919 1.0037397436373485
-0.00760098697125575 -60.060779220778365 0.9515922069599285
-0.005464879873870877 -60.57194805194719 0.8832558742200153
-0.0039015967321000085 -61.04204081632565 0.8092481826267649
-0.002883995165670249 -61.47105751391378 0.7365304832018411
-0.0022477517166190047 -61.85899814471155 0.6663352463066594
-0.00179874084072329 -62.20586270871896 0.5960211537297297
-0.0014595970466816986 -62.51165120593602 0.5266437251400575
-0.0012027506489664258 -62.77636363636273 0.46099361655463633
-0.0010073243559101815 -62.99999999999909 0.4014866009984165
-0.603592196400244 -2.618181818181782 0.8031678107737638
-0.6506064733449719 -4.834007421150211 0.8660100413840826
-0.6917594768153456 -7.008756957328288 0.920976520543722
-0.7393720571114861 -9.142430426716013 0.9796922743931802
-0.7761172248991705 -11.235027829313385 1.0347428960249476
-0.7652471076868961 -13.286549165120409 1.0753200663698226
-0.712312139124323 -15.296994434137074 1.0909062910234177
-0.6548605234921042 -17.266363636363394 1.0839899857237107
-0.607188028594223 -19.19465677179936 1.0687770707836957
-0.564561779702275 -21.081873840444974 1.0513124184240883
-0.5238449845988737 -22.928014842300232 1.03368899704961
-0.48398817126106725 -24.733079777365138 1.0155968309111816
-0.4446468478122555 -26.497068645639693 0.9953900170906008
-0.4061716015506322 -28.219981447123907 0.9729985240004786
-0.369146268698154 -29.90181818181775 0.9499728013138313
-0.3347055625871267 -31.542578849721256 0.9279769842105069
-0.3034153983993225 -33.142263450834406 0.9068681692047882
-0.27461484611217185 -34.70087198515721 0.8861745472897593
-0.24777531506198255 -36.218404452689654 0.8657410722501909
-0.22259898270470088 -37.69486085343175 0.8456225759470438
-0.19901662859040753 -39.13024118738349 0.8258491294322984
-0.1773837648981315 -40.52454545454488 0.806416433051036
-0.15760020702669117 -41.87777365491591 0.7873583803747665
-0.13980007124817 -43.1899257884966 0.7686952302929487
-0.124299953266251 -44.46100185528693 0.7504354266982775
-0.11104417209489861 -45.69100185528691 0.7326126098964094
-0.09966396881699166 -46.879925788496536 0.7152694412385533
-0.08935905326273105 -48.02777365491582 0.6984594862036685
-0.07971977414642176 -49.13454545454475 0.6822070807862808
-0.07070224520210072 -50.20024118738333 0.6665166500287325
-0.06228744145105419 -51.22486085343155 0.6513929968225218
-0.05448916577246402 -52.20840445268943 0.6368402467790355
-0.04729897838988322 -53.15087198515693 0.6228632305969573
-0.04068081401891846 -54.0522634508341 0.6094673123918044
-0.03459972888188424 -54.91257884972092 0.5966573568181159
-0.029020357778149403 -55.731818181817374 0.5843670070544288
-0.023906581794384738 -56.50998144712349 0.5723036491915551
-0.019238704755569217 -57.24706864563925 0.5594565315810024
-0.015036247163849435 -57.94307977736466 0.5446326756128392
-0.011498042968013347 -58.59801484229971 0.5282153751873778
-0.00878218748326905 -59.211873840444426 0.5109805652413706
-0.006662876649486808 -59.78465677179878 0.4891533377238028
-0.004899700066922485 -60.31636363636277 0.45892181624176603
-0.0035124287272390825 -60.80699443413642 0.4230649567436133
-0.0025445969616638467 -61.256549165119715 0.3862631706268824
-0.0019244050808584702 -61.66502782931267 0.35063725906720045
-0.0015174347090033604 -62.03243042671525 0.3156504438136481
-0.0012218767077768707 -62.358756957327486 0.28073074037900003
-0.0009983803858680466 -62.64400742114937 0.24683997708738722
-0.0008287781268287279 -62.88818181818091 0.2153348362068556

CELLS 100 350
4 0 51 52 1
4 1 52 53 2
4 2 53 54 3
4 3 54 55 4
4 4 55 56 5
4 5 56 57 6
4 6 57 58 7
4 7 58 59 8
4 8 59 60 9
4 9 60 61 10
4 10 61 62 11
4 11 62 63 12
4 12 63 64 13
4 13 64 65 14
4 14 65 66 15
4 15 66 67 16
4 16 67 68 17
4 17 68 69 18
4 18 69 70 19
4 19 70 71 20
4 20 71 72 21
4 21 72 73 22
4 22 73 74 23
4 23 74 75 24
4 24 75 76 25
4 25 76 77 26
4 26 77 78 27
4 27 78 79 28
4 28 79 80 29
4 29 80 81 30
4 30 81 82 31
4 31 82 83 32
4 32 83 84 33
4 33 84 85 34
4 34 85 86 35
4 35 86 87 36
4 36 87 88 37
4 37 88 89 38
4 38 89 90 39
4 39 90 91 40
4 40 91 92 41
4 41 92 93 42
4 42 93 94 43
4 43 94 95 44
4 44 95 96 45
4 45 96 97 46
4 46 97 98 47
4 47 98 99 48
4 48 99 100 49
4 49 100 101 50
1 102
1 103
1 104
1 105
1 106
1 107
1 108
1 109
1 110
1 111
1 112
1 113
1 114
1 115
1 116
1 117
1 118
1 119
1 120
1 121
1 122
1 123
1 124
1 125
1 126
1 127
1 128
1 129
1 130
1 131
1 132
1 133
1 134
1 135
1 136
1 137
1 138
1 139
1 140
1 141
1 142
1 143
1 144
1 145
1 146
1 147
1 148
1 149
1 150
1 151

CELL_TYPES 100
9
9
9
9
9
9
9
9
9
9
9
9
9
9
9
9
9
9
9
9
9
9
9
9
9
9
9
9
9
9
9
9
9
9
9
9
9
9
9
9
9
9
9
9
9
9
9
9
9
9
1
1
1
1
1
1
1
1
1
1
1
1
1
1
1
1
1
1
1
1
1
1
1
1
1
1
1
1
1
1
1
1
1
1
1
1
1
1
1
1
1
1
1
1
1
1
1
1
1
1

CELL_DATA 100

VECTORS S float
-3.4797810596258695e-18 -8.763894728361528e-16 1.4418837764105353e-16
-0.0 -0.0 0.0
-2.567599739812412e-17 -3.5034091564121565e-15 5.892703195149601e-16
0.0 -0.0 0.0
1.8780392630736458e-17 -7.015788690567049e-15 1.1249241220228486e-15
-2.199262975104314e-17 7.015139785728352e-15 -1.1289056847551853e-15
1.907060867316558e-17 -7.0141171379548665e-15 1.1352951251007046e-15
-1.7983522996650518e-17 7.013419576962991e-15 -1.1396141296586556e-15
1.845364386646582e-17 -7.012915527182487e-15 1.1427043387401592e-15
4.098321573452288e-17 -1.4025223274975002e-14 2.289066228772466e-15
4.31934361534694e-17 -1.4024638075131688e-14 2.292608323551753e-15
0.0 -0.0 0.0
-4.394609013646773e-17 1.4023570536919739e-14 -2.2991150196928774e-15
8.210757753404526e-17 -2.8045649536006968e-14 4.607425245785307e-15
0.0 -0.0 0.0
0.0 -0.0 0.0
0.0 -0.0 0.0
3.1450705392372716e-17 -1.4021079905766604e-14 2.3144590870908276e-15
0.0 -0.0 0.0
2.77856187330218e-17 -1.4020244276052538e-14 2.319562488010749e-15
0.0 -0.0 0.0
0.0 -0.0 0.0
0.0 -0.0 0.0
2.3467734275277548e-17 -1.4019249448164015e-14 2.3256151685478792e-15
0.0 -0.0 0.0
0.0 -0.0 0.0
4.0728331379310236e-17 -2.8036693373076075e-14 4.6621596769577974e-15
-1.9704474338461858e-17 1.401809501121012e-14 -2.3325984924448515e-15
-1.903890747624625e-17 1.401784333330433e-14 -2.3341160081530854e-15
0.0 -0.0 0.0
1.795910671808916e-17 -1.4017344849629981e-14 2.3371162944142872e-15
0.0 -0.0 0.0
0.0 -0.0 0.0
-1.66522068109061e-17 1.4016600768682705e-14 -2.341584363620235e-15
0.0 -0.0 0.0
0.0 -0.0 0.0
0.0 -0.0 0.0
0.0 -0.0 0.0
-1.5273242568048058e-17 1.4015612099145993e-14 -2.3475041961438345e-15
1.4973946643035458e-17 -1.4015378575681624e-14 2.3488999335487744e-15
0.0 -0.0 0.0
0.0 -0.0 0.0
0.0 -0.0 0.0
1.377684297791374e-17 -1.401452689654485e-14 2.3539833901703003e-15
-1.355817415491784e-17 1.4014342709490095e-14 -2.3550809611252014e-15
-6.75500341865308e-18 7.007087856036249e-15 -1.178037385596435e-15
-6.657778891665279e-18 7.0070098536608134e-15 -1.1785018111251428e-15
0.0 -0.0 0.0
0.0 -0.0 0.0
-6.44063060635868e-18 7.0068238452976e-15 -1.179608432231267e-15
-3.4797810596258695e-18 -8.763894728361528e-16 1.4418837764105353e-16
-0.0 -0.0 0.0
-2.567599739812412e-17 -3.5034091564121565e-15 5.892703195149601e-16
0.0 -0.0 0.0
1.8780392630736458e-17 -7.015788690567049e-15 1.1249241220228486e-15
-2.199262975104314e-17 7.015139785728352e-15 -1.1289056847551853e-15
1.907060867316558e-17 -7.0141171379548665e-15 1.1352951251007046e-15
-1.7983522996650518e-17 7.013419576962991e-15 -1.1396141296586556e-15
1.845364386646582e-17 -7.012915527182487e-15 1.1427043387401592e-15
4.098321573452288e-17 -1.4025223274975002e-14 2.289066228772466e-15
4.31934361534694e-17 -1.4024638075131688e-14 2.292608323551753e-15
0.0 -0.0 0.0
-4.394609013646773e-17 1.4023570536919739e-14 -2.2991150196928774e-15
8.210757753404526e-17 -2.8045649536006968e-14 4.607425245785307e-15
0.0 -0.0 0.0
0.0 -0.0 0.0
0.0 -0.0 0.0
3.1450705392372716e-17 -1.4021079905766604e-14 2.3144590870908276e-15
0.0 -0.0 0.0
2.77856187330218e-17 -1.4020244276052538e-14 2.319562488010749e-15
0.0 -0.0 0.0
0.0 -0.0 0.0
0.0 -0.0 0.0
2.3467734275277548e-17 -1.4019249448164015e-14 2.3256151685478792e-15
0.0 -0.0 0.0
0.0 -0.0 0.0
4.0728331379310236e-17 -2.8036693373076075e-14 4.6621596769577974e-15
-1.9704474338461858e-17 1.401809501121012e-14 -2.3325984924448515e-15
-1.903890747624625e-17 1.401784333330433e-14 -2.3341160081530854e-15
0.0 -0.0 0.0
1.795910671808916e-17 -1.4017344849629981e-14 2.3371162944142872e-15
0.0 -0.0 0.0
0.0 -0.0 0.0
-1.66522068109061e-17 1.4016600768682705e-14 -2.341584363620235e-15
0.0 -0.0 0.0
0.0 -0.0 0.0
0.0 -0.0 0.0
0.0 -0.0 0.0
-1.5273242568048058e-17 1.4015612099145993e-14 -2.3475041961438345e-15
1.4973946643035458e-17 -1.4015378575681624e-14 2.3488999335487744e-15
0.0 -0.0 0.0
0.0 -0.0 0.0
0.0 -0.0 0.0
1.377684297791374e-17 -1.401452689654485e-14 2.3539833901703003e-15
-1.355817415491784e-17 1.4014342709490095e-14 -2.3550809611252014e-15
-6.75500341865308e-18 7.007087856036249e-15 -1.178037385596435e-15
-6.657778891665279e-18 7.0070098536608134e-15 -1.1785018111251428e-15
0.0 -0.0 0.0
0.0 -0.0 0.0
-6.44063060635868e-18 7.0068238452976e-15 -1.179608432231267e-15

SCALARS Gamma float
LOOKUP_TABLE default
-0.0
-0.0
-0.0
51.14153007878058
54.769223421801556
54.798892685006244
52.653364200759626
47.95283796578997
44.93215574654065
47.549738224496295
54.150467185816765
54.78639763918022
50.83477842052247
45.94035384303279
44.93451972339401
44.14110942714264
40.54597546521399
38.36273465131375
33.61255046059398
33.920066708280956
33.45100946612723
35.081387675040794
36.7120992726933
34.654216675222116
36.73599154199343
38.075057341582486
38.187029742052104
38.29997630965206
38.515972308719654
38.787134578315495
39.12586307905573
39.42821685649575
37.45780861232932
37.77499007918786
38.081757828220056
38.36778352764889
38.622233021057774
40.95470027158266
40.88005962713981
40.510481458971185
39.78611468240138
38.55491954874681
36.512644633441354
33.886703052417715
31.218202482
28.584955387970236
25.749555928177042
23.016528067503096
20.25110454834852
17.69162784803864
-0.0
-0.0
-0.0
51.14153007878058
54.769223421801556
54.798892685006244
52.653364200759626
47.95283796578997
44.93215574654065
47.549738224496295
54.150467185816765
54.78639763918022
50.83477842052247
45.94035384303279
44.93451972339401
44.14110942714264
40.54597546521399
38.36273465131375
33.61255046059398
33.920066708280956
33.45100946612723
35.081387675040794
36.7120992726933
34.654216675222116
36.73599154199343
38.075057341582486
38.187029742052104
38.29997630965206
38.515972308719654
38.787134578315495
39.12586307905573
39.42821685649575
37.45780861232932
37.77499007918786
38.081757828220056
38.36778352764889
38.622233021057774
40.95470027158266
40.88005962713981
40.510481458971185
39.78611468240138
38.55491954874681
36.512644633441354
33.886703052417715
31.218202482
28.584955387970236
25.749555928177042
23.016528067503096
20.25110454834852
17.69162784803864

VECTORS Ftot float
115.62715894870965 -6.859544425681254 -38.902409592226476
139.31019134291483 -15.268804066622632 -86.59369091034272
142.4794435831638 -22.653271142071826 -128.47308478290367
1270.1564271802254 2.2759206250108415 12.907387263517084
1299.4315023183153 38.369180874356175 217.60243792636174
1392.7771282951458 49.98524263342422 283.48039779612157
1475.410993053571 48.88810038959675 277.2581949351682
1465.1509677221632 47.876324107985354 271.52012650374496
1481.324767081999 51.3525402472647 291.2347278955018
1674.2684411902878 65.7701372117662 373.0009834428554
2034.353405458377 85.92787015721466 487.3211678210872
2191.4746834020057 96.0199479877772 544.5561853437241
2158.0678342668725 96.3179598530638 546.2462946173544
2069.914712933447 88.71993725148556 503.1557671719788
2141.4044272627307 86.21675370226549 488.9595078181208
2212.940326616532 85.89133447477901 487.11396366952266
2133.4338861514475 78.02870465220141 442.52277410235394
2109.8567763982996 74.13054173002044 420.41519359188095
1928.1650480866379 63.91236278546178 362.4650211140044
2022.3608229066454 64.93607885092 368.2708034244882
2066.995134576749 64.88541263159503 367.9834610159617
2244.918942265733 66.16449010489717 375.23746983618275
2424.5630265865693 70.01050852490413 397.0493241794833
2357.7663693696513 66.66193561455265 378.0586235113423
2570.1842408984317 71.4807233403489 405.38732673324785
2738.046665785323 71.95397243221186 408.0712557040809
2816.035876690306 71.85018934876024 407.4826725897178
2891.657443921252 72.19136065036909 409.41755118990744
2973.408866078654 72.53903899517108 411.3893330658577
3057.6400227068366 73.17051672582838 414.970621239228
3145.6302915783444 74.04998349327056 419.9583251283809
3229.25010343034 74.84393100026408 424.461025190524
3121.1464054393377 72.11532730831587 408.98634467943623
3200.2179427058168 72.3256491348374 410.1791390304566
3275.992267140916 73.3658587964544 416.0784611729759
3348.402063294001 74.54846260614428 422.7853406586808
3416.7175208548165 75.08480525859531 425.8270909926119
3668.6930420542667 80.47016817418675 456.3690017878493
3705.4898670957264 80.5902522897252 457.0500326491274
3712.5636550487893 80.09122993794875 454.2199362579147
3682.921150048967 79.61471500156541 451.51748576242767
3603.2420111173465 76.73782128918313 435.2018107544212
3442.8339917440976 71.93110042791152 407.94154212191415
3220.7770659116513 66.78289836066344 378.7446373342115
2988.688543194274 61.5809179297004 349.2427402900835
2754.025733039421 57.047284923751434 323.53122984662605
2495.418587791562 51.37370317808565 291.3547488403165
2242.1619367272924 45.865586581881175 260.1166673279272
1981.5717573334248 40.46546246838372 229.4910416193695
1737.8058712851243 35.315354901987796 200.28333020899245
115.62715894870965 -6.859544425681254 -38.902409592226476
139.31019134291483 -15.268804066622632 -86.59369091034272
142.4794435831638 -22.653271142071826 -128.47308478290367
1270.1564271802254 2.2759206250108415 12.907387263517084
1299.4315023183153 38.369180874356175 217.60243792636174
1392.7771282951458 49.98524263342422 283.48039779612157
1475.410993053571 48.88810038959675 277.2581949351682
1465.1509677221632 47.876324107985354 271.52012650374496
1481.324767081999 51.3525402472647 291.2347278955018
1674.2684411902878 65.7701372117662 373.0009834428554
2034.353405458377 85.92787015721466 487.3211678210872
2191.4746834020057 96.0199479877772 544.5561853437241
2158.0678342668725 96.3179598530638 546.2462946173544
2069.914712933447 88.71993725148556 503.1557671719788
2141.4044272627307 86.21675370226549 488.9595078181208
2212.940326616532 85.89133447477901 487.11396366952266
2133.4338861514475 78.02870465220141 442.52277410235394
2109.8567763982996 74.13054173002044 420.41519359188095
1928.1650480866379 63.91236278546178 362.4650211140044
2022.3608229066454 64.93607885092 368.2708034244882
2066.995134576749 64.88541263159503 367.9834610159617
2244.918942265733 66.16449010489717 375.23746983618275
2424.5630265865693 70.01050852490413 397.0493241794833
2357.7663693696513 66.66193561455265 378.0586235113423
2570.1842408984317 71.4807233403489 405.38732673324785
2738.046665785323 71.95397243221186 408.0712557040809
2816.035876690306 71.85018934876024 407.4826725897178
2891.657443921252 72.19136065036909 409.41755118990744
2973.408866078654 72.53903899517108 411.3893330658577
3057.6400227068366 73.17051672582838 414.970621239228
3145.6302915783444 74.04998349327056 419.9583251283809
3229.25010343034 74.84393100026408 424.461025190524
3121.1464054393377 72.11532730831587 408.98634467943623
3200.2179427058168 72.3256491348374 410.1791390304566
3275.992267140916 73.3658587964544 416.0784611729759
3348.402063294001 74.54846260614428 422.7853406586808
3416.7175208548165 75.08480525859531 425.8270909926119
3668.6930420542667 80.47016817418675 456.3690017878493
3705.4898670957264 80.5902522897252 457.0500326491274
3712.5636550487893 80.09122993794875 454.2199362579147
3682.921150048967 79.61471500156541 451.51748576242767
3603.2420111173465 76.73782128918313 435.2018107544212
3442.8339917440976 71.93110042791152 407.94154212191415
3220.7770659116513 66.78289836066344 378.7446373342115
2988.688543194274 61.5809179297004 349.2427402900835
2754.025733039421 57.047284923751434 323.53122984662605
2495.418587791562 51.37370317808565 291.3547488403165
2242.1619367272924 45.865586581881175 260.1166673279272
1981.5717573334248 40.46546246838372 229.4910416193695
1737.8058712851243 35.315354901987796 200.28333020899245

VECTORS D float
91.45208323973941 4.719603126395284 30.89322312889466
59.928841586014656 5.914501540895198 37.36640805705296
12.528462276352206 1.8135918344642445 11.328306861206157
529.65762348841 100.86957252819849 624.7637996460802
515.201342223177 120.97628206002013 745.8888395991409
472.8003594277269 131.5598836873334 808.3162865883172
410.14227933429646 131.55740136786483 805.9026595119796
345.5142315667101 125.14830131191106 764.736028305132
308.64828135620365 124.20150731448979 757.2553672414789
321.57780895243474 141.94873592881535 863.9695074890517
359.8091807256409 172.4258301954617 1048.0065189234322
356.3937954576634 183.83949250644494 1116.080262542781
323.4332536329551 178.3100028817537 1081.428834415375
280.2584972262658 164.25715188034187 994.8478650459135
260.99841861144733 161.65301212726308 978.2091633502193
247.10981182142464 161.01904061056908 973.6248011632356
216.98887743285002 148.17532772556274 895.3606776907019
198.09361027666347 141.2781290757781 853.1763486101661
166.36040874546006 123.53883820342192 745.6557359065093
162.9264433496384 125.71424366784565 757.9090463191696
156.80749864512242 125.26979487857602 754.7984954036422
157.8661293056122 130.27525401780886 784.5472841403906
161.66575544432052 137.52015216215077 827.7790636035829
149.43300350502827 130.77251571430585 786.8136093587394
155.56664005472638 139.8010780157131 840.7903716446172
155.9273896586929 143.6095238638457 862.7944883795457
152.9912915232133 144.2162048217247 865.9322532321473
150.74234267866194 145.21170394465474 871.3977868871964
148.9557920725619 146.42510681569507 878.1604019259231
147.74826368285866 148.0073276835126 887.1213989945375
147.08009463014403 149.956236840898 898.263754376934
146.41715400203535 151.75182657843374 908.4707754091487
138.24457403125197 145.4907759297765 870.4601382167665
137.48248279831023 146.76575874094308 877.5543994798527
137.48497248262214 148.66412247645775 888.9090861474709
137.63423543528327 150.72709158167774 900.6794415866648
137.33739112343406 152.1474138407005 908.6065904346315
145.11768415835482 162.50200279934464 969.8521656357669
143.96226978380082 162.82445695541722 971.1955625124151
141.84143441920918 161.91706270294276 965.2199198405228
139.16386651563593 160.2265462195016 954.6029102148568
133.73125795224672 155.19298782101112 924.1109901010793
125.37869987591205 146.56074845050708 872.255538033323
115.80652192070377 136.2741531175903 810.6354292346849
106.25388776066364 125.79125158985983 747.9322919240602
97.40969379381076 115.95180415311604 689.1347302540671
87.42034547758657 104.57008667285997 621.2477532682617
77.8512523142717 93.52645114326872 555.4427666340858
68.39295211363586 82.47301140434345 489.64549666143364
59.58119333445792 72.07785760062438 427.81409246295317
91.45208323973941 4.719603126395284 30.89322312889466
59.928841586014656 5.914501540895198 37.36640805705296
12.528462276352206 1.8135918344642445 11.328306861206157
529.65762348841 100.86957252819849 624.7637996460802
515.201342223177 120.97628206002013 745.8888395991409
472.8003594277269 131.5598836873334 808.3162865883172
410.14227933429646 131.55740136786483 805.9026595119796
345.5142315667101 125.14830131191106 764.736028305132
308.64828135620365 124.20150731448979 757.2553672414789
321.57780895243474 141.94873592881535 863.9695074890517
359.8091807256409 172.4258301954617 1048.0065189234322
356.3937954576634 183.83949250644494 1116.080262542781
323.4332536329551 178.3100028817537 1081.428834415375
280.2584972262658 164.25715188034187 994.8478650459135
260.99841861144733 161.65301212726308 978.2091633502193
247.10981182142464 161.01904061056908 973.6248011632356
216.98887743285002 148.17532772556274 895.3606776907019
198.09361027666347 141.2781290757781 853.1763486101661
166.36040874546006 123.53883820342192 745.6557359065093
162.9264433496384 125.71424366784565 757.9090463191696
156.80749864512242 125.26979487857602 754.7984954036422
157.8661293056122 130.27525401780886 784.5472841403906
161.66575544432052 137.52015216215077 827.7790636035829
149.43300350502827 130.77251571430585 786.8136093587394
155.56664005472638 139.8010780157131 840.7903716446172
155.9273896586929 143.6095238638457 862.7944883795457
152.9912915232133 144.2162048217247 865.9322532321473
150.74234267866194 145.21170394465474 871.3977868871964
148.9557920725619 146.42510681569507 878.1604019259231
147.74826368285866 148.0073276835126 887.1213989945375
147.08009463014403 149.956236840898 898.263754376934
146.41715400203535 151.75182657843374 908.4707754091487
138.24457403125197 145.4907759297765 870.4601382167665
137.48248279831023 146.76575874094308 877.5543994798527
137.48497248262214 148.66412247645775 888.9090861474709
137.63423543528327 150.72709158167774 900.6794415866648
137.33739112343406 152.1474138407005 908.6065904346315
145.11768415835482 162.50200279934464 969.8521656357669
143.96226978380082 162.82445695541722 971.1955625124151
141.84143441920918 161.91706270294276 965.2199198405228
139.16386651563593 160.2265462195016 954.6029102148568
133.73125795224672 155.19298782101112 924.1109901010793
125.37869987591205 146.56074845050708 872.255538033323
115.80652192070377 136.2741531175903 810.6354292346849
106.25388776066364 125.79125158985983 747.9322919240602
97.40969379381076 115.95180415311604 689.1347302540671
87.42034547758657 104.57008667285997 621.2477532682617
77.8512523142717 93.52645114326872 555.4427666340858
68.39295211363586 82.47301140434345 489.64549666143364
59.58119333445792 72.07785760062438 427.81409246295317

VECTORS L float
24.17507570897025 -11.579147552076536 -69.79563272112114
79.38134975690019 -21.18330560751783 -123.9600989673957
129.9509813068116 -24.466862976536074 -139.80139164410986
740.4988036918156 -98.59365190318766 -611.8564123825631
784.2301600951383 -82.60710118566392 -528.286401672779
919.9767688674189 -81.57464105390913 -524.8358887921952
1065.2687137192747 -82.66930097826808 -528.6444645768113
1119.636736155453 -77.27197720392569 -493.21590180138696
1172.6764857257956 -72.84896706722506 -466.02063934597686
1352.6906322378532 -76.17859871704914 -490.9685240461963
1674.5442247327364 -86.49796003824703 -560.6853511023448
1835.080887944342 -87.81954451866781 -571.524077199057
1834.6345806339177 -81.99204302868993 -535.1825397980207
1789.656215707181 -75.53721462885636 -491.6920978739348
1880.4060086512839 -75.4362584249976 -489.2496555320985
1965.8305147951075 -75.12770613579006 -486.51083749371304
1916.4450087185976 -70.14662307336135 -452.83790358834807
1911.7631661216358 -67.14758734575769 -432.76115501828514
1761.804639341178 -59.62647541796013 -383.1907147925049
1859.4343795570067 -60.77816481692571 -389.6382428946817
1910.187635931627 -60.38438224698103 -386.8150343876805
2087.0528129601207 -64.11076391291171 -409.30981430420775
2262.8972711422493 -67.50964363724661 -430.7297394240996
2208.3333658646234 -64.11058009975321 -408.75498584739705
2414.617600843705 -68.32035467536413 -435.403044911369
2582.1192761266298 -71.65555143163388 -454.7232326754648
2663.0445851670925 -72.36601547296448 -458.44958064242957
2740.9151012425905 -73.02034329428571 -461.9802356972891
2824.453074006092 -73.88606782052398 -466.7710688600655
2909.891759023978 -74.83681095768422 -472.15077775530955
2998.5501969482007 -75.90625334762743 -478.30542924855325
3082.8329494283043 -76.90789557816967 -484.0097502186246
2982.901831408086 -73.37544862146068 -461.4737935373306
3062.735459907507 -74.44010960610565 -467.3752604493961
3138.5072946582945 -75.29826368000334 -472.8306249744951
3210.7678278587177 -76.17862897553351 -477.8941009279841
3279.380129731383 -77.0626085821052 -482.77949944201936
3523.575357895912 -82.0318346251579 -513.4831638479177
3561.5275973119255 -82.23420466569202 -514.1455298632877
3570.7222206295805 -81.82583276499402 -510.99998358260797
3543.75728353333 -80.61183121793623 -503.0854244524296
3469.5107531651006 -78.455166531828 -488.9091793466582
3317.455291868186 -74.62964802259556 -464.31399591140894
3104.9705439909485 -69.49125475692686 -431.8907919004735
2882.434655433611 -64.21033366015945 -398.68955163397675
2656.61603924561 -58.90451922936455 -365.6035004074409
2407.9982423139754 -53.19638349477432 -329.89300442794524
2164.310684413021 -47.660864561387555 -295.32609930615877
1913.1788052197892 -42.007548935959754 -260.15445504206434
1678.224677950666 -36.76250269863659 -227.5307622539607
24.17507570897025 -11.579147552076536 -69.79563272112114
79.38134975690019 -21.18330560751783 -123.9600989673957
129.9509813068116 -24.466862976536074 -139.80139164410986
740.4988036918156 -98.59365190318766 -611.8564123825631
784.2301600951383 -82.60710118566392 -528.286401672779
919.9767688674189 -81.57464105390913 -524.8358887921952
1065.2687137192747 -82.66930097826808 -528.6444645768113
1119.636736155453 -77.27197720392569 -493.21590180138696
1172.6764857257956 -72.84896706722506 -466.02063934597686
1352.6906322378532 -76.17859871704914 -490.9685240461963