# vtk DataFile Version 4.0
[MyVLM domain - lattices] 
ASCII
DATASET UNSTRUCTURED_GRID
POINTS 152 float
0.0 0.3173868304691281 -2.224430106385568
0.0 -1.0029597229297518 -4.035893192909083
0.0 -2.3243926679718343 -5.792823691600247
0.0 -3.614028437554977 -7.522814191486262
0.0 -4.871603537241326 -9.226085790652746
0.0 -6.125397252075251 -10.878909351449016
0.0 -7.39883475557511 -12.461628819415552
0.0 -8.697962531393735 -13.96917059234934
0.0 -9.985907551273602 -15.432474814661662
0.0 -11.24757187799786 -16.86421015990271
0.0 -12.483145646042013 -18.26421708630422
0.0 -13.69290711540289 -19.632262106005477
0.0 -14.877162299099394 -20.96808844359519
0.0 -16.038429621516812 -22.269582890100512
0.0 -17.175028900278647 -23.538155285933875
0.0 -18.283277125320357 -24.776896043482054
0.0 -19.36262605947426 -25.986265188350245
0.0 -20.413979148920514 -27.165504639181915
0.0 -21.437987277609302 -28.314068239494496
0.0 -22.434650257849977 -29.431956146779147
0.0 -23.403967906964404 -30.519168514321038
0.0 -24.345940047286952 -31.57570549119931
0.0 -25.260566506164505 -32.60156722228716
0.0 -26.14784711595646 -33.59675384825173
0.0 -27.007781714034703 -34.56126550555421
0.0 -27.84037014278366 -35.495102326449796
0.0 -28.645612249600255 -36.398264438987646
0.0 -29.42350788689391 -37.27075196701097
0.0 -30.174055688682138 -38.112566056715195
0.0 -30.89723871328221 -38.92372092386
0.0 -31.593053516757326 -39.704219458251515
0.0 -32.26150252319779 -40.45405962583646
0.0 -32.902588061424 -41.17323947250248
0.0 -33.516312364986426 -41.86175712407822
0.0 -34.10267757216559 -42.51961078633326
0.0 -34.66168572597214 -43.14679874497814
0.0 -35.19366203724934 -43.74304811571422
0.0 -35.699634880365466 -44.30749598998835
0.0 -36.18123614280003 -44.83877305161837
0.0 -36.63931475346357 -45.336166964668536
0.0 -37.07327589078207 -45.80017684370224
0.0 -37.48331418680841 -46.230639373035686
0.0 -37.87845110168862 -46.61998464878765
0.0 -38.25848183951354 -46.968384515129976
0.0 -38.61657585999244 -47.28157047590136
0.0 -38.94807834276679 -47.56344838914784
0.0 -39.25181063782426 -47.81500725966006
0.0 -39.528899547407015 -48.0353015880922
0.0 -39.778357321453086 -48.22516019515695
0.0 -39.99822711143337 -48.38622507173338
0.0 -40.18681492906888 -48.51991764276156
-0.7686761955390344 -2.1744985707209197 -0.13348998531096057
-0.8409029948616161 -3.7255026543765095 -1.751408423267809
-0.8940476007249757 -5.220425896218076 -3.3627632779016885
-0.9506443374492793 -6.695169941354447 -4.93742949204313
-1.0210144815146838 -8.14862959632624 -6.476334433116274
-1.048631451549771 -9.557425417162603 -7.9990957839341945
-0.9920275022819518 -10.905622954280366 -9.519084135265144
-0.9074715353829097 -12.177847789821598 -11.049200155463277
-0.8388231939293685 -13.40483315530778 -12.563655601294034
-0.7803448823218929 -14.602189117882654 -14.049352071174447
-0.7251531968841737 -15.771623253380378 -15.504856738851867
-0.671766762046156 -16.91554733931884 -16.92814588270055
-0.6188683613166902 -18.030721626641352 -18.321937974959077
-0.5668565661826578 -19.116082159178138 -19.687125780857087
-0.5162677046190278 -20.17227041960707 -21.023171032516178
-0.4681223452427161 -21.20359989168089 -22.326454287310327
-0.42442582165628834 -22.210566978076592 -23.59655901393636
-0.3846819074085718 -23.192264951989998 -24.834246046521248
-0.3476243488905531 -24.148118625733936 -26.039998024841143
-0.3131098246080671 -25.078169562131453 -27.213780073546555
-0.28048746260446866 -25.982488331528828 -28.35553297708596
-0.2502235469699514 -26.86106591239374 -29.46526430542378
-0.2227998260917326 -27.713902659760077 -30.542973760651236
-0.19746739264611052 -28.541067569310833 -31.58860344851616
-0.17533279734900953 -29.342533140011756 -32.60217644512625
-0.15613374469432648 -30.11834422870386 -33.58365511112276
-0.13998404755873647 -30.868524801870265 -34.53301933623854
-0.12578653595324127 -31.59313814106848 -35.45021602094203
-0.11250427274737486 -32.292230892032016 -36.335206024815456
-0.10008179164308317 -32.965812224791435 -37.187981653289526
-0.08845752889585208 -33.613888803933605 -38.00853731411188
-0.07764231497362577 -34.236464116096066 -38.796870081646226
-0.06766212708627829 -34.83354151807552 -39.5529771392057
-0.0584684819534103 -35.405126000364675 -40.276854299269715
-0.050013688763705585 -35.9512220729295 -40.96849777752749
-0.042252254921319045 -36.47183376948451 -41.627904189290646
-0.03513536582041269 -36.96671241896564 -42.25528219435734
-0.028615518964613278 -37.43505775000881 -42.851303300134006
-0.022687693716904638 -37.874718531538974 -43.41777260382231
-0.017408965386693863 -38.28458205680809 -43.95562377724413
-0.013252482528008399 -38.66645931721847 -44.463337218181714
-0.010166684094042405 -39.020257786265574 -44.9409905655909
-0.00760098697125575 -39.33528663349226 -45.397554491365256
-0.005464879873870877 -39.61151095666699 -45.8330582819544
-0.0039015967321000085 -39.85698758011969 -46.24074145903461
-0.002883995165670249 -40.07704920811712 -46.6161293524225
-0.0022477517166190047 -40.272639967730925 -46.958429745440434
-0.00179874084072329 -40.44173649182271 -47.269340444708
-0.0014595970466816986 -40.58514735536949 -47.5481829752602
-0.0012027506489664258 -40.705010324905786 -47.79316353798639
-0.0010073243559101815 -40.80317598993315 -48.002729303918315
-0.603592196400244 -2.298197070969114 -1.4893773156288699
-0.6506064733449719 -3.7706422553356678 -3.146403998502228
-0.6917594768153456 -5.210651077280547 -4.77702702411512
-0.7393720571114861 -6.6271288234797945 -6.373773969702153
-0.7761172248991705 -8.014395728722889 -7.941410724156646
-0.7652471076868961 -9.36417214024741 -9.486884741057823
-0.712312139124323 -10.668401189909343 -11.016956535493769
-0.6548605234921042 -11.928989114756934 -12.530026584660368
-0.607188028594223 -13.156818281105348 -14.016963498996228
-0.564561779702275 -14.35651932972862 -15.473881709535735
-0.5238449845988737 -15.52969556744282 -16.899435882120866
-0.48398817126106725 -16.676109539047857 -18.293825265322443
-0.4446468478122555 -17.794500409759333 -19.658107825143023
-0.4061716015506322 -18.884814532268887 -20.992328577019272
-0.369146268698154 -19.948239619932863 -22.29549091111193
-0.3347055625871267 -20.986050474258384 -23.566525141946546
-0.3034153983993225 -21.998137624824317 -24.805523126113123
-0.27461484611217185 -22.984139644962703 -26.01278813659545
-0.24777531506198255 -23.943937762381932 -27.18841983517959
-0.22259898270470088 -24.877573980724403 -28.33238297662471
-0.19901662859040753 -25.785071335752384 -29.44465823163119
-0.1773837648981315 -26.666426533739116 -30.52524836396394
-0.15760020702669117 -27.52166553866671 -31.574131587255135
-0.13980007124817 -28.35080386974486 -32.59129487934165
-0.124299953266251 -29.15384799537065 -33.57673281259388
-0.11104417209489861 -29.930823685513285 -34.53042376344017
-0.09966396881699166 -30.681763620663798 -35.452340309692545
-0.08935905326273105 -31.40670883435969 -36.34244802012483
-0.07971977414642176 -32.10567796905434 -37.20073125186126
-0.07070224520210072 -32.77867441452683 -38.02718716053946
-0.06228744145105419 -33.42570185000552 -38.82181265892028
-0.05448916577246402 -34.04676343589207 -39.58460509511183
-0.04729897838988322 -34.64186287271637 -40.31556136400087
-0.04068081401891846 -35.21100426962931 -41.01467801760038
-0.03459972888188424 -35.75419135317247 -41.681951928970726
-0.029020357778149403 -36.271373291071484 -42.317425751454536
-0.023906581794384738 -36.76232592806726 -42.92128757364707
-0.019238704755569217 -37.2262749834761 -43.49418709418446
-0.015036247163849435 -37.6623065826631 -44.03689114493578
-0.011498042968013347 -38.07071434579066 -44.549153349331036
-0.00878218748326905 -38.45209267350533 -45.03047494600697
-0.006662876649486808 -38.80354981847131 -45.48328239908648
-0.004899700066922485 -39.12216571395999 -45.910025935484576
-0.0035124287272390825 -39.410069163733255 -46.30891927674979
-0.0025445969616638467 -39.67084557093371 -46.67695391242757
-0.0019244050808584702 -39.906119563516896 -47.012766617799585
-0.0015174347090033604 -40.11547994548652 -47.31670242727469
-0.0012218767077768707 -40.29848855130459 -47.58912900539422
-0.0009983803858680466 -40.45588218421403 -47.82942810082875
-0.0008287781268287279 -40.58870012312738 -48.036727655026134

CELLS 100 350
4 0 51 52 1
4 1 52 53 2
4 2 53 54 3
4 3 54 55 4
4 4 55 56 5
4 5 56 57 6
4 6 57 58 7
4 7 58 59 8
4 8 59 60 9
4 9 60 61 10
4 10 61 62 11
4 11 62 63 12
4 12 63 64 13
4 13 64 65 14
4 14 65 66 15
4 15 66 67 16
4 16 67 68 17
4 17 68 69 18
4 18 69 70 19
4 19 70 71 20
4 20 71 72 21
4 21 72 73 22
4 22 73 74 23
4 23 74 75 24
4 24 75 76 25
4 25 76 77 26
4 26 77 78 27
4 27 78 79 28
4 28 79 80 29
4 29 80 81 30
4 30 81 82 31
4 31 82 83 32
4 32 83 84 33
4 33 84 85 34
4 34 85 86 35
4 35 86 87 36
4 36 87 88 37
4 37 88 89 38
4 38 89 90 39
4 39 90 91 40
4 40 91 92 41
4 41 92 93 42
4 42 93 94 43
4 43 94 95 44
4 44 95 96 45
4 45 96 97 46
4 46 97 98 47
4 47 98 99 48
4 48 99 100 49
4 49 100 101 50
1 102
1 103
1 104
1 105
1 106
1 107
1 108
1 109
1 110
1 111
1 112
1 113
1 114
1 115
1 116
1 117
1 118
1 119
1 120
1 121
1 122
1 123
1 124
1 125
1 126
1 127
1 128
1 129
1 130
1 131
1 132
1 133
1 134
1 135
1 136
1 137
1 138
1 139
1 140
1 141
1 142
1 143
1 144
1 145
1 146
1 147
1 148
1 149
1 150
1 151

CELL_TYPES 100
9
9
9
9
9
9
9
9
9
9
9
9
9
9
9
9
9
9
9
9
9
9
9
9
9
9
9
9
9
9
9
9
9
9
9
9
9
9
9
9
9
9
9
9
9
9
9
9
9
9
1
1
1
1
1
1
1
1
1
1
1
1
1
1
1
1
1
1
1
1
1
1
1
1
1
1
1
1
1
1
1
1
1
1
1
1
1
1
1
1
1
1
1
1
1
1
1
1
1
1

CELL_DATA 100

VECTORS S float
-1.461008980541055e-17 -2.693783901000329e-15 -2.316266246251392e-15
-4.063184382107316e-17 -5.4012869309183915e-15 -4.6164430547016e-15
5.165121913853367e-17 5.406384303379129e-15 4.6103621170014425e-15
-1.2227474462348e-19 6.718092356380695e-16 5.809761106803717e-16
0.0 -0.0 -0.0
-8.810768626072665e-17 2.1495808040711566e-14 1.8593440796657775e-14
0.0 -0.0 -0.0
0.0 -0.0 -0.0
-2.2108194901563802e-16 6.459765913697677e-14 5.5652813579473467e-14
0.0 -0.0 -0.0
-8.406037918903928e-17 2.1548453562770326e-14 1.8532421586292968e-14
0.0 -0.0 -0.0
0.0 -0.0 -0.0
-8.141916521272825e-17 2.1559201329511514e-14 1.851992915481701e-14
0.0 -0.0 -0.0
-1.4160724372408545e-16 4.3135758707920204e-14 3.701973170980411e-14
1.310017104743774e-16 -4.314342652221854e-14 -3.701083428212673e-14
1.239143326421133e-16 -4.3149988704846916e-14 -3.7003207804121707e-14
0.0 -0.0 -0.0
-1.1006677767637114e-16 4.3161665235555954e-14 3.698963107660737e-14
-5.3128758742426925e-17 2.1583228356049054e-14 1.8492025254469845e-14
-4.9171326759582255e-17 2.158572242830554e-14 1.8489124813659734e-14
9.531997812693089e-17 -4.31754739599737e-14 -3.697355311866399e-14
0.0 -0.0 -0.0
0.0 -0.0 -0.0
-4.1717055065741816e-17 2.159502271132164e-14 1.8478279701615493e-14
8.009483107347037e-17 -4.3193966093237656e-14 -3.695198432749635e-14
3.875727267190556e-17 -2.1598892612793678e-14 -1.8473762549116462e-14
7.492312424878362e-17 -4.320161394915805e-14 -3.694305356218717e-14
0.0 -0.0 -0.0
-3.5340567948084366e-17 2.160462317795246e-14 1.8467067318046266e-14
0.0 -0.0 -0.0
0.0 -0.0 -0.0
3.276703382621613e-17 -2.1610397153033153e-14 -1.8460314952784174e-14
-6.417496461882332e-17 4.322463776107545e-14 3.69161325138887e-14
0.0 -0.0 -0.0
0.0 -0.0 -0.0
-3.0307336208880396e-17 2.1617994201358237e-14 1.845142203521804e-14
-2.9692712267354596e-17 2.1619834370133576e-14 1.844926684443437e-14
0.0 -0.0 -0.0
-2.882510376213377e-17 2.1623334833087827e-14 1.8445165403321265e-14
2.809850563940696e-17 -2.1625021125624962e-14 -1.8443189494677188e-14
2.7262514237284307e-17 -2.162664583894136e-14 -1.8441285569575506e-14
2.6776826013856108e-17 -2.1628154583009737e-14 -1.843951678546213e-14
0.0 -0.0 -0.0
5.2506008351438036e-17 -4.326167671191368e-14 -3.687273842526774e-14
0.0 -0.0 -0.0
0.0 -0.0 -0.0
0.0 -0.0 -0.0
2.502492963437544e-17 -2.1634867026291446e-14 -1.8431643156645045e-14
-1.461008980541055e-17 -2.693783901000329e-15 -2.316266246251392e-15
-4.063184382107316e-17 -5.4012869309183915e-15 -4.6164430547016e-15
5.165121913853367e-17 5.406384303379129e-15 4.6103621170014425e-15
-1.2227474462348e-19 6.718092356380695e-16 5.809761106803717e-16
0.0 -0.0 -0.0
-8.810768626072665e-17 2.1495808040711566e-14 1.8593440796657775e-14
0.0 -0.0 -0.0
0.0 -0.0 -0.0
-2.2108194901563802e-16 6.459765913697677e-14 5.5652813579473467e-14
0.0 -0.0 -0.0
-8.406037918903928e-17 2.1548453562770326e-14 1.8532421586292968e-14
0.0 -0.0 -0.0
0.0 -0.0 -0.0
-8.141916521272825e-17 2.1559201329511514e-14 1.851992915481701e-14
0.0 -0.0 -0.0
-1.4160724372408545e-16 4.3135758707920204e-14 3.701973170980411e-14
1.310017104743774e-16 -4.314342652221854e-14 -3.701083428212673e-14
1.239143326421133e-16 -4.3149988704846916e-14 -3.7003207804121707e-14
0.0 -0.0 -0.0
-1.1006677767637114e-16 4.3161665235555954e-14 3.698963107660737e-14
-5.3128758742426925e-17 2.1583228356049054e-14 1.8492025254469845e-14
-4.9171326759582255e-17 2.158572242830554e-14 1.8489124813659734e-14
9.531997812693089e-17 -4.31754739599737e-14 -3.697355311866399e-14
0.0 -0.0 -0.0
0.0 -0.0 -0.0
-4.1717055065741816e-17 2.159502271132164e-14 1.8478279701615493e-14
8.009483107347037e-17 -4.3193966093237656e-14 -3.695198432749635e-14
3.875727267190556e-17 -2.1598892612793678e-14 -1.8473762549116462e-14
7.492312424878362e-17 -4.320161394915805e-14 -3.694305356218717e-14
0.0 -0.0 -0.0
-3.5340567948084366e-17 2.160462317795246e-14 1.8467067318046266e-14
0.0 -0.0 -0.0
0.0 -0.0 -0.0
3.276703382621613e-17 -2.1610397153033153e-14 -1.8460314952784174e-14
-6.417496461882332e-17 4.322463776107545e-14 3.69161325138887e-14
0.0 -0.0 -0.0
0.0 -0.0 -0.0
-3.0307336208880396e-17 2.1617994201358237e-14 1.845142203521804e-14
-2.9692712267354596e-17 2.1619834370133576e-14 1.844926684443437e-14
0.0 -0.0 -0.0
-2.882510376213377e-17 2.1623334833087827e-14 1.8445165403321265e-14
2.809850563940696e-17 -2.1625021125624962e-14 -1.8443189494677188e-14
2.7262514237284307e-17 -2.162664583894136e-14 -1.8441285569575506e-14
2.6776826013856108e-17 -2.1628154583009737e-14 -1.843951678546213e-14
0.0 -0.0 -0.0
5.2506008351438036e-17 -4.326167671191368e-14 -3.687273842526774e-14
0.0 -0.0 -0.0
0.0 -0.0 -0.0
0.0 -0.0 -0.0
2.502492963437544e-17 -2.1634867026291446e-14 -1.8431643156645045e-14

SCALARS Gamma float
LOOKUP_TABLE default
-0.0
-0.0
-0.0
51.42155970470738
55.19617052391417
55.15602402142782
52.94394204266205
48.192284769819835
45.087114093056854
47.76806317843451
54.45235504237277
55.0671155381947
51.20843073593403
46.382219714615395
45.38712733537898
44.609636523095105
41.03470584942414
38.86752593103392
34.15764513165184
34.523853044796795
33.99385452888669
35.56502996004779
37.13727081645183
35.08290844989589
37.15753021779941
38.4240473884102
38.52320651603371
38.62390162800247
38.82798913719668
39.08744738029223
39.41465307896519
39.70629934400267
37.71068990290619
38.01777384539292
38.32939717236767
38.63169045743994
38.878641886753826
41.21767806403076
41.13382776261392
40.75477330251572
40.02075900264679
38.77845044477995
36.721024132552984
34.07730788879745
31.394891214949087
28.742836090042246
25.89151356723491
23.139529274603586
20.359273734276396
17.78611304632907
-0.0
-0.0
-0.0
51.42155970470738
55.19617052391417
55.15602402142782
52.94394204266205
48.192284769819835
45.087114093056854
47.76806317843451
54.45235504237277
55.0671155381947
51.20843073593403
46.382219714615395
45.38712733537898
44.609636523095105
41.03470584942414
38.86752593103392
34.15764513165184
34.523853044796795
33.99385452888669
35.56502996004779
37.13727081645183
35.08290844989589
37.15753021779941
38.4240473884102
38.52320651603371
38.62390162800247
38.82798913719668
39.08744738029223
39.41465307896519
39.70629934400267
37.71068990290619
38.01777384539292
38.32939717236767
38.63169045743994
38.878641886753826
41.21767806403076
41.13382776261392
40.75477330251572
40.02075900264679
38.77845044477995
36.721024132552984
34.07730788879745
31.394891214949087
28.742836090042246
25.89151356723491
23.139529274603586
20.359273734276396
17.78611304632907

VECTORS Ftot float
116.22371396019608 25.48279507165792 -30.369212575990232
139.952777896823 56.65257052616741 -67.51590445425657
143.27726916845404 84.06606012037714 -100.18602916369989
1281.8525823639982 -7.619327956328034 9.080361465107396
1312.0836369557107 -143.71278049932263 171.27022246177015
1404.4738453020693 -186.64625386086482 222.43634358293565
1485.9594669053956 -181.97881801121144 216.87391014090824
1474.503642663918 -177.89459033921315 212.00651713983163
1487.8041057015648 -190.48539347579367 227.01165201149783
1683.0871132681377 -244.71167873926208 291.6360222872745
2047.3725983960564 -320.1161688950071 381.499594328118
2205.0676492401485 -357.28199764562095 425.792104263403
2175.560115141146 -359.76425042283546 428.7503379283754
2090.2333784993166 -332.3986778216868 396.1373184675589
2163.409817905287 -323.26365030422266 385.2506166051741
2236.8522386020104 -322.35063080946645 384.16252234218985
2159.5540507227097 -293.35815404488267 349.6106339997931
2137.9478860731847 -279.24275450344356 332.78855588538045
1959.748597066358 -241.50591631344844 287.8155433993076
2058.274294324264 -246.01730872829916 293.1920115173082
2100.4874269591974 -245.42343943860212 292.4842656577803
2275.93883914208 -249.37897391463216 297.1982880802194
2452.703378840628 -263.311245458362 313.80212274545744
2387.0268743209235 -251.1661674811335 299.32818243375857
2599.776397080248 -269.1067393232253 320.70892337976596
2763.1690553171416 -270.25139517532807 322.0730711037934
2840.894738152741 -269.69610884812676 321.4113066284328
2916.199661381329 -270.85858720224655 322.79669438326806
2997.580259560349 -272.095107108092 324.2703214233736
3081.403091084144 -274.33900764162786 326.94449794563906
3168.9379194553803 -277.5030042596468 330.715202282119
3252.1103660415756 -280.3558475111421 334.11508847619666
3142.3070954742216 -269.92790023516847 321.68754484667215
3220.823869728464 -270.7812103381251 322.7044802274677
3297.434046414394 -274.7161763353839 327.39399009143693
3371.4454632450907 -279.3688497089792 332.9388302995865
3439.4333375513716 -281.2556046308428 335.18737725606223
3692.326373584251 -301.1796055773303 358.931876962889
3728.572894756752 -301.5463627638897 359.36896115758094
3735.033988282337 -299.6111512808574 357.0626659202477
3704.7431588421737 -297.66531657111295 354.74371041431516
3624.1848947100943 -287.08634060578936 342.13617780167306
3462.5345233751254 -269.07452986868225 320.6705376465988
3238.9390219440124 -249.78991916862765 297.688033563028
3005.6425411779196 -230.33814653916912 274.50631364954523
2769.2659266583796 -213.34436885089357 254.25391803779561
2509.1982617846656 -192.12709051209328 228.9681503524591
2254.1627399242957 -171.49345275104582 204.37793842244338
1992.1701454534584 -151.29802333572385 180.30996286275075
1747.0970426543813 -132.0437036543624 157.36355820953094
116.22371396019608 25.48279507165792 -30.369212575990232
139.952777896823 56.65257052616741 -67.51590445425657
143.27726916845404 84.06606012037714 -100.18602916369989
1281.8525823639982 -7.619327956328034 9.080361465107396
1312.0836369557107 -143.71278049932263 171.27022246177015
1404.4738453020693 -186.64625386086482 222.43634358293565
1485.9594669053956 -181.97881801121144 216.87391014090824
1474.503642663918 -177.89459033921315 212.00651713983163
1487.8041057015648 -190.48539347579367 227.01165201149783
1683.0871132681377 -244.71167873926208 291.6360222872745
2047.3725983960564 -320.1161688950071 381.499594328118
2205.0676492401485 -357.28199764562095 425.792104263403
2175.560115141146 -359.76425042283546 428.7503379283754
2090.2333784993166 -332.3986778216868 396.1373184675589
2163.409817905287 -323.26365030422266 385.2506166051741
2236.8522386020104 -322.35063080946645 384.16252234218985
2159.5540507227097 -293.35815404488267 349.6106339997931
2137.9478860731847 -279.24275450344356 332.78855588538045
1959.748597066358 -241.50591631344844 287.8155433993076
2058.274294324264 -246.01730872829916 293.1920115173082
2100.4874269591974 -245.42343943860212 292.4842656577803
2275.93883914208 -249.37897391463216 297.1982880802194
2452.703378840628 -263.311245458362 313.80212274545744
2387.0268743209235 -251.1661674811335 299.32818243375857
2599.776397080248 -269.1067393232253 320.70892337976596
2763.1690553171416 -270.25139517532807 322.0730711037934
2840.894738152741 -269.69610884812676 321.4113066284328
2916.199661381329 -270.85858720224655 322.79669438326806
2997.580259560349 -272.095107108092 324.2703214233736
3081.403091084144 -274.33900764162786 326.94449794563906
3168.9379194553803 -277.5030042596468 330.715202282119
3252.1103660415756 -280.3558475111421 334.11508847619666
3142.3070954742216 -269.92790023516847 321.68754484667215
3220.823869728464 -270.7812103381251 322.7044802274677
3297.434046414394 -274.7161763353839 327.39399009143693
3371.4454632450907 -279.3688497089792 332.9388302995865
3439.4333375513716 -281.2556046308428 335.18737725606223
3692.326373584251 -301.1796055773303 358.931876962889
3728.572894756752 -301.5463627638897 359.36896115758094
3735.033988282337 -299.6111512808574 357.0626659202477
3704.7431588421737 -297.66531657111295 354.74371041431516
3624.1848947100943 -287.08634060578936 342.13617780167306
3462.5345233751254 -269.07452986868225 320.6705376465988
3238.9390219440124 -249.78991916862765 297.688033563028
3005.6425411779196 -230.33814653916912 274.50631364954523
2769.2659266583796 -213.34436885089357 254.25391803779561
2509.1982617846656 -192.12709051209328 228.9681503524591
2254.1627399242957 -171.49345275104582 204.37793842244338
1992.1701454534584 -151.29802333572385 180.30996286275075
1747.0970426543813 -132.0437036543624 157.36355820953094

VECTORS D float
91.99147220030879 -20.749362038253157 23.550960012813125
60.462339345767525 -25.004768445427814 28.72367992290701
13.034655560104738 -7.793090781161455 8.992609858228331
536.3019052218264 -417.45852332846147 482.8392467254512
522.8660996464068 -498.9750555670769 578.3028028224543
478.6918770228949 -539.5898234600702 626.0861465527094
414.7610528371832 -536.9570745640194 623.647464541071
349.14775202687275 -508.87350903877865 591.5192382215185
311.1397595514104 -502.69235333736316 584.7240163273959
324.5986806342845 -574.2389649602396 668.3111091823396
363.4701742756583 -696.8782704974408 811.9393583470278
359.5736554575408 -741.5296713930487 864.0371268882701
327.33765963493914 -720.4430349164113 839.7558594304446
284.50812159619073 -664.3604304548054 774.638205652166
265.14315245429725 -653.5783907523055 762.3009535354033
251.2587285368289 -650.9407675918775 759.4437517913086
221.03335342816106 -599.5349453322142 699.6585759570096
202.14559951556947 -572.1188709816531 667.8332237724534
170.35277915018688 -501.5630841490783 585.6123360665936
167.2321747037781 -510.8234620773896 596.5563139990463
160.6433839525615 -507.8279397677475 593.180088293865
161.209152713896 -526.2149901774726 614.7753178188032
164.68864266084978 -553.9216569498258 647.2607086614676
152.54814101719967 -527.2320344170768 616.2625786233143
158.6869363107891 -562.8906235085163 658.0635809835738
158.49507242458105 -576.0088254023118 673.5224174066669
155.42547300311935 -577.7684921855621 675.7028585236097
153.0709948450795 -581.1295286574106 679.7579466821057
151.1993823787442 -585.3944101004868 684.8733172713594
149.9027293894069 -591.064602924215 691.6368004117327
149.15177696538538 -598.1715282850545 700.0863401983169
148.41160082725574 -604.6684059316951 707.8269660752735
140.0446035634071 -579.0042401066393 677.917140813243
139.2491057648136 -583.6054700021077 683.4395187653163
139.28819347373656 -591.1916769190331 692.4610774830916
139.56934622097202 -599.3691056955162 702.178884589673
139.21436349581086 -604.376295654889 708.1850704011141
147.02219011303814 -644.7291661078765 755.6169491273454
145.81074077167142 -645.3983514472106 756.5468641713444
143.6291833078838 -641.2336538530454 751.8062498649396
140.86890446601876 -633.9160407097132 743.3622342389324
135.39649753173742 -613.7467041692781 719.8369829971299
126.92382436279247 -579.1947733990768 679.4266295245533
117.22021681802205 -538.1815380353835 631.4163445368426
107.55200813336239 -496.5277368114691 582.6331864836212
98.58350771084541 -457.39297603189164 536.7858241932905
88.4719014246598 -412.30515301288176 483.9327423132691
78.77202682233306 -368.54190450391735 432.6158285029907
69.2000065684438 -324.8628812569018 381.381160009877
60.28380601547336 -283.82779473679426 333.235899984606
91.99147220030879 -20.749362038253157 23.550960012813125
60.462339345767525 -25.004768445427814 28.72367992290701
13.034655560104738 -7.793090781161455 8.992609858228331
536.3019052218264 -417.45852332846147 482.8392467254512
522.8660996464068 -498.9750555670769 578.3028028224543
478.6918770228949 -539.5898234600702 626.0861465527094
414.7610528371832 -536.9570745640194 623.647464541071
349.14775202687275 -508.87350903877865 591.5192382215185
311.1397595514104 -502.69235333736316 584.7240163273959
324.5986806342845 -574.2389649602396 668.3111091823396
363.4701742756583 -696.8782704974408 811.9393583470278
359.5736554575408 -741.5296713930487 864.0371268882701
327.33765963493914 -720.4430349164113 839.7558594304446
284.50812159619073 -664.3604304548054 774.638205652166
265.14315245429725 -653.5783907523055 762.3009535354033
251.2587285368289 -650.9407675918775 759.4437517913086
221.03335342816106 -599.5349453322142 699.6585759570096
202.14559951556947 -572.1188709816531 667.8332237724534
170.35277915018688 -501.5630841490783 585.6123360665936
167.2321747037781 -510.8234620773896 596.5563139990463
160.6433839525615 -507.8279397677475 593.180088293865
161.209152713896 -526.2149901774726 614.7753178188032
164.68864266084978 -553.9216569498258 647.2607086614676
152.54814101719967 -527.2320344170768 616.2625786233143
158.6869363107891 -562.8906235085163 658.0635809835738
158.49507242458105 -576.0088254023118 673.5224174066669
155.42547300311935 -577.7684921855621 675.7028585236097
153.0709948450795 -581.1295286574106 679.7579466821057
151.1993823787442 -585.3944101004868 684.8733172713594
149.9027293894069 -591.064602924215 691.6368004117327
149.15177696538538 -598.1715282850545 700.0863401983169
148.41160082725574 -604.6684059316951 707.8269660752735
140.0446035634071 -579.0042401066393 677.917140813243
139.2491057648136 -583.6054700021077 683.4395187653163
139.28819347373656 -591.1916769190331 692.4610774830916
139.56934622097202 -599.3691056955162 702.178884589673
139.21436349581086 -604.376295654889 708.1850704011141
147.02219011303814 -644.7291661078765 755.6169491273454
145.81074077167142 -645.3983514472106 756.5468641713444
143.6291833078838 -641.2336538530454 751.8062498649396
140.86890446601876 -633.9160407097132 743.3622342389324
135.39649753173742 -613.7467041692781 719.8369829971299
126.92382436279247 -579.1947733990768 679.4266295245533
117.22021681802205 -538.1815380353835 631.4163445368426
107.55200813336239 -496.5277368114691 582.6331864836212
98.58350771084541 -457.39297603189164 536.7858241932905
88.4719014246598 -412.30515301288176 483.9327423132691
78.77202682233306 -368.54190450391735 432.6158285029907
69.2000065684438 -324.8628812569018 381.381160009877
60.28380601547336 -283.82779473679426 333.235899984606

VECTORS L float
24.2322417598873 46.23215710991108 -53.92017258880335
79.49043855105546 81.65733897159522 -96.23958437716357
130.24261360834933 91.85915090153861 -109.17863902192825
745.5506771421719 409.8391953721336 -473.7588852603439
789.217537309304 355.2622750677543 -407.0325803606842
925.7819682791743 352.9435695992053 -403.64980296977353
1071.1984140682127 354.97825655280803 -406.7735544001628
1125.3558906370454 330.97891869956544 -379.51272108168695
1176.6643461501544 312.2069598615696 -357.712364315898
1358.4884326338533 329.52728622097754 -376.675086895065
1683.9024241203986 376.7621016024337 -430.4397640189098
1845.493993782608 384.2476737474277 -438.2450226248669
1848.2224555062069 360.6787844935759 -411.0055215020692
1805.725256903126 331.9617526331185 -378.50088718460717
1898.2666654509906 330.3147404480828 -377.0503369302294
1985.5935100651816 328.59013678241126 -375.28122944911905
1938.5206972945487 306.17679128733147 -350.0479419572166
1935.8022865576154 292.8761164782096 -335.04466788707316
1789.395817916171 260.05716783562997 -297.7967926672862
1891.042119620486 264.8061533490905 -303.3643024817381
1939.844043006636 262.40450032914555 -300.6958226360847
2114.7296864281843 276.83601626284053 -317.57702973858375
2288.014736179778 290.61041149146376 -333.4585859160103
2234.4787333037243 276.06586693594335 -316.9343961895558
2441.089460769459 293.7838841852912 -337.35465760380794
2604.673982892561 305.75743022698384 -351.44934630287355
2685.469265149622 308.0723833374353 -354.29155189517695
2763.1286665362495 310.27094145516423 -356.96125229883785
2846.3808771816057 313.29930299239476 -360.60299584798577
2931.500361694738 316.725595282587 -364.69230246609345
3019.7861424899957 320.6685240254076 -369.37113791619765
3103.6987652143202 324.31255842055316 -373.7118775990769
3002.262491910814 309.07633987147057 -356.2295959665707
3081.574763963651 312.82425966398256 -360.7350385378486
3158.1458529406577 316.4755005836491 -365.0670873916546
3231.876117024119 320.00025598653684 -369.24005429008645
3300.218974055561 323.1206910240463 -372.997693145052
3545.3041834712144 343.54956053054656 -396.6850721644566
3582.762153985081 343.85198868332117 -397.1779030137638
3591.404804974453 341.6225025721881 -394.7435839446919
3563.874254376156 336.2507241386001 -388.6185238246171
3488.788397178358 326.66036356348883 -377.7008051954567
3335.6106990123335 310.1202435303944 -358.7560918779544
3121.7188051259895 288.3916188667556 -333.7283109738144
2898.0905330445576 266.1895902723001 -308.1268728340761
2670.682418947534 244.04860718099806 -282.5319061554949
2420.7263603600063 220.17806250078843 -254.96459196081008
2175.390713101963 197.04845175287147 -228.23789008054734