# vtk DataFile Version 4.0
[MyVLM domain - lattices] 
ASCII
DATASET UNSTRUCTURED_GRID
POINTS 152 float
0.0 0.6988332456712827 -2.1355223700758508
0.0 -0.2868970128931678 -4.148741034866174
0.0 -1.283166642871202 -6.108444234296453
0.0 -2.2528002496322452 -8.03609519246388
0.0 -3.1954999485313715 -9.931865893148395
0.0 -4.143235920240567 -11.777298343932978
0.0 -5.122490695293383 -13.557102848685266
0.0 -6.140099919446354 -15.267332845487635
0.0 -7.154378048900658 -16.93205549427366
0.0 -8.1482566259552 -18.56112527369171
0.0 -9.121950600652895 -20.15441808227665
0.0 -10.075774550337492 -21.71175229871438
0.0 -11.010074427584769 -23.232928187192154
0.0 -11.927697351141894 -24.71630196293488
0.0 -12.826743848159607 -26.1629702871034
0.0 -13.703050217292715 -27.575337073790173
0.0 -14.555996667719974 -28.953760159392694
0.0 -15.386604559690117 -30.29764986129642
0.0 -16.195609727841518 -31.606581345174806
0.0 -16.983011959986914 -32.88055473353422
0.0 -17.748811049605777 -34.11957014560935
0.0 -18.49300679584429 -35.32362769736319
0.0 -19.215599003515365 -36.492727501487074
0.0 -19.916587483098635 -37.62686966740063
0.0 -20.595972050740446 -38.726054301251814
0.0 -21.25375252825388 -39.79028150591689
0.0 -21.889928743118734 -40.81955138100044
0.0 -22.50450052848153 -41.813864022835375
0.0 -23.097466340077364 -42.77322032300345
0.0 -23.66880702506499 -43.69763133940272
0.0 -24.218518690019152 -44.58709931990328
0.0 -24.746604075412442 -45.44162268229256
0.0 -25.253065814013286 -46.26119990654101
0.0 -25.737906430885936 -47.04582953480208
0.0 -26.201128343390497 -47.795510171412275
0.0 -26.642733861182904 -48.51024048289112
0.0 -27.06309064028416 -49.18980820293592
0.0 -27.46336127424287 -49.83354210784843
0.0 -27.84539063776061 -50.44037705872307
0.0 -28.21013845844734 -51.00975895656589
0.0 -28.556932281070942 -51.542076043586164
0.0 -28.885992140256946 -52.03720128273361
0.0 -29.207516939914743 -52.48924633409071
0.0 -29.52127515501793 -52.89834486869376
0.0 -29.81954475133405 -53.2689552050856
0.0 -30.097063380553227 -53.60411556147947
0.0 -30.35249856012562 -53.904595247034216
0.0 -30.587124157873806 -54.169658793819565
0.0 -30.799823506672375 -54.39995090990099
0.0 -30.988384358194473 -54.59674883744549
0.0 -31.150891631798928 -54.76115824877678
-0.7686761955390344 -2.1182827586739084 -0.5090596866287507
-0.8409029948616161 -3.3647750168466044 -2.3717273407508284
-0.8940476007249757 -4.557178181488399 -4.2181927911458725
-0.9506443374492793 -5.736079632327945 -6.025022903201845
-1.0210144815146838 -6.900229930614638 -7.792939040717743
-1.048631451549771 -8.02319824379433 -9.537201051983605
-0.9920275022819518 -9.086970423656293 -11.268209410318125
-0.9074715353829097 -10.074165446745607 -12.995999054291785
-0.8388231939293685 -11.019527719182655 -14.700510291678153
-0.7803448823218929 -11.94070466968087 -16.371554374759025
-0.7251531968841737 -12.839626739828265 -18.008016762563898
-0.671766762046156 -13.719020482395425 -19.60832327911672
-0.6188683613166902 -14.575223309643231 -21.174588520434607
-0.5668565661826578 -15.407032402231621 -22.70750693458733
-0.5162677046190278 -16.21517296651136 -24.206659823493045
-0.4681223452427161 -17.004521464340826 -25.669231760585138
-0.42442582165628834 -17.775639086826665 -27.094898742027105
-0.3846819074085718 -18.52750076492261 -28.48425259170876
-0.3476243488905531 -19.259456239817307 -29.83766873672989
-0.3131098246080671 -19.971552498942 -31.155120048884392
-0.28048746260446866 -20.66386932319345 -32.43656046665006
-0.2502235469699514 -21.33639651358617 -33.68199587841391
-0.2227998260917326 -21.989134471491585 -34.89142605244403
-0.19746739264611052 -22.62216119762463 -36.064805955006676
-0.17533279734900953 -23.235445601629504 -37.20215353612712
-0.15613374469432648 -23.829038394877077 -38.30343951758175
-0.13998404755873647 -24.402966671856962 -39.36864825635968
-0.12578653595324127 -24.95730197337453 -40.3977384483577
-0.11250427274737486 -25.492097033171987 -41.39067964773553
-0.10008179164308317 -26.007362218114466 -42.34746586918081
-0.08845752889585208 -26.50310506262322 -43.26809276269337
-0.07764231497362577 -26.979329508397345 -44.1525580525322
-0.06766212708627829 -27.4360393503488 -45.00085954770387
-0.0584684819534103 -27.87324023030879 -45.812993990895585
-0.050013688763705585 -28.29093724686548 -46.58895843843612
-0.042252254921319045 -28.689134960197133 -47.32875025750531
-0.03513536582041269 -29.067552243718218 -48.03253175661299
-0.028615518964613278 -29.425284377947452 -48.70082527579524
-0.022687693716904638 -29.75989936200404 -49.33503493141524
-0.017408965386693863 -30.07013926324527 -49.93588699122289
-0.013252482528008399 -30.358051436200654 -50.502199414529436
-0.010166684094042405 -30.62353127818798 -51.03403259372162
-0.00760098697125575 -30.85449263566014 -51.53836447280333
-0.005464879873870877 -31.050896051090323 -52.015217832588284
-0.0039015967321000085 -31.221849892284368 -52.45933395447194
-0.002883995165670249 -31.37338286607168 -52.86723216294342
-0.0022477517166190047 -31.506562323094666 -53.23829622282203
-0.00179874084072329 -31.619100814682707 -53.57384679321354
-0.0014595970466816986 -31.711912447683343 -53.873356114283425
-0.0012027506489664258 -31.78741400110051 -54.13542885802319
-0.0010073243559101815 -31.847697595743615 -54.35885713792037
-0.603592196400244 -2.004654636722928 -1.8658280608850952
-0.6506064733449719 -3.166990406346172 -3.753368208106591
-0.6917594768153456 -4.30196754174406 -5.609273313725436
-0.7393720571114861 -5.41965361087392 -7.42773086467138
-0.7761172248991705 -6.513627548999855 -9.212448064398176
-0.7652471076868961 -7.574529077235728 -10.96882907244043
-0.712312139124323 -8.593249778243178 -12.702132636000329
-0.6548605234921042 -9.571944683266475 -14.411114547208891
-0.607188028594223 -10.522916480180802 -16.088671845909612
-0.564561779702275 -11.451400181891938 -17.73178209599214
-0.5238449845988737 -12.35920835220768 -19.33939881325411
-0.48398817126106725 -13.246072544254778 -20.911676985570068
-0.4446468478122555 -14.110567364293901 -22.449439564399103
-0.4061716015506322 -14.952632163191307 -23.952721565534926
-0.369146268698154 -15.773609669751112 -25.420747764141012
-0.3347055625871267 -16.57494106731439 -26.852686092627444
-0.3034153983993225 -17.35650259783224 -28.24860800273709
-0.27461484611217185 -18.117885662718923 -29.6087493989734
-0.24777531506198255 -18.858955988013292 -30.933187804443985
-0.22259898270470088 -19.57976105949988 -32.221895803218366
-0.19901662859040753 -20.280326919473616 -33.47485835977056
-0.1773837648981315 -20.960649844324116 -34.692077623928014
-0.15760020702669117 -21.62075918674533 -35.87353664890498
-0.13980007124817 -22.260672491450183 -37.019225305256725
-0.124299953266251 -22.88039707106426 -38.129139371036906
-0.11104417209489861 -23.47996205894684 -39.2032620260927
-0.09966396881699166 -24.05940440091184 -40.241571939748496
-0.08935905326273105 -24.6187704860248 -41.244042329264815
-0.07971977414642176 -25.15808138987521 -42.210661026644395
-0.07070224520210072 -25.67734094466215 -43.14142581936606
-0.06228744145105419 -26.17655330981166 -44.03633430598407
-0.05448916577246402 -26.65572205820802 -44.89538442369272
-0.04729897838988322 -27.114851373358995 -45.71857375714268
-0.04068081401891846 -27.5539459007249 -46.505899624276175
-0.03459972888188424 -27.97300985322015 -47.25735959276595
-0.029020357778149403 -28.37198576415164 -47.97298684102274
-0.023906581794384738 -28.750620222440507 -48.65292767600113
-0.019238704755569217 -29.108037891482248 -49.297687473525365
-0.015036247163849435 -29.443205621494485 -49.90786272290042
-0.011498042968013347 -29.756455354732005 -50.483261777176125
-0.00878218748326905 -30.048459070561723 -51.023496668884114
-0.006662876649486808 -30.31594760271451 -51.5304548520499
-0.004899700066922485 -30.555619769398007 -52.006042264869926
-0.0035124287272390825 -30.769882217059504 -52.448869429370006
-0.0025445969616638467 -30.962788300869427 -52.85659613985138
-0.0019244050808584702 -31.13617468852224 -53.22816199572626
-0.0015174347090033604 -31.289576516416442 -53.563835386120076
-0.0012218767077768707 -31.42249843145554 -53.86390230327643
-0.0009983803858680466 -31.535773401402302 -54.127881833033285
-0.0008287781268287279 -31.63057634756573 -54.35509563425662

CELLS 100 350
4 0 51 52 1
4 1 52 53 2
4 2 53 54 3
4 3 54 55 4
4 4 55 56 5
4 5 56 57 6
4 6 57 58 7
4 7 58 59 8
4 8 59 60 9
4 9 60 61 10
4 10 61 62 11
4 11 62 63 12
4 12 63 64 13
4 13 64 65 14
4 14 65 66 15
4 15 66 67 16
4 16 67 68 17
4 17 68 69 18
4 18 69 70 19
4 19 70 71 20
4 20 71 72 21
4 21 72 73 22
4 22 73 74 23
4 23 74 75 24
4 24 75 76 25
4 25 76 77 26
4 26 77 78 27
4 27 78 79 28
4 28 79 80 29
4 29 80 81 30
4 30 81 82 31
4 31 82 83 32
4 32 83 84 33
4 33 84 85 34
4 34 85 86 35
4 35 86 87 36
4 36 87 88 37
4 37 88 89 38
4 38 89 90 39
4 39 90 91 40
4 40 91 92 41
4 41 92 93 42
4 42 93 94 43
4 43 94 95 44
4 44 95 96 45
4 45 96 97 46
4 46 97 98 47
4 47 98 99 48
4 48 99 100 49
4 49 100 101 50
1 102
1 103
1 104
1 105
1 106
1 107
1 108
1 109
1 110
1 111
1 112
1 113
1 114
1 115
1 116
1 117
1 118
1 119
1 120
1 121
1 122
1 123
1 124
1 125
1 126
1 127
1 128
1 129
1 130
1 131
1 132
1 133
1 134
1 135
1 136
1 137
1 138
1 139
1 140
1 141
1 142
1 143
1 144
1 145
1 146
1 147
1 148
1 149
1 150
1 151

CELL_TYPES 100
9
9
9
9
9
9
9
9
9
9
9
9
9
9
9
9
9
9
9
9
9
9
9
9
9
9
9
9
9
9
9
9
9
9
9
9
9
9
9
9
9
9
9
9
9
9
9
9
9
9
1
1
1
1
1
1
1
1
1
1
1
1
1
1
1
1
1
1
1
1
1
1
1
1
1
1
1
1
1
1
1
1
1
1
1
1
1
1
1
1
1
1
1
1
1
1
1
1
1
1

CELL_DATA 100

VECTORS S float
-2.1114104287511908e-17 -4.516783687098289e-15 -5.485008409538465e-15
-2.490077899909158e-17 -4.535071794022135e-15 -5.4698813248931506e-15
-5.639938735753813e-17 -9.084260829848591e-15 -1.0928010615888112e-14
-0.0 -0.0 -0.0
3.9036487667800156e-17 -1.8098486080882935e-14 -2.191430684915754e-14
-4.126356878524557e-17 1.811555846899282e-14 2.1900191908307788e-14
0.0 -0.0 -0.0
0.0 -0.0 -0.0
0.0 -0.0 -0.0
-6.670955835075681e-17 3.631102459947831e-14 4.373418925916165e-14
0.0 -0.0 -0.0
6.4911819784721e-17 -3.633893799360218e-14 -4.371100135821704e-14
6.397267029235404e-17 -3.6349802707981554e-14 -4.370196812929066e-14
0.0 -0.0 -0.0
-5.802099804919493e-17 3.635387496093721e-14 4.369858895517786e-14
5.509748013041185e-17 -3.6356356077369403e-14 -4.369652852147951e-14
5.146949102076331e-17 -3.635855205856303e-14 -4.36947057534608e-14
2.466649007619906e-17 -1.8179921819601824e-14 -2.1846816727929695e-14
2.307824474145114e-17 -1.8180414958695835e-14 -2.1846408086240732e-14
-4.493886282483368e-17 3.6361065640654584e-14 4.369262127361874e-14
0.0 -0.0 -0.0
-2.075861225608004e-17 1.8179255247245027e-14 2.1847375464385816e-14
4.078117461629872e-17 -3.635878816778881e-14 -4.3694520567811725e-14
0.0 -0.0 -0.0
1.922225421122165e-17 -1.8181327457531218e-14 -2.184565241262619e-14
5.439987548805403e-17 -5.454672576009723e-14 -6.553467671411172e-14
-1.738845121942968e-17 1.8183064175779908e-14 2.1844208426206468e-14
0.0 -0.0 -0.0
3.2617307352785796e-17 -3.636924912483291e-14 -4.368582060568813e-14
3.165047380768494e-17 -3.637083640493557e-14 -4.3684499828179166e-14
0.0 -0.0 -0.0
0.0 -0.0 -0.0
-2.9803499078973176e-17 3.63736551833955e-14 4.368215411510922e-14
2.9077032536651896e-17 -3.637500624313764e-14 -4.3681029556583715e-14
1.425056295154007e-17 -1.8188241368896165e-14 -2.1839900177760566e-14
-1.402524705429172e-17 1.8189033488206233e-14 2.1839240623329223e-14
0.0 -0.0 -0.0
2.683426497252351e-17 -3.6381548419617416e-14 -4.367558222048701e-14
-2.627496039048019e-17 3.6383372039346404e-14 4.367406342966299e-14
0.0 -0.0 -0.0
0.0 -0.0 -0.0
1.241864724862827e-17 -1.8194434639044023e-14 -2.1834742061427505e-14
-1.2029841867273749e-17 1.8195341123554475e-14 2.1833986892610985e-14
1.179355913372135e-17 -1.8196199274886194e-14 -2.1833271852997898e-14
-1.1583736323544569e-17 1.819701266160076e-14 2.1832594050110272e-14
0.0 -0.0 -0.0
1.1281595494361899e-17 -1.8198779680732315e-14 -2.1831121313484653e-14
0.0 -0.0 -0.0
-5.49486169989054e-18 9.09999009145374e-15 1.0915060324089722e-14
-5.4288516752329595e-18 9.100236213836236e-15 1.0914855157835674e-14
-2.1114104287511908e-17 -4.516783687098289e-15 -5.485008409538465e-15
-2.490077899909158e-17 -4.535071794022135e-15 -5.4698813248931506e-15
-5.639938735753813e-17 -9.084260829848591e-15 -1.0928010615888112e-14
-0.0 -0.0 -0.0
3.9036487667800156e-17 -1.8098486080882935e-14 -2.191430684915754e-14
-4.126356878524557e-17 1.811555846899282e-14 2.1900191908307788e-14
0.0 -0.0 -0.0
0.0 -0.0 -0.0
0.0 -0.0 -0.0
-6.670955835075681e-17 3.631102459947831e-14 4.373418925916165e-14
0.0 -0.0 -0.0
6.4911819784721e-17 -3.633893799360218e-14 -4.371100135821704e-14
6.397267029235404e-17 -3.6349802707981554e-14 -4.370196812929066e-14
0.0 -0.0 -0.0
-5.802099804919493e-17 3.635387496093721e-14 4.369858895517786e-14
5.509748013041185e-17 -3.6356356077369403e-14 -4.369652852147951e-14
5.146949102076331e-17 -3.635855205856303e-14 -4.36947057534608e-14
2.466649007619906e-17 -1.8179921819601824e-14 -2.1846816727929695e-14
2.307824474145114e-17 -1.8180414958695835e-14 -2.1846408086240732e-14
-4.493886282483368e-17 3.6361065640654584e-14 4.369262127361874e-14
0.0 -0.0 -0.0
-2.075861225608004e-17 1.8179255247245027e-14 2.1847375464385816e-14
4.078117461629872e-17 -3.635878816778881e-14 -4.3694520567811725e-14
0.0 -0.0 -0.0
1.922225421122165e-17 -1.8181327457531218e-14 -2.184565241262619e-14
5.439987548805403e-17 -5.454672576009723e-14 -6.553467671411172e-14
-1.738845121942968e-17 1.8183064175779908e-14 2.1844208426206468e-14
0.0 -0.0 -0.0
3.2617307352785796e-17 -3.636924912483291e-14 -4.368582060568813e-14
3.165047380768494e-17 -3.637083640493557e-14 -4.3684499828179166e-14
0.0 -0.0 -0.0
0.0 -0.0 -0.0
-2.9803499078973176e-17 3.63736551833955e-14 4.368215411510922e-14
2.9077032536651896e-17 -3.637500624313764e-14 -4.3681029556583715e-14
1.425056295154007e-17 -1.8188241368896165e-14 -2.1839900177760566e-14
-1.402524705429172e-17 1.8189033488206233e-14 2.1839240623329223e-14
0.0 -0.0 -0.0
2.683426497252351e-17 -3.6381548419617416e-14 -4.367558222048701e-14
-2.627496039048019e-17 3.6383372039346404e-14 4.367406342966299e-14
0.0 -0.0 -0.0
0.0 -0.0 -0.0
1.241864724862827e-17 -1.8194434639044023e-14 -2.1834742061427505e-14
-1.2029841867273749e-17 1.8195341123554475e-14 2.1833986892610985e-14
1.179355913372135e-17 -1.8196199274886194e-14 -2.1833271852997898e-14
-1.1583736323544569e-17 1.819701266160076e-14 2.1832594050110272e-14
0.0 -0.0 -0.0
1.1281595494361899e-17 -1.8198779680732315e-14 -2.1831121313484653e-14
0.0 -0.0 -0.0
-5.49486169989054e-18 9.09999009145374e-15 1.0915060324089722e-14
-5.4288516752329595e-18 9.100236213836236e-15 1.0914855157835674e-14

SCALARS Gamma float
LOOKUP_TABLE default
-0.0
-0.0
-0.0
55.561129626236465
61.60512140001287
60.93800414557835
57.50680717390906
51.96507299325532
47.73895889396719
51.343504139913875
59.41845760646765
60.05509687133409
57.23594935694688
52.52437319281502
51.343562054855056
50.38839174384092
46.69437300514104
44.17258374801873
39.386704130489925
39.78241043683176
38.97660503987602
40.095677441309256
41.456688170366
38.67770891547464
40.53031829646811
41.82132972557755
41.75984577406753
41.70821206363203
41.76705255585797
41.888134788094554
42.06796833773538
42.22496402032933
40.019409178602444
40.238850845743066
40.467555602065644
40.691580164744586
40.862962894050746
43.215745653532416
43.039315970319684
42.56602109219511
41.7383847682561
40.39417865941713
38.209139741480136
35.42236882008237
32.62874086569777
29.833408575544233
26.862935652509982
23.973416927150858
21.08742601818876
18.41831955347477
-0.0
-0.0
-0.0
55.561129626236465
61.60512140001287
60.93800414557835
57.50680717390906
51.96507299325532
47.73895889396719
51.343504139913875
59.41845760646765
60.05509687133409
57.23594935694688
52.52437319281502
51.343562054855056
50.38839174384092
46.69437300514104
44.17258374801873
39.386704130489925
39.78241043683176
38.97660503987602
40.095677441309256
41.456688170366
38.67770891547464
40.53031829646811
41.82132972557755
41.75984577406753
41.70821206363203
41.76705255585797
41.888134788094554
42.06796833773538
42.22496402032933
40.019409178602444
40.238850845743066
40.467555602065644
40.691580164744586
40.862962894050746
43.215745653532416
43.039315970319684
42.56602109219511
41.7383847682561
40.39417865941713
38.209139741480136
35.42236882008237
32.62874086569777
29.833408575544233
26.862935652509982
23.973416927150858
21.08742601818876
18.41831955347477

VECTORS Ftot float
130.8391849600562 32.240849039567046 -27.053284537943075
155.90108899205094 70.96531078709214 -59.54696610783008
157.92524513329715 104.26088306518413 -87.48526852621353
1479.0023698375949 7.095685185730694 -5.953986822296717
1510.4455923491814 -203.4587492055056 170.7221614181305
1592.1980567360758 -251.83473172335354 211.31443050669523
1652.0274163730412 -235.0643107194528 197.2423764276344
1621.3824793738706 -225.7429267691111 189.42080659284088
1601.81772539812 -235.20180730239016 197.3577497596653
1829.8085323561734 -315.9725513322383 265.1324512850254
2252.428711541214 -422.820915153066 354.7888739589777
2423.0128437161807 -464.03158986683496 389.3687359118682
2443.5160106800295 -487.72842707775675 409.2527432756206
2373.3673363247435 -465.3957653905448 390.51341509067413
2452.239414751139 -453.7107325478005 380.708508342033
2531.6925904285417 -450.8619757394633 378.31811755484347
2461.024783236044 -414.4079430137782 347.7295521397966
2431.9656700233063 -395.35003075728855 331.73806499436716
2261.576754975928 -345.8840987556822 290.2312196959789
2372.5324683426 -353.74936624289813 296.8309627436124
2408.6734303427374 -351.39084712098577 294.8519302182912
2566.614244479661 -348.52843991001293 292.4500853832847
2738.11753568585 -365.7890009085131 306.93341575103915
2631.3481058664415 -344.4770943842196 289.05060284681974
2835.2153935158276 -364.9060003015045 306.1924902673689
3006.105443232215 -368.81542084815845 309.47288360618313
3078.2655111690656 -365.6089593286798 306.78234292780445
3147.67639248324 -365.26035121218246 306.4898259858261
3222.8850305993005 -365.63246334273936 306.802065137333
3300.5302088044987 -366.78091403042515 307.76572968579546
3380.127760176805 -368.86881914237296 309.517690095164
3456.389293824509 -370.7332040181515 311.08209475680235
3332.9347297282798 -354.73044389871086 297.65418464276115
3406.8069978144904 -356.67734638800187 299.28782980346335
3479.218349680838 -360.29740858763967 302.32542266001826
3548.9935189902017 -365.2839280462357 306.5096092985845
3612.8171581183665 -366.3163696720426 307.37593068601115
3869.2995570562316 -389.43502930787554 326.7747894597516
3899.2836907769806 -388.7906680714239 326.23410618390017
3899.0349117494306 -385.311113473005 323.3144132037056
3861.947369337411 -380.96626714952544 319.668654256152
3773.0984950381603 -368.69156462437667 309.3689558944888
3600.9057669551307 -345.0306196514076 289.5150656943646
3364.977365887074 -319.8058889859404 268.34900349642476
3122.09861880356 -294.72639239203136 247.30480715436389
2872.790956407471 -272.4611927669076 228.62208636083395
2601.905241738096 -245.21413150186115 205.75908730266875
2334.1338462755343 -218.46851618149157 183.31685135173723
2062.3159286069567 -192.61538016596873 161.62349445633595
1808.2349905248955 -168.05077515660062 141.0113434529596
130.8391849600562 32.240849039567046 -27.053284537943075
155.90108899205094 70.96531078709214 -59.54696610783008
157.92524513329715 104.26088306518413 -87.48526852621353
1479.0023698375949 7.095685185730694 -5.953986822296717
1510.4455923491814 -203.4587492055056 170.7221614181305
1592.1980567360758 -251.83473172335354 211.31443050669523
1652.0274163730412 -235.0643107194528 197.2423764276344
1621.3824793738706 -225.7429267691111 189.42080659284088
1601.81772539812 -235.20180730239016 197.3577497596653
1829.8085323561734 -315.9725513322383 265.1324512850254
2252.428711541214 -422.820915153066 354.7888739589777
2423.0128437161807 -464.03158986683496 389.3687359118682
2443.5160106800295 -487.72842707775675 409.2527432756206
2373.3673363247435 -465.3957653905448 390.51341509067413
2452.239414751139 -453.7107325478005 380.708508342033
2531.6925904285417 -450.8619757394633 378.31811755484347
2461.024783236044 -414.4079430137782 347.7295521397966
2431.9656700233063 -395.35003075728855 331.73806499436716
2261.576754975928 -345.8840987556822 290.2312196959789
2372.5324683426 -353.74936624289813 296.8309627436124
2408.6734303427374 -351.39084712098577 294.8519302182912
2566.614244479661 -348.52843991001293 292.4500853832847
2738.11753568585 -365.7890009085131 306.93341575103915
2631.3481058664415 -344.4770943842196 289.05060284681974
2835.2153935158276 -364.9060003015045 306.1924902673689
3006.105443232215 -368.81542084815845 309.47288360618313
3078.2655111690656 -365.6089593286798 306.78234292780445
3147.67639248324 -365.26035121218246 306.4898259858261
3222.8850305993005 -365.63246334273936 306.802065137333
3300.5302088044987 -366.78091403042515 307.76572968579546
3380.127760176805 -368.86881914237296 309.517690095164
3456.389293824509 -370.7332040181515 311.08209475680235
3332.9347297282798 -354.73044389871086 297.65418464276115
3406.8069978144904 -356.67734638800187 299.28782980346335
3479.218349680838 -360.29740858763967 302.32542266001826
3548.9935189902017 -365.2839280462357 306.5096092985845
3612.8171581183665 -366.3163696720426 307.37593068601115
3869.2995570562316 -389.43502930787554 326.7747894597516
3899.2836907769806 -388.7906680714239 326.23410618390017
3899.0349117494306 -385.311113473005 323.3144132037056
3861.947369337411 -380.96626714952544 319.668654256152
3773.0984950381603 -368.69156462437667 309.3689558944888
3600.9057669551307 -345.0306196514076 289.5150656943646
3364.977365887074 -319.8058889859404 268.34900349642476
3122.09861880356 -294.72639239203136 247.30480715436389
2872.790956407471 -272.4611927669076 228.62208636083395
2601.905241738096 -245.21413150186115 205.75908730266875
2334.1338462755343 -218.46851618149157 183.31685135173723
2062.3159286069567 -192.61538016596873 161.62349445633595
1808.2349905248955 -168.05077515660062 141.0113434529596

VECTORS D float
106.29800352568981 -26.599605948318565 21.49500425442974
74.53325731729032 -34.26292511424827 28.068047545945383
23.312686068242744 -15.50978062096309 12.772688119438532
648.550743570984 -562.3010375135965 464.38423120428774
645.6413251288021 -686.9991134979972 568.5257374831177
580.5793247438722 -730.0707170506337 604.9990608121533
491.3428492059163 -711.1407027253091 590.0099356063085
408.4962189043578 -666.6242483570885 553.5429786843799
354.98682863340525 -643.2203989576168 534.4542584498557
377.11609514174836 -749.5454880422512 622.8976085838214
428.3046314998498 -924.1649749845806 768.5162160322733
419.7913548666279 -975.2268400392136 811.3737042994732
393.17683761518373 -976.8485179136076 813.0847418317387
348.3275925752217 -919.8961699791352 765.7032161820792
324.1608295086603 -905.3165931727631 753.5843868299298
305.9121035723807 -899.4740637712155 748.7655298472943
270.9543812963789 -835.3438597227679 695.4123748097264
247.44995218474352 -797.1543708924856 663.6348005901506
210.9452669295785 -707.9168166986591 589.3458402631808
207.02412652175903 -721.768569385707 600.869826353722
197.8011838421876 -714.2231399045315 594.5326005546333
194.28109787486719 -725.1484840875901 603.582449153065
197.1953935812847 -757.6641293584026 630.6463850241415
179.9736667922725 -711.7522624072167 592.4778407243908
184.93988691737437 -751.389334378132 625.5162464293111
184.79203589587473 -769.9425495543046 641.0025939178395
180.05267824933128 -768.0480023030302 639.4645519134541
176.33185577203471 -768.8649394878432 640.1835973393172
173.33675391308986 -771.4331676482905 642.3617193511925
170.92044826161418 -775.3304594730058 645.6483907418641
169.03013517835168 -780.6113872707887 650.0482841028422
167.24655224272445 -785.4372598783128 654.1057708477595
157.07999314852046 -749.0588377140024 623.8403293185929
156.0001091340903 -754.5758792579762 628.4704966401438
155.41026099413762 -761.7481117922157 634.4842737603673
155.19852944076624 -770.140826367738 641.5192826892218
154.23336530869557 -774.1643701327193 644.9186829003381
162.02244478259638 -821.9508015211319 684.7805825761857
160.18970173449028 -820.6997791668167 683.7933553904309
157.3535990451627 -813.5539242368152 677.8949950843096
153.77650969360718 -801.7813564405586 668.1402302706941
147.8498254373722 -776.8781509084134 647.4404320537305
138.33881502970127 -732.0887223577784 610.1619596824229
127.53732509807062 -679.3225057048701 566.2271732767638
116.92177627199796 -626.4598737528514 522.2032993204801
106.96037940335825 -576.1391923193459 480.2898746549542
95.90376580674773 -519.0336066136542 432.7244608967867
85.21983413154305 -463.1503972388005 386.15602444292665
74.80922498674259 -408.0566021406515 340.23834887848864
65.13650636429611 -356.40155275002627 297.1813997097646
106.29800352568981 -26.599605948318565 21.49500425442974
74.53325731729032 -34.26292511424827 28.068047545945383
23.312686068242744 -15.50978062096309 12.772688119438532
648.550743570984 -562.3010375135965 464.38423120428774
645.6413251288021 -686.9991134979972 568.5257374831177
580.5793247438722 -730.0707170506337 604.9990608121533
491.3428492059163 -711.1407027253091 590.0099356063085
408.4962189043578 -666.6242483570885 553.5429786843799
354.98682863340525 -643.2203989576168 534.4542584498557
377.11609514174836 -749.5454880422512 622.8976085838214
428.3046314998498 -924.1649749845806 768.5162160322733
419.7913548666279 -975.2268400392136 811.3737042994732
393.17683761518373 -976.8485179136076 813.0847418317387
348.3275925752217 -919.8961699791352 765.7032161820792
324.1608295086603 -905.3165931727631 753.5843868299298
305.9121035723807 -899.4740637712155 748.7655298472943
270.9543812963789 -835.3438597227679 695.4123748097264
247.44995218474352 -797.1543708924856 663.6348005901506
210.9452669295785 -707.9168166986591 589.3458402631808
207.02412652175903 -721.768569385707 600.869826353722
197.8011838421876 -714.2231399045315 594.5326005546333
194.28109787486719 -725.1484840875901 603.582449153065
197.1953935812847 -757.6641293584026 630.6463850241415
179.9736667922725 -711.7522624072167 592.4778407243908
184.93988691737437 -751.389334378132 625.5162464293111
184.79203589587473 -769.9425495543046 641.0025939178395
180.05267824933128 -768.0480023030302 639.4645519134541
176.33185577203471 -768.8649394878432 640.1835973393172
173.33675391308986 -771.4331676482905 642.3617193511925
170.92044826161418 -775.3304594730058 645.6483907418641
169.03013517835168 -780.6113872707887 650.0482841028422
167.24655224272445 -785.4372598783128 654.1057708477595
157.07999314852046 -749.0588377140024 623.8403293185929
156.0001091340903 -754.5758792579762 628.4704966401438
155.41026099413762 -761.7481117922157 634.4842737603673
155.19852944076624 -770.140826367738 641.5192826892218
154.23336530869557 -774.1643701327193 644.9186829003381
162.02244478259638 -821.9508015211319 684.7805825761857
160.18970173449028 -820.6997791668167 683.7933553904309
157.3535990451627 -813.5539242368152 677.8949950843096
153.77650969360718 -801.7813564405586 668.1402302706941
147.8498254373722 -776.8781509084134 647.4404320537305
138.33881502970127 -732.0887223577784 610.1619596824229
127.53732509807062 -679.3225057048701 566.2271732767638
116.92177627199796 -626.4598737528514 522.2032993204801
106.96037940335825 -576.1391923193459 480.2898746549542
95.90376580674773 -519.0336066136542 432.7244608967867
85.21983413154305 -463.1503972388005 386.15602444292665
74.80922498674259 -408.0566021406515 340.23834887848864
65.13650636429611 -356.40155275002627 297.1813997097646

VECTORS L float
24.541181434366386 58.84045498788564 -48.54828879237283
81.36783167476065 105.2282359013404 -87.61501365377546
134.6125590650544 119.77066368614723 -100.25795664565204
830.451626266611 569.3967226993274 -470.3382180265845
864.8042672203799 483.5403642924916 -397.80357606498717
1011.6187319922035 478.23598532728033 -393.6846303054581
1160.684567167125 476.07639200585635 -392.76755917867416
1212.886260469513 440.88132158797737 -364.1221720915391
1246.8308967647147 408.0185916552266 -337.0965086901903
1452.6924372144247 433.572936710013 -357.76515729879577
1824.1240800413643 501.3440598315149 -413.72734207329563
2003.2214888495532 511.19525017237885 -422.0049683876051
2050.3391730648455 489.12009083585116 -403.83199855611826
2025.0397437495217 454.50040458859013 -375.1898010914049
2128.0785852424788 451.60586062496276 -372.8758784878968
2225.780486856161 448.61208803175197 -370.4474122924506
2190.0704019396658 420.9359167089897 -347.68282266993003
2184.5157178385625 401.80434013519715 -331.8967355957833
2050.631488046349 362.0327179429769 -299.11462056720194
2165.5083418208415 368.0192031428088 -304.0388636101097
2210.8722465005503 362.8322927835458 -299.68067033634213
2372.3331466047935 376.62004417757726 -311.1323637697803
2540.9221421045654 391.87512844988953 -323.7129692731024
2451.374439074169 367.27516802299726 -303.42723787757114
2650.2755065984534 386.48333407662744 -319.32375616194213
2821.313407336341 401.1271287061464 -331.52971031165646
2898.2128329197344 402.43904297435046 -332.6822089856498
2971.344536711206 403.604588275661 -333.6937713534913
3049.5482766862115 405.80070430555116 -335.55965421385963
3129.609760542885 408.5495454425804 -337.88266105606846
3211.097624998454 411.74256812841577 -340.53059400767825
3289.142741581785 414.7040558601615 -343.02367609095734
3175.85473657976 394.3283938152917 -326.1861446758318
3250.8068886804 397.89853286997413 -329.18266683668037
3323.8080886867 401.4507032045759 -332.1588511003489
3393.7949895494357 404.8568983215022 -335.00967339063726
3458.5837928096707 407.8480004606767 -337.542752214327
3707.2771122736353 432.5157722132563 -358.00579311643406
3739.09398904249 431.9091110953929 -357.55924920653086
3741.681312704268 428.24281076381027 -354.580581880604