# vtk DataFile Version 4.0
[MyVLM domain - lattices] 
ASCII
DATASET UNSTRUCTURED_GRID
POINTS 152 float
0.0 -1.1867036931983286 -1.9080246442064395
0.0 -3.3625338608426683 -2.4469834705357965
0.0 -5.504143380985556 -2.943469591899765
0.0 -7.604078154124325 -3.4397573072894536
0.0 -9.662278450919025 -3.936185358624607
0.0 -11.685154664862864 -4.396398597830599
0.0 -13.678016851696778 -4.790282202322715
0.0 -15.642235637990858 -5.110062962552524
0.0 -17.569452586816933 -5.403143929911147
0.0 -19.456245273656705 -5.688934638348218
0.0 -21.302656798496717 -5.967190655693679
0.0 -23.1087502377574 -6.237554257791061
0.0 -24.874594958958546 -6.4996320418864615
0.0 -26.60076184256151 -6.750186383998292
0.0 -28.286870022142097 -6.991377284953798
0.0 -29.932084627097435 -7.227939531224657
0.0 -31.536281382150896 -7.460577922927985
0.0 -33.09966508192531 -7.6881310120425335
0.0 -34.6223832698339 -7.909762038291257
0.0 -36.104435903330646 -8.125471242964599
0.0 -37.54582294100578 -8.335258860909047
0.0 -38.946544342585774 -8.53912512052713
0.0 -40.30660006893335 -8.737070243777415
0.0 -41.625990082047466 -8.929094446174517
0.0 -42.90471434506331 -9.115197936789087
0.0 -44.14277282225235 -9.295380918247819
0.0 -45.34016547902226 -9.469643586733449
0.0 -46.496892281916985 -9.637986131984754
0.0 -47.612952921293434 -9.800410310074984
0.0 -48.6883435567839 -9.956937900811608
0.0 -49.723063407711294 -10.107573331634457
0.0 -50.71711302357228 -10.25231348619309
0.0 -51.670492932267585 -10.391155370613722
0.0 -52.583203640102 -10.524096113499217
0.0 -53.45524563178436 -10.651132965929103
0.0 -54.28661937042758 -10.772263301459555
0.0 -55.07739857534494 -10.887069037089374
0.0 -55.82781636008047 -10.994228120214476
0.0 -56.538242643494 -11.091642636730398
0.0 -57.20886986214663 -11.178221224666736
0.0 -57.83956318093406 -11.254728571898994
0.0 -58.43036671936086 -11.320914464283112
0.0 -58.983325476419374 -11.365181136212765
0.0 -59.49839302864585 -11.387791868233803
0.0 -59.97402101825946 -11.397527833678925
0.0 -60.40915428314803 -11.400373154251685
0.0 -60.80352564504457 -11.397843073200256
0.0 -61.15739052928072 -11.388489001484988
0.0 -61.47052503109512 -11.373580766108441
0.0 -61.74248556893825 -11.355634043047749
0.0 -61.972888146841925 -11.336826581656254
-0.7686761955390344 -1.7515682552460246 1.2954814770809908
-0.8409029948616161 -3.9796842401872743 1.0530502558114525
-0.8940476007249757 -6.160620817856309 0.7795989608145799
-0.9506443374492793 -8.302516230497938 0.5212818573770008
-1.0210144815146838 -10.405119951093901 0.2766781361747255
-1.048631451549771 -12.463132289950115 0.015731763396107823
-0.9920275022819518 -14.472941200589256 -0.2820421944773326
-0.9074715353829097 -16.431061585419798 -0.6364087080560337
-0.8388231939293685 -18.344460102441094 -1.007857896484723
-0.7803448823218929 -20.216675266601097 -1.3763218442706613
-0.7251531968841737 -22.04809415391673 -1.7396053342362525
-0.671766762046156 -23.839263469967122 -2.094607844969855
-0.6188683613166902 -25.58944882326254 -2.44549431757574
-0.5668565661826578 -27.29840903451938 -2.7936325477402666
-0.5162677046190278 -28.96628951605545 -3.138197861229104
-0.4681223452427161 -30.59406805525604 -3.47364495022056
-0.42442582165628834 -32.181857177472686 -3.7993356517342667
-0.3846819074085718 -33.729451344425456 -4.116435631280416
-0.3476243488905531 -35.236720171650916 -4.425684335896114
-0.3131098246080671 -36.70367308067615 -4.727028333446013
-0.28048746260446866 -38.13032606849994 -5.0203769004417165
-0.2502235469699514 -39.516677090106946 -5.305741634741603
-0.2227998260917326 -40.86272622597682 -5.583122079922921
-0.19746739264611052 -42.168489116161155 -5.852429536845365
-0.17533279734900953 -43.43395952668159 -6.113699360157068
-0.15613374469432648 -44.65914762575848 -6.366873883014804
-0.13998404755873647 -45.84405884615249 -6.611922294701791
-0.12578653595324127 -46.98870753262814 -6.848763242015838
-0.11250427274737486 -48.093104258914785 -7.0773367583578715
-0.10008179164308317 -49.15725110368959 -7.29763105496383
-0.08845752889585208 -50.18114957769175 -7.509637564005984
-0.07764231497362577 -51.164800471277836 -7.713351803149512
-0.06766212708627829 -52.10820454537188 -7.9087694569797655
-0.0584684819534103 -53.011362931226756 -8.09588410984299
-0.050013688763705585 -53.874276651168714 -8.274689963838675
-0.042252254921319045 -54.696946619566646 -8.445181833323419
-0.03513536582041269 -55.479316467266614 -8.607679403654943
-0.028615518964613278 -56.22120478747786 -8.763211483867703
-0.022687693716904638 -56.92212393570498 -8.914543643322911
-0.017408965386693863 -57.581821681805444 -9.063106350242279
-0.013252482528008399 -58.200708544202314 -9.2065714389565
-0.010166684094042405 -58.77876354883977 -9.34505785924694
-0.00760098697125575 -59.313563281197546 -9.492309477823822
-0.005464879873870877 -59.80509982958207 -9.648371164131111
-0.0039015967321000085 -60.25519952779842 -9.80288526446341
-0.002883995165670249 -60.66507120176562 -9.948996186363146
-0.0022477517166190047 -61.034928867715955 -10.085490183463044
-0.00179874084072329 -61.364313865555374 -10.214968446415941
-0.0014595970466816986 -61.653409484350874 -10.336391491268355
-0.0012027506489664258 -61.902700316434306 -10.447011058338752
-0.0010073243559101815 -62.11260585638913 -10.544448075622649
-0.603592196400244 -2.7178743800426117 0.3363233854918873
-0.6506064733449719 -4.910949051994871 0.013436823430317268
-0.6917594768153456 -7.062204085021579 -0.3100730555768094
-0.7393720571114861 -9.173658143727359 -0.6227578356573604
-0.7761172248991705 -11.244023729864242 -0.9319192822178384
-0.7652471076868961 -13.271423998522222 -1.2482015116746232
-0.712312139124323 -15.25403260596435 -1.5819622340594168
-0.6548605234921042 -17.19228166104881 -1.9307508382607432
-0.607188028594223 -19.088637995950023 -2.2805772238156905
-0.564561779702275 -20.94415129171336 -2.6254883536953297
-0.5238449845988737 -22.759184988488208 -2.963423056387883
-0.48398817126106725 -24.533685259550616 -3.294686598414288
-0.4446468478122555 -26.267366296858228 -3.620899877729096
-0.4061716015506322 -27.960215939553514 -3.9421318619825256
-0.369146268698154 -29.61250342039675 -4.25685565631593
-0.3347055625871267 -31.224517713429314 -4.56343240750214
-0.3034153983993225 -32.796234003721324 -4.86200284800182
-0.27461484611217185 -34.32757036249854 -5.153031618982922
-0.24777531506198255 -35.81849986626821 -5.43667141116028
-0.22259898270470088 -37.26903203648308 -5.712868225692104
-0.19901662859040753 -38.67917209492653 -5.981592448373266
-0.1773837648981315 -40.048919294971306 -6.242848313537265
-0.15760020702669117 -41.378279522174346 -6.4966024425321
-0.13980007124817 -42.66725629445488 -6.742834884246364
-0.124299953266251 -43.915851078079484 -6.981537323069064
-0.11104417209489861 -45.12406971462594 -7.21267662976638
-0.09966396881699166 -46.29191961216014 -7.436210791108886
-0.08935905326273105 -47.419410072229894 -7.652087055397608
-0.07971977414642176 -48.5065453207363 -7.860281456356461
-0.07070224520210072 -49.5533261260799 -8.060789636169437
-0.06228744145105419 -50.55975332227404 -8.253606864911752
-0.05448916577246402 -51.52582762572363 -8.438729079649331
-0.04729897838988322 -52.45154987527069 -8.616151523072649
-0.04068081401891846 -53.33692100238409 -8.785868912559165
-0.03459972888188424 -54.18194185180225 -8.947876457359367
-0.029020357778149403 -54.98660090078403 -9.102239506185501
-0.023906581794384738 -55.75084733745735 -9.249246227483974
-0.019238704755569217 -56.474505646640374 -9.38989201731459
-0.015036247163849435 -57.15736866977149 -9.525351730261589
-0.011498042968013347 -57.799502965138 -9.655247895520258
-0.00878218748326905 -58.40104327242765 -9.778816366349053
-0.006662876649486808 -58.96133408573652 -9.899774701463521
-0.004899700066922485 -59.47971347967551 -10.02187686628892
-0.0035124287272390825 -59.956664014880836 -10.142386123462037
-0.0025445969616638467 -60.39299843626245 -10.256693167551287
-0.0019244050808584702 -60.78908501707967 -10.362709417116314
-0.0015174347090033604 -61.14483054676741 -10.460963495540273
-0.0012218767077768707 -61.46013570126181 -10.55201869758079
-0.0009983803858680466 -61.73516750029861 -10.634927807247188
-0.0008287781268287279 -61.97016152928132 -10.708354753323524

CELLS 100 350
4 0 51 52 1
4 1 52 53 2
4 2 53 54 3
4 3 54 55 4
4 4 55 56 5
4 5 56 57 6
4 6 57 58 7
4 7 58 59 8
4 8 59 60 9
4 9 60 61 10
4 10 61 62 11
4 11 62 63 12
4 12 63 64 13
4 13 64 65 14
4 14 65 66 15
4 15 66 67 16
4 16 67 68 17
4 17 68 69 18
4 18 69 70 19
4 19 70 71 20
4 20 71 72 21
4 21 72 73 22
4 22 73 74 23
4 23 74 75 24
4 24 75 76 25
4 25 76 77 26
4 26 77 78 27
4 27 78 79 28
4 28 79 80 29
4 29 80 81 30
4 30 81 82 31
4 31 82 83 32
4 32 83 84 33
4 33 84 85 34
4 34 85 86 35
4 35 86 87 36
4 36 87 88 37
4 37 88 89 38
4 38 89 90 39
4 39 90 91 40
4 40 91 92 41
4 41 92 93 42
4 42 93 94 43
4 43 94 95 44
4 44 95 96 45
4 45 96 97 46
4 46 97 98 47
4 47 98 99 48
4 48 99 100 49
4 49 100 101 50
1 102
1 103
1 104
1 105
1 106
1 107
1 108
1 109
1 110
1 111
1 112
1 113
1 114
1 115
1 116
1 117
1 118
1 119
1 120
1 121
1 122
1 123
1 124
1 125
1 126
1 127
1 128
1 129
1 130
1 131
1 132
1 133
1 134
1 135
1 136
1 137
1 138
1 139
1 140
1 141
1 142
1 143
1 144
1 145
1 146
1 147
1 148
1 149
1 150
1 151

CELL_TYPES 100
9
9
9
9
9
9
9
9
9
9
9
9
9
9
9
9
9
9
9
9
9
9
9
9
9
9
9
9
9
9
9
9
9
9
9
9
9
9
9
9
9
9
9
9
9
9
9
9
9
9
1
1
1
1
1
1
1
1
1
1
1
1
1
1
1
1
1
1
1
1
1
1
1
1
1
1
1
1
1
1
1
1
1
1
1
1
1
1
1
1
1
1
1
1
1
1
1
1
1
1

CELL_DATA 100

VECTORS S float
-1.7934753166622e-19 -4.48781833915139e-17 -5.2329767326517995e-19
3.6606493541170997e-19 6.522728254815685e-17 5.7804355455658e-19
9.284879320141999e-20 1.3141483848502589e-17 1.0112987379501999e-19
-1.53982632779e-21 9.828747111481539e-18 1.4193056071281e-19
-8.0242288747015995e-19 3.0688313774626526e-16 4.72448664639528e-18
2.13136343611392e-18 -6.949590093758136e-16 -1.031558803960599e-17
6.159910245411e-19 -2.2942358110430556e-16 -3.2235168719599e-18
-1.23441700856667e-18 4.883476409402347e-16 6.5452975738299596e-18
8.7641827812831e-19 -3.3697245507006444e-16 -4.37971382874414e-18
1.35241484557322e-18 -4.68456523308849e-16 -5.977529943873919e-18
4.7557129610542e-19 -1.56037058958845e-16 -1.95504746638338e-18
4.425693730208e-20 -1.422856189173861e-17 -1.7511276508071998e-19
-2.2226942611234698e-18 7.159405532889029e-16 8.65999887023412e-18
-3.9855992824655295e-18 1.349272547122616e-15 1.619194855191953e-17
-2.2280761280879097e-18 8.287230086101029e-16 9.63890195766656e-18
-4.8995766250777e-19 1.9400937760216704e-16 2.1995469034307598e-18
-2.0872907765952598e-18 8.9802048173987e-16 9.94451498681307e-18
6.577528414833199e-19 -3.0054323289041023e-16 -3.26354869814625e-18
1.02679240588678e-18 -5.060561032095237e-16 -5.39762804241288e-18
-1.5645290466013999e-19 8.079651331376004e-17 8.4928880320724e-19
-1.62732390033828e-18 8.70822262088671e-16 9.0406264145941e-18
1.3644175949467799e-18 -7.868554956943127e-16 -8.06955163814878e-18
-4.4128223793847e-19 2.6018626788465684e-16 2.6631690807759797e-18
1.6407973792298e-19 -1.00056694144912e-16 -1.01147755591649e-18
-3.0080345012263e-19 1.8863795333978547e-16 1.88497243602379e-18
6.482078592986e-20 -4.364762314746769e-17 -4.3084135394603e-19
1.25618328596272e-18 -8.80702930994594e-16 -8.59864436336097e-18
-8.6576289714157e-19 6.269064638140983e-16 6.0570255756446496e-18
1.6844167146519998e-19 -1.261524818464256e-16 -1.2063405887922698e-18
-9.49184298366e-21 7.321441885373569e-18 6.930612656064e-20
1.079581929873e-19 -8.550963427357841e-17 -8.013671888843e-19
1.572738260212e-19 -1.2781041233629701e-16 -1.18583797703036e-18
-5.3359962866741e-19 4.3907975751456654e-16 4.03409861922138e-18
3.0831013432113e-19 -2.6232301029191476e-16 -2.3854878804533897e-18
6.595186578642e-20 -5.658620858536355e-17 -5.1525922226538e-19
-7.7898705029494e-19 6.801809330938128e-16 6.1188657952066294e-18
-5.267359311479e-20 4.715916204037552e-17 4.1910209444359997e-19
1.3379308725143199e-18 -1.2135050606653016e-15 -1.0657496611206019e-17
-7.8583375307011e-19 7.273422217402821e-16 6.31289967160012e-18
-3.9091363390187996e-19 3.6899768646467445e-16 3.1658946900182998e-18
6.4721305038901e-19 -6.161255416620225e-16 -5.22804644201783e-18
-1.4935915795818298e-18 1.4607990019186617e-15 1.2259221677769649e-17
-7.030542151609699e-19 7.084551529346471e-16 5.8821503861719995e-18
-2.1831306560996e-19 2.238981530700196e-16 1.84043792031806e-18
-5.0377824814413e-19 5.242978143089044e-16 4.2725571677622494e-18
-8.378649129146e-20 8.748640866942953e-17 7.0683393371229e-19
1.044258438242e-19 -1.1060529619520419e-16 -8.8642463071485e-19
-3.563260724022e-20 3.8262224731101777e-17 3.0440416791080996e-19
4.909663228786e-20 -5.3152134270183296e-17 -4.2014224408981997e-19
-2.6215382843428e-19 2.868239087355074e-16 2.2543975320710397e-18
-1.7934753166622e-19 -4.48781833915139e-17 -5.2329767326517995e-19
3.6606493541170997e-19 6.522728254815685e-17 5.7804355455658e-19
9.284879320141999e-20 1.3141483848502589e-17 1.0112987379501999e-19
-1.53982632779e-21 9.828747111481539e-18 1.4193056071281e-19
-8.0242288747015995e-19 3.0688313774626526e-16 4.72448664639528e-18
2.13136343611392e-18 -6.949590093758136e-16 -1.031558803960599e-17
6.159910245411e-19 -2.2942358110430556e-16 -3.2235168719599e-18
-1.23441700856667e-18 4.883476409402347e-16 6.5452975738299596e-18
8.7641827812831e-19 -3.3697245507006444e-16 -4.37971382874414e-18
1.35241484557322e-18 -4.68456523308849e-16 -5.977529943873919e-18
4.7557129610542e-19 -1.56037058958845e-16 -1.95504746638338e-18
4.425693730208e-20 -1.422856189173861e-17 -1.7511276508071998e-19
-2.2226942611234698e-18 7.159405532889029e-16 8.65999887023412e-18
-3.9855992824655295e-18 1.349272547122616e-15 1.619194855191953e-17
-2.2280761280879097e-18 8.287230086101029e-16 9.63890195766656e-18
-4.8995766250777e-19 1.9400937760216704e-16 2.1995469034307598e-18
-2.0872907765952598e-18 8.9802048173987e-16 9.94451498681307e-18
6.577528414833199e-19 -3.0054323289041023e-16 -3.26354869814625e-18
1.02679240588678e-18 -5.060561032095237e-16 -5.39762804241288e-18
-1.5645290466013999e-19 8.079651331376004e-17 8.4928880320724e-19
-1.62732390033828e-18 8.70822262088671e-16 9.0406264145941e-18
1.3644175949467799e-18 -7.868554956943127e-16 -8.06955163814878e-18
-4.4128223793847e-19 2.6018626788465684e-16 2.6631690807759797e-18
1.6407973792298e-19 -1.00056694144912e-16 -1.01147755591649e-18
-3.0080345012263e-19 1.8863795333978547e-16 1.88497243602379e-18
6.482078592986e-20 -4.364762314746769e-17 -4.3084135394603e-19
1.25618328596272e-18 -8.80702930994594e-16 -8.59864436336097e-18
-8.6576289714157e-19 6.269064638140983e-16 6.0570255756446496e-18
1.6844167146519998e-19 -1.261524818464256e-16 -1.2063405887922698e-18
-9.49184298366e-21 7.321441885373569e-18 6.930612656064e-20
1.079581929873e-19 -8.550963427357841e-17 -8.013671888843e-19
1.572738260212e-19 -1.2781041233629701e-16 -1.18583797703036e-18
-5.3359962866741e-19 4.3907975751456654e-16 4.03409861922138e-18
3.0831013432113e-19 -2.6232301029191476e-16 -2.3854878804533897e-18
6.595186578642e-20 -5.658620858536355e-17 -5.1525922226538e-19
-7.7898705029494e-19 6.801809330938128e-16 6.1188657952066294e-18
-5.267359311479e-20 4.715916204037552e-17 4.1910209444359997e-19
1.3379308725143199e-18 -1.2135050606653016e-15 -1.0657496611206019e-17
-7.8583375307011e-19 7.273422217402821e-16 6.31289967160012e-18
-3.9091363390187996e-19 3.6899768646467445e-16 3.1658946900182998e-18
6.4721305038901e-19 -6.161255416620225e-16 -5.22804644201783e-18
-1.4935915795818298e-18 1.4607990019186617e-15 1.2259221677769649e-17
-7.030542151609699e-19 7.084551529346471e-16 5.8821503861719995e-18
-2.1831306560996e-19 2.238981530700196e-16 1.84043792031806e-18
-5.0377824814413e-19 5.242978143089044e-16 4.2725571677622494e-18
-8.378649129146e-20 8.748640866942953e-17 7.0683393371229e-19
1.044258438242e-19 -1.1060529619520419e-16 -8.8642463071485e-19
-3.563260724022e-20 3.8262224731101777e-17 3.0440416791080996e-19
4.909663228786e-20 -5.3152134270183296e-17 -4.2014224408981997e-19
-2.6215382843428e-19 2.868239087355074e-16 2.2543975320710397e-18

SCALARS Gamma float
LOOKUP_TABLE default
-0.0
-0.0
-0.0
50.954474923829686
54.50194774093939
54.53285375584872
52.405002138583704
47.76013248102025
44.76665574995183
47.302092474326514
53.7851840349375
54.40713157009175
50.34044411180784
45.40672110190722
44.40458811148405
43.62329332740651
40.05083233459878
37.90752823585235
33.19187384565274
33.518794020343826
33.03418627114632
34.659042093996874
36.37277117769051
34.36527413746845
36.46139616376514
37.70351907660657
37.81784912445387
37.932972769331435
38.15116363213563
38.424614260380935
38.76566351435115
39.06944295069742
37.120335348212336
37.43870556109976
37.71773246999079
38.03279439735996
38.29189331170752
40.61112661895666
40.545233001550464
40.18556246866902
39.47188053678358
38.25378618002853
36.2304021471403
33.62736219884731
30.98820559691043
28.37840084647113
25.5629371163764
22.854144746337283
20.107724874957817
17.565938106207145
-0.0
-0.0
-0.0
50.954474923829686
54.50194774093939
54.53285375584872
52.405002138583704
47.76013248102025
44.76665574995183
47.302092474326514
53.7851840349375
54.40713157009175
50.34044411180784
45.40672110190722
44.40458811148405
43.62329332740651
40.05083233459878
37.90752823585235
33.19187384565274
33.518794020343826
33.03418627114632
34.659042093996874
36.37277117769051
34.36527413746845
36.46139616376514
37.70351907660657
37.81784912445387
37.932972769331435
38.15116363213563
38.424614260380935
38.76566351435115
39.06944295069742
37.120335348212336
37.43870556109976
37.71773246999079
38.03279439735996
38.29189331170752
40.61112661895666
40.545233001550464
40.18556246866902
39.47188053678358
38.25378618002853
36.2304021471403
33.62736219884731
30.98820559691043
28.37840084647113
25.5629371163764
22.854144746337283
20.107724874957817
17.565938106207145

VECTORS Ftot float
114.80452323804793 -3.0578337473286355e-14 -39.34645407151544
138.38240432048332 -6.810620943039068e-14 -87.6351712606656
141.89507586755906 -1.0124472206580013e-13 -130.275912162507
1262.0937085664623 1.064132467422639e-14 13.692647382164356
1291.0645774532293 1.7041386141126331e-13 219.27880078587017
1384.1906461340238 2.222632708039915e-13 285.9956524488631
1466.8516604330748 2.1784063945094662e-13 280.3048636164144
1457.8236296708942 2.1367108547032095e-13 274.93972025828657
1474.3039105563164 2.2927725797333795e-13 295.0208495923633
1664.4093143392122 2.9265542317300483e-13 376.5722442142633
2019.5782728046058 3.817924076505721e-13 491.2686128080085
2175.173959218447 4.272340083005317e-13 549.7402630235173
2136.6319452827233 4.261866876509033e-13 548.3926307699733
2045.4812225217513 3.9128958070946807e-13 503.4890313934708
2115.9058212747696 3.801080488284025e-13 489.1012763040424
2186.8961473840177 3.7858356453736657e-13 487.13965719403063
2107.384941284405 3.4375695178997386e-13 442.32676571067714
2084.94318495879 3.265691306014867e-13 420.21046139645347
1904.1513740836701 2.8150715315051527e-13 362.22728858023174
1998.3293873570644 2.860905923995737e-13 368.1249958071275
2041.2456932013858 2.85547939653782e-13 367.42674132034495
2217.901904046408 2.914395648452797e-13 375.0077473252124
2402.383348561172 3.0936293959518037e-13 398.07051985231976
2338.3348595858383 2.947906312905429e-13 379.3197077806928
2551.2052649946436 3.163963622682205e-13 407.12072548930354
2711.5967099431605 3.1705184040660675e-13 407.9641572320995
2789.072425648276 3.166584527631485e-13 407.4579685336736
2864.215982713678 3.181658740401705e-13 409.3976319340983
2945.531689079526 3.196329706378277e-13 411.2854078456771
3029.3492033085736 3.22430804382626e-13 414.88550013439664
3116.9573777907176 3.2633464554867313e-13 419.9087394546034
3200.1506462035186 3.2984491273076203e-13 424.42555030409676
3093.269783969218 3.1797653816208154e-13 409.15400536552426
3172.0250583104057 3.1860711152405405e-13 409.9653910678126
3245.168262751278 3.2280986816897543e-13 415.3732577135261
3319.535287452338 3.284315498028953e-13 422.6069158025883
3387.8520299381958 3.309068952264667e-13 425.79204858179094
3638.250091353951 3.549598977787256e-13 456.7420752479328
3675.4702433424422 3.555682483143769e-13 457.52486588955287
3683.1096228798583 3.534331392675923e-13 454.77752980169726
3654.1188732884975 3.5155944498187933e-13 452.3665672625706
3575.4316132782437 3.3853665900257887e-13 435.60959181008366
3416.5252135905785 3.1735518086386434e-13 408.35447836646284
3196.406054750392 2.946651464825497e-13 379.15824111368744
2966.9118471727907 2.718719749467724e-13 349.82929287508165
2734.347098090225 2.5189440772577313e-13 324.12330307729223
2477.5309027958824 2.2682636249543039e-13 291.8671776034979
2226.5157528707878 2.0254944071949058e-13 260.62902449954726
1967.691775018322 1.7869841178346303e-13 229.9388859199192
1725.589275098525 1.559449827928031e-13 200.66107611313666
114.80452323804793 -3.0578337473286355e-14 -39.34645407151544
138.38240432048332 -6.810620943039068e-14 -87.6351712606656
141.89507586755906 -1.0124472206580013e-13 -130.275912162507
1262.0937085664623 1.064132467422639e-14 13.692647382164356
1291.0645774532293 1.7041386141126331e-13 219.27880078587017
1384.1906461340238 2.222632708039915e-13 285.9956524488631
1466.8516604330748 2.1784063945094662e-13 280.3048636164144
1457.8236296708942 2.1367108547032095e-13 274.93972025828657
1474.3039105563164 2.2927725797333795e-13 295.0208495923633
1664.4093143392122 2.9265542317300483e-13 376.5722442142633
2019.5782728046058 3.817924076505721e-13 491.2686128080085
2175.173959218447 4.272340083005317e-13 549.7402630235173
2136.6319452827233 4.261866876509033e-13 548.3926307699733
2045.4812225217513 3.9128958070946807e-13 503.4890313934708
2115.9058212747696 3.801080488284025e-13 489.1012763040424
2186.8961473840177 3.7858356453736657e-13 487.13965719403063
2107.384941284405 3.4375695178997386e-13 442.32676571067714
2084.94318495879 3.265691306014867e-13 420.21046139645347
1904.1513740836701 2.8150715315051527e-13 362.22728858023174
1998.3293873570644 2.860905923995737e-13 368.1249958071275
2041.2456932013858 2.85547939653782e-13 367.42674132034495
2217.901904046408 2.914395648452797e-13 375.0077473252124
2402.383348561172 3.0936293959518037e-13 398.07051985231976
2338.3348595858383 2.947906312905429e-13 379.3197077806928
2551.2052649946436 3.163963622682205e-13 407.12072548930354
2711.5967099431605 3.1705184040660675e-13 407.9641572320995
2789.072425648276 3.166584527631485e-13 407.4579685336736
2864.215982713678 3.181658740401705e-13 409.3976319340983
2945.531689079526 3.196329706378277e-13 411.2854078456771
3029.3492033085736 3.22430804382626e-13 414.88550013439664
3116.9573777907176 3.2633464554867313e-13 419.9087394546034
3200.1506462035186 3.2984491273076203e-13 424.42555030409676
3093.269783969218 3.1797653816208154e-13 409.15400536552426
3172.0250583104057 3.1860711152405405e-13 409.9653910678126
3245.168262751278 3.2280986816897543e-13 415.3732577135261
3319.535287452338 3.284315498028953e-13 422.6069158025883
3387.8520299381958 3.309068952264667e-13 425.79204858179094
3638.250091353951 3.549598977787256e-13 456.7420752479328
3675.4702433424422 3.555682483143769e-13 457.52486588955287
3683.1096228798583 3.534331392675923e-13 454.77752980169726
3654.1188732884975 3.5155944498187933e-13 452.3665672625706
3575.4316132782437 3.3853665900257887e-13 435.60959181008366
3416.5252135905785 3.1735518086386434e-13 408.35447836646284
3196.406054750392 2.946651464825497e-13 379.15824111368744
2966.9118471727907 2.718719749467724e-13 349.82929287508165
2734.347098090225 2.5189440772577313e-13 324.12330307729223
2477.5309027958824 2.2682636249543039e-13 291.8671776034979
2226.5157528707878 2.0254944071949058e-13 260.62902449954726
1967.691775018322 1.7869841178346303e-13 229.9388859199192
1725.589275098525 1.559449827928031e-13 200.66107611313666

VECTORS D float
90.66419743141823 -0.7246460881880281 31.07294538185795
59.15371051183825 -0.663958342949233 37.461016643439336
12.091843863084932 -0.17086550091453662 11.101695949338803
525.3923902008521 -9.000065862388873 628.9581604879578
510.4106667542199 -10.215415678099989 750.2410913563734
468.44583889236844 -10.63558278284517 813.3052983023053
406.21211985035427 -10.307907258317373 811.2568106993905
342.5950081768112 -9.462598587628564 770.6208534724966
306.0093773743042 -9.124787090513978 763.2905368272002
318.1747512477296 -10.172876801973004 869.2310711216919
355.46003950718807 -12.10911294392657 1052.9242882685257
352.24484290472776 -12.712098352703995 1121.9293808887683
318.40744263859204 -12.109997002119107 1082.882398715877
275.18564128581926 -11.111334954034218 993.6419238380397
256.213361682683 -10.672184970840123 976.7863760510496
242.58873899656905 -10.409371687202592 972.1883768142943
212.95277610168836 -9.401237959899705 893.6583251060816
194.49574837332239 -8.823705967277824 851.7829840284145
163.32708285360744 -7.606311651286676 744.2016031548167
160.08686809063113 -7.645728341737623 756.8617940562551
153.88880471255675 -7.530307702346566 753.0436725595059
154.97834702305963 -7.7629156702754125 783.159749719569
159.28279537388474 -8.215017509074753 828.9835709784065
147.35869068013756 -7.730691092060326 788.6343743453276
153.55820882775222 -8.184042102688831 843.519916217929
153.22475205527297 -8.285350035242647 862.4241415827565
150.34862005281397 -8.237425135964028 865.6701649840617
148.13366675425453 -8.212422981856175 871.1651647323386
146.36125943163523 -8.199417388791613 877.8865589919924
145.17527195355532 -8.20744370612523 886.9100909078544
144.522967459807 -8.234588822302388 898.1389891973832
143.86990528286714 -8.251167639880547 908.3973777427817
135.86397562226352 -7.833691856113748 870.6065019911318
135.05633185400276 -7.819904789148863 877.3803537005293
134.85780813317663 -7.9266711836125525 887.7752658838309
135.1990868435711 -7.946744375010962 900.5823180878764
134.93954744022687 -7.925288816016197 908.7469028611484
142.6524526530617 -8.365950293774059 970.4888977715729
141.54523277523572 -8.283875366591783 972.0482907186794
139.48428868440286 -8.142400380599494 966.2523590936181
136.90004479767993 -7.968023431953417 955.9796960508411
131.5063349364529 -7.629177608300882 925.1086315499437
123.30329562469966 -7.128317972493109 873.2830961237134
113.89870031313859 -6.560810615559803 811.6649507211928
104.57755862775412 -6.005471638246301 749.2795128084929
95.88589354729316 -5.486797086551317 690.479179772363
86.04871604313334 -4.907167463679799 622.4380522206557
76.64497297913897 -4.356975316141357 556.6238796139294
67.3314192667263 -3.8163859912161926 490.6785962733507
58.65377095920391 -3.315924962488637 428.70117433806735
90.66419743141823 -0.7246460881880281 31.07294538185795
59.15371051183825 -0.663958342949233 37.461016643439336
12.091843863084932 -0.17086550091453662 11.101695949338803
525.3923902008521 -9.000065862388873 628.9581604879578
510.4106667542199 -10.215415678099989 750.2410913563734
468.44583889236844 -10.63558278284517 813.3052983023053
406.21211985035427 -10.307907258317373 811.2568106993905
342.5950081768112 -9.462598587628564 770.6208534724966
306.0093773743042 -9.124787090513978 763.2905368272002
318.1747512477296 -10.172876801973004 869.2310711216919
355.46003950718807 -12.10911294392657 1052.9242882685257
352.24484290472776 -12.712098352703995 1121.9293808887683
318.40744263859204 -12.109997002119107 1082.882398715877
275.18564128581926 -11.111334954034218 993.6419238380397
256.213361682683 -10.672184970840123 976.7863760510496
242.58873899656905 -10.409371687202592 972.1883768142943
212.95277610168836 -9.401237959899705 893.6583251060816
194.49574837332239 -8.823705967277824 851.7829840284145
163.32708285360744 -7.606311651286676 744.2016031548167
160.08686809063113 -7.645728341737623 756.8617940562551
153.88880471255675 -7.530307702346566 753.0436725595059
154.97834702305963 -7.7629156702754125 783.159749719569
159.28279537388474 -8.215017509074753 828.9835709784065
147.35869068013756 -7.730691092060326 788.6343743453276
153.55820882775222 -8.184042102688831 843.519916217929
153.22475205527297 -8.285350035242647 862.4241415827565
150.34862005281397 -8.237425135964028 865.6701649840617
148.13366675425453 -8.212422981856175 871.1651647323386
146.36125943163523 -8.199417388791613 877.8865589919924
145.17527195355532 -8.20744370612523 886.9100909078544
144.522967459807 -8.234588822302388 898.1389891973832
143.86990528286714 -8.251167639880547 908.3973777427817
135.86397562226352 -7.833691856113748 870.6065019911318
135.05633185400276 -7.819904789148863 877.3803537005293
134.85780813317663 -7.9266711836125525 887.7752658838309
135.1990868435711 -7.946744375010962 900.5823180878764
134.93954744022687 -7.925288816016197 908.7469028611484
142.6524526530617 -8.365950293774059 970.4888977715729
141.54523277523572 -8.283875366591783 972.0482907186794
139.48428868440286 -8.142400380599494 966.2523590936181
136.90004479767993 -7.968023431953417 955.9796960508411
131.5063349364529 -7.629177608300882 925.1086315499437
123.30329562469966 -7.128317972493109 873.2830961237134
113.89870031313859 -6.560810615559803 811.6649507211928
104.57755862775412 -6.005471638246301 749.2795128084929
95.88589354729316 -5.486797086551317 690.479179772363
86.04871604313334 -4.907167463679799 622.4380522206557
76.64497297913897 -4.356975316141357 556.6238796139294
67.3314192667263 -3.8163859912161926 490.6785962733507
58.65377095920391 -3.315924962488637 428.70117433806735

VECTORS L float
24.140325806629697 0.7246460881879978 -70.4193994533734
79.22869380864509 0.6639583429491651 -125.09618790410497
129.80323200447415 0.17086550091443548 -141.37760811184586
736.7013183656102 9.000065862388887 -615.2655131057937
780.6539106990092 10.21541567810016 -530.9622905705032
915.7448072416553 10.635582782845388 -527.3096458534421
1060.6395405827207 10.30790725831759 -530.9519470829761
1115.2286214940832 9.462598587628777 -495.68113321421