# vtk DataFile Version 4.0
[MyVLM domain - lattices] 
ASCII
DATASET UNSTRUCTURED_GRID
POINTS 152 float
0.0 2.085106396307393 -0.837349995179896
0.0 2.9937061705550896 -2.8865351954843117
0.0 3.854536142584262 -4.909394944634023
0.0 4.707933978999723 -6.891247532665128
0.0 5.554222903579273 -8.831975315743499
0.0 6.358713237785336 -10.744204304293074
0.0 7.0926697523586215 -12.638393266439055
0.0 7.748675337076202 -14.517241809526855
0.0 8.371961457123774 -16.364287026576637
0.0 8.981048474236482 -18.17278805718896
0.0 9.575703153952286 -19.94282979176561
0.0 10.155584159853921 -21.67453646660235
0.0 10.720316111402688 -23.368044709041786
0.0 11.266809703751962 -25.024478934092667
0.0 11.797125985702428 -26.64308898134017
0.0 12.315782837921477 -28.222230476699394
0.0 12.823452772853448 -29.761658645658432
0.0 13.319027549695353 -31.26177685488197
0.0 13.801708741083772 -32.722875708164516
0.0 14.271496577255371 -34.14495512170678
0.0 14.72839128229806 -35.528015013947424
0.0 15.172393074150989 -36.872055305563094
0.0 15.603502164604564 -38.17707591946838
0.0 16.021718759300434 -39.44307678081584
0.0 16.427043057731495 -40.670057816996014
0.0 16.819475253241887 -41.85801895763736
0.0 17.199015533026998 -43.00696013460636
0.0 17.565664078133462 -44.11688128200743
0.0 17.91942256418687 -45.1877817899627
0.0 18.26031177323763 -46.21965409442444
0.0 18.58833592989965 -47.212496657758926
0.0 18.903492060585958 -48.1663105622633
0.0 19.205777308575428 -49.08109684769903
0.0 19.495188934012813 -49.95685651129187
0.0 19.77172431390872 -50.79359050773188
0.0 20.035380942139618 -51.59129974917343
0.0 20.28575988854894 -52.35012943431906
0.0 20.52159966522441 -53.07053870721973
0.0 20.740898465826678 -53.75325616579773
0.0 20.942614924884104 -54.398660836087736
0.0 21.127478699074977 -55.00648714477759
0.0 21.295251036841883 -55.576821990327595
0.0 21.434865479046437 -56.11369323446285
0.0 21.546573245061534 -56.61700944080933
0.0 21.63875323295874 -57.08372093987307
0.0 21.717115425208764 -57.51174946799651
0.0 21.783105650090924 -57.90056878672214
0.0 21.835341680031426 -58.250681985743796
0.0 21.875035169853582 -58.561648058771596
0.0 21.904586549636036 -58.83259332070749
0.0 21.926073803625947 -59.06276144713819
-0.7686761955390344 -0.9716435669303576 -1.9499159953927492
-0.8409029948616161 -0.34598714023628085 -4.1020841521903195
-0.8940476007249757 0.3020254774672593 -6.202403083649845
-0.9506443374492793 0.9283543988266315 -8.266901997888487
-1.0210144815146838 1.5343553443194764 -10.2950874530064
-1.048631451549771 2.1487074476107226 -12.276521098005
-0.9920275022819518 2.7909572047608746 -14.204088590134072
-0.9074715353829097 3.4799641312193876 -16.070925627137328
-0.8388231939293685 4.17802833746542 -17.890753846635477
-0.7803448823218929 4.866001241407288 -19.670542762538293
-0.7251531968841737 5.541788191193902 -21.41105476577072
-0.671766762046156 6.202430703728237 -23.113366656118668
-0.6188683613166902 6.851902919556732 -24.77603196471643
-0.5668565661826578 7.491509974132759 -26.3985756611073
-0.5162677046190278 8.120464972460638 -27.981284151647195
-0.4681223452427161 8.733476643402332 -29.526083301531795
-0.42442582165628834 9.32993605892932 -31.03319474243829
-0.3846819074085718 9.910955484125711 -32.502213642983456
-0.3476243488905531 10.477240491142114 -33.93288319590634
-0.3131098246080671 11.028740095628388 -35.3252219579928
-0.28048746260446866 11.56536773023947 -36.67926143717971
-0.2502235469699514 12.087134461523021 -37.99499760557312
-0.2227998260917326 12.59403985396552 -39.27243062168698
-0.19746739264611052 13.085999271832364 -40.51159129040945
-0.17533279734900953 13.563046450136163 -41.712467333200095
-0.15613374469432648 14.025126363815547 -42.87507877754337
-0.13998404755873647 14.472209613626747 -43.999436323888936
-0.12578653595324127 14.904218573247727 -45.085568225907416
-0.11250427274737486 15.321096023215627 -46.133495309780095
-0.10008179164308317 15.72283071482271 -47.14322166970177
-0.08845752889585208 16.10941447274291 -48.11475028124778
-0.07764231497362577 16.480843019982117 -49.04808270111667
-0.06766212708627829 16.8371122388196 -49.943220428036234
-0.0584684819534103 17.178216007509803 -50.80016569013962
-0.050013688763705585 17.504148793760447 -51.618920501016554
-0.042252254921319045 17.81490564948818 -52.39948666162209
-0.03513536582041269 18.11079161491097 -53.14175314639663
-0.028615518964613278 18.39278836818368 -53.845362653712186
-0.022687693716904638 18.663534784876752 -54.50935471140918
-0.017408965386693863 18.924395801880756 -55.133232523087784
-0.013252482528008399 19.173149909370327 -55.717804652199575
-0.010166684094042405 19.409910607905807 -56.263029787919
-0.00760098697125575 19.647792142464613 -56.764134735429415
-0.005464879873870877 19.88683732697186 -57.22110391173646
-0.0039015967321000085 20.11716300329252 -57.637534492221846
-0.002883995165670249 20.33222764124085 -58.01580739915971
-0.0022477517166190047 20.53087309751287 -58.356344162239736
-0.00179874084072329 20.715581399341083 -58.658241397428654
-0.0014595970466816986 20.88536068268142 -58.921860113714935
-0.0012027506489664258 21.03758858866757 -59.148154771669496
-0.0010073243559101815 21.16999503321448 -59.33795161432856
-0.603592196400244 0.14074005567032055 -2.7349857041766765
-0.6506064733449719 0.8395446656040355 -4.838673980954853
-0.6917594768153456 1.5317012188082066 -6.901069715239269
-0.7393720571114861 2.2062857640021654 -8.92614890013666
-0.7761172248991705 2.870265564644401 -10.911375659133846
-0.7652471076868961 3.5337971184073433 -12.853053329393669
-0.712312139124323 4.206763637171951 -14.747584715972515
-0.6548605234921042 4.886826775031801 -16.59582090717774
-0.607188028594223 5.560637333497297 -18.402620613910862
-0.564561779702275 6.222514990749041 -20.1700513042352
-0.5238449845988737 6.870492999821579 -21.89882881550452
-0.48398817126106725 7.50486264263894 -23.58884712976868
-0.4446468478122555 8.12717056202789 -25.239543315075707
-0.4061716015506322 8.737482566154325 -26.850893419212046
-0.369146268698154 9.3343417089016 -28.42342772719707
-0.3347055625871267 9.916184214721236 -29.957715406783514
-0.3034153983993225 10.483144368964236 -31.453707582100705
-0.27461484611217185 11.035665527072824 -32.91124288496449
-0.24777531506198255 11.57389338483133 -34.330268286446085
-0.22259898270470088 12.097776417144624 -35.71080254014647
-0.19901662859040753 12.607286366467065 -37.05285593097112
-0.1773837648981315 13.102427273152648 -38.35642698835147
-0.15760020702669117 13.58316728766233 -39.62152730457169
-0.13980007124817 14.049487372867189 -40.84816380858006
-0.124299953266251 14.501379594103563 -42.03633938835797
-0.11104417209489861 14.93881233982447 -43.18606554956758
-0.09966396881699166 15.361745521472983 -44.29735688325035
-0.08935905326273105 15.770128803963798 -45.37023170987908
-0.07971977414642176 16.16393931894244 -46.40469835285409
-0.07070224520210072 16.54317290822927 -47.40075832562899
-0.06228744145105419 16.907825058582585 -48.35841327088944
-0.05448916577246402 17.25789189319582 -49.27766459967763
-0.04729897838988322 17.593368872697056 -50.15851396418981
-0.04068081401891846 17.914250956466535 -51.00096319906153
-0.03459972888188424 18.220533573224277 -51.80501396810266
-0.029020357778149403 18.51227907798575 -52.570643575943585
-0.023906581794384738 18.789762437882164 -53.29775194273315
-0.019238704755569217 19.053933448779045 -53.985993371047705
-0.015036247163849435 19.305913143872914 -54.63495983817204
-0.011498042968013347 19.545341344714043 -55.24478243834092
-0.00878218748326905 19.77148891096816 -55.81572655693261
-0.006662876649486808 19.987903095874948 -56.34650109935446
-0.004899700066922485 20.198165891552172 -56.83580232709623
-0.0035124287272390825 20.399665933601675 -57.28458069906966
-0.0025445969616638467 20.58800507397095 -57.69443701025178
-0.0019244050808584702 20.761190411445106 -58.06609661736462
-0.0015174347090033604 20.919726352585528 -58.399375931433894
-0.0012218767077768707 21.064150386994065 -58.69407932224326
-0.0009983803858680466 21.193558691692076 -58.95053575445404
-0.0008287781268287279 21.306676402363514 -59.16920924072998

CELLS 100 350
4 0 51 52 1
4 1 52 53 2
4 2 53 54 3
4 3 54 55 4
4 4 55 56 5
4 5 56 57 6
4 6 57 58 7
4 7 58 59 8
4 8 59 60 9
4 9 60 61 10
4 10 61 62 11
4 11 62 63 12
4 12 63 64 13
4 13 64 65 14
4 14 65 66 15
4 15 66 67 16
4 16 67 68 17
4 17 68 69 18
4 18 69 70 19
4 19 70 71 20
4 20 71 72 21
4 21 72 73 22
4 22 73 74 23
4 23 74 75 24
4 24 75 76 25
4 25 76 77 26
4 26 77 78 27
4 27 78 79 28
4 28 79 80 29
4 29 80 81 30
4 30 81 82 31
4 31 82 83 32
4 32 83 84 33
4 33 84 85 34
4 34 85 86 35
4 35 86 87 36
4 36 87 88 37
4 37 88 89 38
4 38 89 90 39
4 39 90 91 40
4 40 91 92 41
4 41 92 93 42
4 42 93 94 43
4 43 94 95 44
4 44 95 96 45
4 45 96 97 46
4 46 97 98 47
4 47 98 99 48
4 48 99 100 49
4 49 100 101 50
1 102
1 103
1 104
1 105
1 106
1 107
1 108
1 109
1 110
1 111
1 112
1 113
1 114
1 115
1 116
1 117
1 118
1 119
1 120
1 121
1 122
1 123
1 124
1 125
1 126
1 127
1 128
1 129
1 130
1 131
1 132
1 133
1 134
1 135
1 136
1 137
1 138
1 139
1 140
1 141
1 142
1 143
1 144
1 145
1 146
1 147
1 148
1 149
1 150
1 151

CELL_TYPES 100
9
9
9
9
9
9
9
9
9
9
9
9
9
9
9
9
9
9
9
9
9
9
9
9
9
9
9
9
9
9
9
9
9
9
9
9
9
9
9
9
9
9
9
9
9
9
9
9
9
9
1
1
1
1
1
1
1
1
1
1
1
1
1
1
1
1
1
1
1
1
1
1
1
1
1
1
1
1
1
1
1
1
1
1
1
1
1
1
1
1
1
1
1
1
1
1
1
1
1
1

CELL_DATA 100

VECTORS S float
-0.0 0.0 -0.0
-0.0 0.0 -0.0
-0.0 0.0 -0.0
0.0 0.0 -0.0
-1.9283553111317818e-17 -1.3452947186407912e-15 6.976883845867103e-15
0.0 0.0 -0.0
-1.9503279513767e-17 -1.3344263241597637e-15 6.978970120413357e-15
-1.8346468671311738e-17 -1.3298294662284924e-15 6.979850638228765e-15
0.0 0.0 -0.0
4.110095167401834e-17 2.6464026843936867e-15 -1.396220810904867e-14
0.0 0.0 -0.0
0.0 0.0 -0.0
4.408486945916344e-17 2.6364021568658414e-15 -1.3964090802058577e-14
-8.253180163621917e-17 -5.264131944478271e-15 2.7929834770709944e-14
0.0 0.0 -0.0
-3.605667005537606e-17 -2.6263198445350514e-15 1.396601359469927e-14
-3.34271224889423e-17 -2.6237738981365103e-15 1.3966498662711377e-14
0.0 0.0 -0.0
0.0 0.0 -0.0
-2.797949817471388e-17 -2.6165120062434365e-15 1.3967872916283456e-14
-2.708203055738719e-17 -2.6150184332503305e-15 1.3968154383953554e-14
0.0 0.0 -0.0
-2.438854775140954e-17 -2.611913481716291e-15 1.3968740276035858e-14
2.365095874862904e-17 2.610516763668341e-15 -1.396900263423756e-14
0.0 0.0 -0.0
-2.1457615093039197e-17 -2.6072241793901536e-15 1.3969621089554891e-14
-2.053788519508054e-17 -2.605209353446829e-15 1.3969998359218368e-14
0.0 0.0 -0.0
0.0 0.0 -0.0
0.0 0.0 -0.0
0.0 0.0 -0.0
0.0 0.0 -0.0
0.0 0.0 -0.0
0.0 0.0 -0.0
0.0 0.0 -0.0
0.0 0.0 -0.0
3.16241682730831e-17 5.181165207945561e-15 -2.7945448537217497e-14
3.120684797064196e-17 5.178398755537175e-15 -2.7945961772814457e-14
0.0 0.0 -0.0
-1.5002969313529048e-17 -2.5864867813842826e-15 1.3973483916948382e-14
1.4871590518868338e-17 2.5852117895430556e-15 -1.3973719997752281e-14
0.0 0.0 -0.0
1.407029574933148e-17 2.5827335110982224e-15 -1.3974179094816511e-14
1.382666340694756e-17 2.5816053165142167e-15 -1.3974387805900607e-14
0.0 0.0 -0.0
-6.78448819158447e-18 -1.2897996863650658e-15 6.9873792421706515e-15
0.0 0.0 -0.0
6.5982886089851e-18 1.2889525681799481e-15 -6.98753573684704e-15
0.0 0.0 -0.0
6.47654544405527e-18 1.288294165251377e-15 -6.987657270665407e-15
-0.0 0.0 -0.0
-0.0 0.0 -0.0
-0.0 0.0 -0.0
0.0 0.0 -0.0
-1.9283553111317818e-17 -1.3452947186407912e-15 6.976883845867103e-15
0.0 0.0 -0.0
-1.9503279513767e-17 -1.3344263241597637e-15 6.978970120413357e-15
-1.8346468671311738e-17 -1.3298294662284924e-15 6.979850638228765e-15
0.0 0.0 -0.0
4.110095167401834e-17 2.6464026843936867e-15 -1.396220810904867e-14
0.0 0.0 -0.0
0.0 0.0 -0.0
4.408486945916344e-17 2.6364021568658414e-15 -1.3964090802058577e-14
-8.253180163621917e-17 -5.264131944478271e-15 2.7929834770709944e-14
0.0 0.0 -0.0
-3.605667005537606e-17 -2.6263198445350514e-15 1.396601359469927e-14
-3.34271224889423e-17 -2.6237738981365103e-15 1.3966498662711377e-14
0.0 0.0 -0.0
0.0 0.0 -0.0
-2.797949817471388e-17 -2.6165120062434365e-15 1.3967872916283456e-14
-2.708203055738719e-17 -2.6150184332503305e-15 1.3968154383953554e-14
0.0 0.0 -0.0
-2.438854775140954e-17 -2.611913481716291e-15 1.3968740276035858e-14
2.365095874862904e-17 2.610516763668341e-15 -1.396900263423756e-14
0.0 0.0 -0.0
-2.1457615093039197e-17 -2.6072241793901536e-15 1.3969621089554891e-14
-2.053788519508054e-17 -2.605209353446829e-15 1.3969998359218368e-14
0.0 0.0 -0.0
0.0 0.0 -0.0
0.0 0.0 -0.0
0.0 0.0 -0.0
0.0 0.0 -0.0
0.0 0.0 -0.0
0.0 0.0 -0.0
0.0 0.0 -0.0
0.0 0.0 -0.0
3.16241682730831e-17 5.181165207945561e-15 -2.7945448537217497e-14
3.120684797064196e-17 5.178398755537175e-15 -2.7945961772814457e-14
0.0 0.0 -0.0
-1.5002969313529048e-17 -2.5864867813842826e-15 1.3973483916948382e-14
1.4871590518868338e-17 2.5852117895430556e-15 -1.3973719997752281e-14
0.0 0.0 -0.0
1.407029574933148e-17 2.5827335110982224e-15 -1.3974179094816511e-14
1.382666340694756e-17 2.5816053165142167e-15 -1.3974387805900607e-14
0.0 0.0 -0.0
-6.78448819158447e-18 -1.2897996863650658e-15 6.9873792421706515e-15
0.0 0.0 -0.0
6.5982886089851e-18 1.2889525681799481e-15 -6.98753573684704e-15
0.0 0.0 -0.0
6.47654544405527e-18 1.288294165251377e-15 -6.987657270665407e-15

SCALARS Gamma float
LOOKUP_TABLE default
-0.0
-0.0
-0.0
51.23642050440711
54.89109616985595
54.91408683679781
52.7402731627382
48.020411467537386
44.94791769378226
47.56783413390495
54.17275493787131
54.80807894890492
50.861203692477126
46.03682007891586
45.01438180928406
44.20311416447433
40.58913960804158
38.385840145304314
33.56538410991276
33.95774845055928
33.49561689301534
35.13125355338403
36.765327949424524
34.70593239572204
36.792353476125044
38.06344778464779
38.194576492869324
38.30362973507153
38.51518245467606
38.78152257074617
39.115202169015376
39.41236126799618
37.43788596021876
37.750183571178624
38.083093923092996
38.392146596868024
38.645016355818214
40.977121925666005
40.900733852210756
40.52945718602546
39.80346259711946
38.57063534990889
36.5265708989948
33.898816797995025
31.228894370398574
28.59406800091594
25.757392583537467
23.023037237673723
20.256615905625715
17.696282866305253
-0.0
-0.0
-0.0
51.23642050440711
54.89109616985595
54.91408683679781
52.7402731627382
48.020411467537386
44.94791769378226
47.56783413390495
54.17275493787131
54.80807894890492
50.861203692477126
46.03682007891586
45.01438180928406
44.20311416447433
40.58913960804158
38.385840145304314
33.56538410991276
33.95774845055928
33.49561689301534
35.13125355338403
36.765327949424524
34.70593239572204
36.792353476125044
38.06344778464779
38.194576492869324
38.30362973507153
38.51518245467606
38.78152257074617
39.115202169015376
39.41236126799618
37.43788596021876
37.750183571178624
38.083093923092996
38.392146596868024
38.645016355818214
40.977121925666005
40.900733852210756
40.52945718602546
39.80346259711946
38.57063534990889
36.5265708989948
33.898816797995025
31.228894370398574
28.59406800091594
25.757392583537467
23.023037237673723
20.256615905625715
17.696282866305253

VECTORS Ftot float
115.65836360785595 38.89324708313467 6.857928828117485
139.34431785875677 86.59424572228082 15.26890189493677
142.7181133684961 128.58354108788748 22.67274756883017
1273.9164192885996 -12.39100632041536 -2.1848687324183587
1302.942297398169 -218.3259638755021 -38.496758020432885
1396.1061072158902 -284.19714348778547 -50.111624237171874
1478.1366936667841 -277.6093995155915 -48.95002723287452
1467.3545808307736 -271.67050299385755 -47.90283954045716
1482.1361036516785 -291.3540789987522 -51.373585066945836
1675.1633978301445 -373.19800965679883 -65.80487824919224
2035.4505071657804 -487.58388839422986 -85.97419488264818
2192.5875630253713 -544.7942575091901 -96.06192653390598
2159.373359646332 -546.6110282660457 -96.38227223610177
2074.1969439364893 -504.4584162325217 -88.94962942725513
2145.129778733032 -490.0431959441133 -86.40783715755265
2215.943945774968 -487.9814352762716 -86.04429312404865
2135.5887876440324 -443.1104908899652 -78.13233497887374
2110.995120129457 -420.73373322793884 -74.18670886228362
1926.0313203479739 -361.8961858786586 -63.81206178589364
2024.75801726899 -368.8283039827182 -65.03438124109695
2069.8723222712847 -368.6560601605718 -65.0040100079922
2248.2184829452162 -375.95171416588784 -66.2904306510432
2428.162864948421 -397.852114140388 -70.15206205485458
2361.3382356412203 -378.874697051909 -66.80583139799782
2574.1586615030064 -406.3098001237933 -71.64338028808875
2737.2847846455156 -407.87743545890845 -71.9197966935815
2816.750334074192 -407.61973615962336 -71.87435735420787
2892.0643061151504 -409.48728679191396 -72.20365691851987
2973.455013605293 -411.380684339462 -72.53751399135983
3057.283352630621 -414.87504884876836 -73.15366473478063
3144.83969710103 -419.7698337047416 -74.01674736965192
3228.0006538224047 -424.17495708448763 -74.79348947485082
3119.5165881632397 -408.6290281080021 -72.05232275611887
3198.1372590271358 -409.70259319951145 -72.24162124729872
3276.323067248022 -416.11021821387 -73.37145841959261
3350.599725268576 -423.26910220681 -74.63376281930987
3418.796707615076 -426.2791503551322 -75.16451552109064
3670.7619684222996 -456.8016000906112 -80.54644692677357
3707.414160922239 -457.45337626874806 -80.66137265236215
3714.3426802688077 -454.5937329997056 -80.15714038882861
3684.5581889035016 -451.8526805839997 -79.67381889240353
3604.7286814978725 -435.527557684243 -76.79525926179478
3444.15597381688 -408.2286450636012 -71.9817244227728
3221.929020130812 -378.9954311349492 -66.8271200743289
2989.705904151537 -349.4633327156423 -61.61981432606727
2754.8919537213 -323.7229231302071 -57.081085621668215
2496.1625037067565 -291.5198615292194 -51.40281699999733
2242.7781480668714 -260.25518745120155 -45.8900114169862
1982.0920767513267 -229.6083473511547 -40.486146633889796
1738.2440477759176 -200.3824250074594 -35.332827988605914
115.65836360785595 38.89324708313467 6.857928828117485
139.34431785875677 86.59424572228082 15.26890189493677
142.7181133684961 128.58354108788748 22.67274756883017
1273.9164192885996 -12.39100632041536 -2.1848687324183587
1302.942297398169 -218.3259638755021 -38.496758020432885
1396.1061072158902 -284.19714348778547 -50.111624237171874
1478.1366936667841 -277.6093995155915 -48.95002723287452
1467.3545808307736 -271.67050299385755 -47.90283954045716
1482.1361036516785 -291.3540789987522 -51.373585066945836
1675.1633978301445 -373.19800965679883 -65.80487824919224
2035.4505071657804 -487.58388839422986 -85.97419488264818
2192.5875630253713 -544.7942575091901 -96.06192653390598
2159.373359646332 -546.6110282660457 -96.38227223610177
2074.1969439364893 -504.4584162325217 -88.94962942725513
2145.129778733032 -490.0431959441133 -86.40783715755265
2215.943945774968 -487.9814352762716 -86.04429312404865
2135.5887876440324 -443.1104908899652 -78.13233497887374
2110.995120129457 -420.73373322793884 -74.18670886228362
1926.0313203479739 -361.8961858786586 -63.81206178589364
2024.75801726899 -368.8283039827182 -65.03438124109695
2069.8723222712847 -368.6560601605718 -65.0040100079922
2248.2184829452162 -375.95171416588784 -66.2904306510432
2428.162864948421 -397.852114140388 -70.15206205485458
2361.3382356412203 -378.874697051909 -66.80583139799782
2574.1586615030064 -406.3098001237933 -71.64338028808875
2737.2847846455156 -407.87743545890845 -71.9197966935815
2816.750334074192 -407.61973615962336 -71.87435735420787
2892.0643061151504 -409.48728679191396 -72.20365691851987
2973.455013605293 -411.380684339462 -72.53751399135983
3057.283352630621 -414.87504884876836 -73.15366473478063
3144.83969710103 -419.7698337047416 -74.01674736965192
3228.0006538224047 -424.17495708448763 -74.79348947485082
3119.5165881632397 -408.6290281080021 -72.05232275611887
3198.1372590271358 -409.70259319951145 -72.24162124729872
3276.323067248022 -416.11021821387 -73.37145841959261
3350.599725268576 -423.26910220681 -74.63376281930987
3418.796707615076 -426.2791503551322 -75.16451552109064
3670.7619684222996 -456.8016000906112 -80.54644692677357
3707.414160922239 -457.45337626874806 -80.66137265236215
3714.3426802688077 -454.5937329997056 -80.15714038882861
3684.5581889035016 -451.8526805839997 -79.67381889240353
3604.7286814978725 -435.527557684243 -76.79525926179478
3444.15597381688 -408.2286450636012 -71.9817244227728
3221.929020130812 -378.9954311349492 -66.8271200743289
2989.705904151537 -349.4633327156423 -61.61981432606727
2754.8919537213 -323.7229231302071 -57.081085621668215
2496.1625037067565 -291.5198615292194 -51.40281699999733
2242.7781480668714 -260.25518745120155 -45.8900114169862
1982.0920767513267 -229.6083473511547 -40.486146633889796
1738.2440477759176 -200.3824250074594 -35.332827988605914

VECTORS D float
91.49837164249263 -30.641057148441856 -6.149821048746772
59.97033283003587 -37.14972092653578 -7.242219182029342
12.66472872401146 -11.378451111222661 -2.1933535252902794
531.9607506348049 -623.2278957545882 -119.42205279003493
517.3746963314237 -744.4756245367499 -142.1210851888135
474.6734198832119 -806.702059359957 -153.5143927954733
411.5243270759156 -803.9325603977676 -152.56730994618428
346.5509412965785 -762.6790220823831 -144.39779632701928
308.8863381104091 -754.5006769829913 -142.37532391560413
321.8255325109283 -860.9239775007377 -162.23251879404785
360.0829602425687 -1044.394547012653 -196.57479472618385
356.641608117728 -1112.2360613030878 -209.12861792836244
323.71237677556 -1077.9394894746483 -202.49160630869832
281.1733045900472 -993.5760624162577 -186.43539400724396
261.7178539942181 -976.626287123723 -183.12985611144947
247.64850671087822 -971.6517466101417 -182.08051040193294
217.33693170885212 -893.181946089307 -167.27474685088663
198.27157874317575 -850.64389582024 -159.21697062646408
166.04444349207475 -741.8321511279895 -138.70173275605478
163.19987166916522 -756.2787958165165 -141.3419430891462
157.1255679850574 -753.4135053267717 -140.74407189500837
158.21217429800055 -783.2122826745552 -146.24503045171338
162.0441602852674 -826.4690185194341 -154.2525315362414
149.80763409907874 -785.674749006548 -146.5726696822229
155.98178233787797 -839.6803457845353 -156.57765675420973
155.84292331196454 -859.4955142036123 -160.17281033618372
153.04703490385208 -863.2939749479077 -160.76725409164177
150.76939676963525 -868.6398709162123 -161.67443878181874
148.9506476378816 -875.2583473623155 -162.81669488960927
147.708453635897 -884.0527013332645 -164.36142709713656
147.00405654960804 -895.0108231424938 -166.30566911327455
146.30392858722095 -905.0289082798157 -168.07240291787457
138.10330132769954 -867.025577476349 -160.9235949331059
137.30257277093537 -873.921993496604 -162.11147092103684
137.49441991530122 -886.2221324608242 -164.3324434919144
137.81203442948748 -898.8270641090112 -166.58014298258553
137.5033574216924 -906.705691475652 -167.9501957879104
145.27924154126225 -967.7767354088952 -179.16721477612353
144.11207195405044 -969.091579242402 -179.31679059009628
141.97955084271095 -963.1077527106057 -178.11845430840927
139.28928696452658 -952.4861175018074 -176.06670861432113
133.84772621712406 -922.0719930901139 -170.3631725363222
125.4814631114377 -870.3205974404658 -160.72791080404943
115.89597635928929 -808.829030159607 -149.3070679543284
106.3321388975284 -746.2645186921275 -137.70192749507987
97.4772357523431 -687.5902838807009 -126.82757993063879
87.47825451016372 -619.8541491949686 -114.29421662874591
77.89991468810175 -554.1904226982092 -102.15492118541218
68.43404636285749 -488.54081268084764 -90.02894115528784
59.61580992791063 -426.8488111568238 -78.6416258082034
91.49837164249263 -30.641057148441856 -6.149821048746772
59.97033283003587 -37.14972092653578 -7.242219182029342
12.66472872401146 -11.378451111222661 -2.1933535252902794
531.9607506348049 -623.2278957545882 -119.42205279003493
517.3746963314237 -744.4756245367499 -142.1210851888135
474.6734198832119 -806.702059359957 -153.5143927954733
411.5243270759156 -803.9325603977676 -152.56730994618428
346.5509412965785 -762.6790220823831 -144.39779632701928
308.8863381104091 -754.5006769829913 -142.37532391560413
321.8255325109283 -860.9239775007377 -162.23251879404785
360.0829602425687 -1044.394547012653 -196.57479472618385
356.641608117728 -1112.2360613030878 -209.12861792836244
323.71237677556 -1077.9394894746483 -202.49160630869832
281.1733045900472 -993.5760624162577 -186.43539400724396
261.7178539942181 -976.626287123723 -183.12985611144947
247.64850671087822 -971.6517466101417 -182.08051040193294
217.33693170885212 -893.181946089307 -167.27474685088663
198.27157874317575 -850.64389582024 -159.21697062646408
166.04444349207475 -741.8321511279895 -138.70173275605478
163.19987166916522 -756.2787958165165 -141.3419430891462
157.1255679850574 -753.4135053267717 -140.74407189500837
158.21217429800055 -783.2122826745552 -146.24503045171338
162.0441602852674 -826.4690185194341 -154.2525315362414
149.80763409907874 -785.674749006548 -146.5726696822229
155.98178233787797 -839.6803457845353 -156.57765675420973
155.84292331196454 -859.4955142036123 -160.17281033618372
153.04703490385208 -863.2939749479077 -160.76725409164177
150.76939676963525 -868.6398709162123 -161.67443878181874
148.9506476378816 -875.2583473623155 -162.81669488960927
147.708453635897 -884.0527013332645 -164.36142709713656
147.00405654960804 -895.0108231424938 -166.30566911327455
146.30392858722095 -905.0289082798157 -168.07240291787457
138.10330132769954 -867.025577476349 -160.9235949331059
137.30257277093537 -873.921993496604 -162.11147092103684
137.49441991530122 -886.2221324608242 -164.3324434919144
137.81203442948748 -898.8270641090112 -166.58014298258553
137.5033574216924 -906.705691475652 -167.9501957879104
145.27924154126225 -967.7767354088952 -179.16721477612353
144.11207195405044 -969.091579242402 -179.31679059009628
141.97955084271095 -963.1077527106057 -178.11845430840927
139.28928696452658 -952.4861175018074 -176.06670861432113
133.84772621712406 -922.0719930901139 -170.3631725363222
125.4814631114377 -870.3205974404658 -160.72791080404943
115.89597635928929 -808.829030159607 -149.3070679543284
106.3321388975284 -746.2645186921275 -137.70192749507987
97.4772357523431 -687.5902838807009 -126.82757993063879
87.47825451016372 -619.8541491949686 -114.29421662874591
77.89991468810175 -554.1904226982092 -102.15492118541218
68.43404636285749 -488.54081268084764 -90.02894115528784
59.61580992791063 -426.8488111568238 -78.6416258082034

VECTORS L float
24.159991965363346 69.53430423157653 13.007749876864258
79.37398502872092 123.74396664881662 22.51112107696612
130.05338464448468 139.96199219911017 24.866101094120463
741.9556686537951 610.8368894341728 117.23718405761659
785.5676010667455 526.1496606612479 103.6243271683806
921.4326873326783 522.5049158721718 103.40276855830147
1066.6123665908685 526.3231608821762 103.6172827133098
1120.8036395341953 491.00851908852576 96.49495678656216
1173.2497655412694 463.1465979842393 91.0017388486583
1353.3378653192162 487.72596784393886 96.42764054485558
1675.3675469232119 556.8106586184232 110.60059984353572
1835.9459549076435 567.4418037938977 113.06669139445647
1835.6609828707717 531.3284612086028 106.10933407259654
1793.0236393464422 489.1176461837359 97.4857645799889
1883.4119247388137 486.58309117960954 96.72201895389676
1968.29543906409 483.6703113338703 96.03621727788432
1918.25185593518 450.0714551993419 89.14241187201291
1912.7235413862818 429.9101625923013 85.03026176418048
1759.9868768558993 379.93596524933105 74.88967097016118
1861.5581455998251 387.4504918337985 76.3075618480493
1912.7467542862273 384.7574451662 75.74006188701622
2090.006308647216 407.2605685086674 79.95459980067015
2266.1187046631544 428.6169043790461 84.10046948138684
2211.530601542141 406.80005195463883 79.76683828422505
2418.176879165129 433.3705456607422 84.93427646612098
2581.441861333551 451.6180787447037 88.25301364260223
2663.70329917034 455.67423878828424 88.89289673743392
2741.2949093455154 459.1525841242986 89.47078186329891
2824.504365967411 463.87766302285354 90.27918089824946
2909.574898994724 469.1776524844964 91.20776236235596
2997.8356405514214 475.24098943775226 92.28892174362264
3081.696725235184 480.85395119532814 93.27891344302373
2981.4132868355405 458.3965493683467 88.871272176987
3060.8346862562003 464.21940029709236 89.86984967373809
3138.8286473327216 470.11191424695414 90.96098507232179
3212.78769083909 475.5579619022014 91.94638016327566
3281.293350193384 480.4265411205198 92.78568026681974
3525.482726881037 510.97513531828406 98.62076784934995
3563.3020889681884 511.63820297365385 98.65541793773411
3572.363129426096 508.51401971090036 97.96131391958068
3545.2689019389745 500.6334369178076 96.3928897219176
3470.8809552807484 486.54443540587096 93.56791327452738
3318.6745107054426 462.0919523768647 88.74618638127664
3106.033043771522 429.8335990246576 82.47994787999943
2883.3737652540094 396.80118597648504 76.08211316901257
2657.4147179689567 363.867360750494 69.74649430897058
2408.684249196593 328.33428766574906 62.89139962874857
2164.87823337877 293.9352352470076 56.26490976842597
1913.6580303884696 258.93246532969295 49.54279452139803
1678.6282378480073 226.46638614936444 43.3087978195975
24.159991965363346 69.53430423157653 13.007749876864258
79.37398502872092 123.74396664881662 22.51112107696612
130.05338464448468 139.96199219911017 24.866101094120463
741.9556686537951 610.8368894341728 117.23718405761659
785.5676010667455 526.1496606612479 103.6243271683806
921.4326873326783 522.5049158721718 103.40276855830147
1066.6123665908685 526.3231608821762 103.6172827133098
1120.8036395341953 491.00851908852576 96.49495678656216
1173.2497655412694 463.1465979842393 91.0017388486583
1353.3378653192162 487.72596784393886 96.42764054485558
1675.3675469232119 556.8106586184232 110.60059984353572
1835.9459549076435 567.4418037938977 113.06669139445647
1835.6609828707717 531.3284612086028 106.10933407259654