# vtk DataFile Version 4.0
[MyVLM domain - lattices] 
ASCII
DATASET UNSTRUCTURED_GRID
POINTS 152 float
0.0 -1.4999999999999927 -1.67296852879839
0.0 -3.7363636363636195 -1.82591041599774
0.0 -5.931651205936894 -1.9429672071329844
0.0 -8.085862708719816 -2.06706535039851
0.0 -10.198998144712386 -2.198548813354187
0.0 -12.271057513914602 -2.300501611165991
0.0 -14.30204081632647 -2.342344351569187
0.0 -16.291948051947983 -2.316183910728531
0.0 -18.240779220779142 -2.270154608511158
0.0 -20.148534322819952 -2.2239654022138255
0.0 -22.015213358070408 -2.1773680889062543
0.0 -23.84081632653051 -2.1299994259602526
0.0 -25.62534322820026 -2.0814599417503192
0.0 -27.36879406307966 -2.0284620667262705
0.0 -29.071168831168706 -1.9731991232097839
0.0 -30.7324675324674 -1.9204789393858013
0.0 -32.35269016697574 -1.8710171880492972
0.0 -33.93183673469373 -1.823634503971178
0.0 -35.46990723562137 -1.777481218498361
0.0 -36.966901669758656 -1.732557576643585
0.0 -38.42282003710559 -1.6888638168762222
0.0 -39.83766233766217 -1.6464001711222782
0.0 -41.2114285714284 -1.6051668647643926
0.0 -42.54411873840427 -1.5651641166418349
0.0 -43.83573283858979 -1.5263921390505106
0.0 -45.08627087198496 -1.488851137742958
0.0 -46.29573283858978 -1.452541311928347
0.0 -47.464118738404245 -1.417462854272481
0.0 -48.59142857142836 -1.3836175479388697
0.0 -49.67766233766213 -1.35102750872362
0.0 -50.722820037105535 -1.3196972323669593
0.0 -51.72690166975859 -1.2896235544437176
0.0 -52.6899072356213 -1.260803434894778
0.0 -53.61183673469365 -1.2332339580270812
0.0 -54.49269016697565 -1.2069123325136208
0.0 -55.332467532467284 -1.1818358913934448
0.0 -56.13116883116858 -1.1575801020611565
0.0 -56.88879406307952 -1.132802517120262
0.0 -57.60534322820012 -1.1053728587596283
0.0 -58.280816326530356 -1.0741829289913145
0.0 -58.91521335807025 -1.040009212233896
0.0 -59.50853432281979 -1.0025976343868184
0.0 -60.06077922077897 -0.9501715156150111
0.0 -60.571948051947786 -0.8829981979911153
0.0 -61.04204081632626 -0.8099943186007439
0.0 -61.4710575139144 -0.73723631387044
0.0 -61.85899814471216 -0.666262802117883
0.0 -62.20586270871958 -0.5956028474825272
0.0 -62.51165120593664 -0.5265458660952613
0.0 -62.776363636363364 -0.461646342290149
0.0 -62.99999999999973 -0.4031156207145917
-0.7686761955390344 -1.499999999999995 1.5799568380958056
-0.8409029948616161 -3.7363636363636226 1.7281169722329461
-0.8940476007249757 -5.9316512059368955 1.837535679168171
-0.9506443374492793 -8.08586270871982 1.9550792281255578
-1.0210144815146838 -10.19899814471239 2.0793048915071113
-1.048631451549771 -12.271057513914606 2.179692972732748
-0.9920275022819518 -14.302040816326471 2.2354425251650922
-0.9074715353829097 -16.291948051947983 2.226483671663166
-0.8388231939293685 -18.240779220779142 2.1929357966798473
-0.7803448823218929 -20.148534322819952 2.155176395651539
-0.7251531968841737 -22.015213358070408 2.1154345505192413
-0.671766762046156 -23.84081632653051 2.0768586132350566
-0.6188683613166902 -25.62534322820026 2.0352193917647705
-0.5668565661826578 -27.36879406307966 1.9891279899688317
-0.5162677046190278 -29.071168831168706 1.939421804010916
-0.4681223452427161 -30.7324675324674 1.8917316870242669
-0.42442582165628834 -32.35269016697574 1.8467056466818734
-0.3846819074085718 -33.93183673469373 1.8031600352041268
-0.3476243488905531 -35.46990723562137 1.7603439983914706
-0.3131098246080671 -36.966901669758656 1.7183117926560656
-0.28048746260446866 -38.42282003710559 1.6771555410423524
-0.2502235469699514 -39.83766233766217 1.636863466776295
-0.2227998260917326 -41.2114285714284 1.5974360333216975
-0.19746739264611052 -42.54411873840427 1.558963308146082
-0.17533279734900953 -43.83573283858979 1.5214093911988775
-0.15613374469432648 -45.08627087198496 1.4848328389273202
-0.13998404755873647 -46.29573283858978 1.4492649373531632
-0.12578653595324127 -47.464118738404245 1.4147882946828683
-0.11250427274737486 -48.59142857142836 1.3814638025969679
-0.10008179164308317 -49.67766233766213 1.3493034317202024
-0.08845752889585208 -50.722820037105535 1.3183158820528595
-0.07764231497362577 -51.72690166975859 1.2885057050769964
-0.06766212708627829 -52.6899072356213 1.259877282779493
-0.0584684819534103 -53.61183673469365 1.2324371297859005
-0.050013688763705585 -54.49269016697565 1.2061911334386914
-0.042252254921319045 -55.332467532467284 1.1811445593781777
-0.03513536582041269 -56.13116883116858 1.1569727905846958
-0.028615518964613278 -56.88879406307952 1.132631146986113
-0.022687693716904638 -57.60534322820012 1.1053113958560394
-0.017408965386693863 -58.280816326530356 1.073561001694689
-0.013252482528008399 -58.91521335807025 1.0397440458795584
-0.010166684094042405 -59.50853432281979 1.0037397436371656
-0.00760098697125575 -60.06077922077897 0.9515922069597429
-0.005464879873870877 -60.571948051947786 0.8832558742198272
-0.0039015967321000085 -61.04204081632626 0.8092481826265743
-0.002883995165670249 -61.4710575139144 0.736530483201648
-0.0022477517166190047 -61.85899814471216 0.6663352463064641
-0.00179874084072329 -62.20586270871958 0.5960211537295323
-0.0014595970466816986 -62.51165120593664 0.5266437251398581
-0.0012027506489664258 -62.776363636363364 0.46099361655443527
-0.0010073243559101815 -62.99999999999973 0.40148660099821387
-0.603592196400244 -2.6181818181818075 0.803167810773766
-0.6506064733449719 -4.834007421150258 0.8660100413840787
-0.6917594768153456 -7.008756957328356 0.9209765205437115
-0.7393720571114861 -9.142430426716102 0.9796922743931633
-0.7761172248991705 -11.235027829313495 1.0347428960249248
-0.7652471076868961 -13.286549165120539 1.075320066369793
-0.712312139124323 -15.296994434137225 1.090906291023382
-0.6548605234921042 -17.26636363636356 1.0839899857236683
-0.607188028594223 -19.194656771799547 1.0687770707836466
-0.564561779702275 -21.08187384044518 1.0513124184240328
-0.5238449845988737 -22.92801484230046 1.0336889970495482
-0.48398817126106725 -24.733079777365386 1.0155968309111136
-0.4446468478122555 -26.49706864563996 0.9953900170905268
-0.4061716015506322 -28.21998144712418 0.9729985240003984
-0.369146268698154 -29.90181818181805 0.9499728013137456
-0.3347055625871267 -31.542578849721576 0.9279769842104154
-0.3034153983993225 -33.14226345083473 0.9068681692046908
-0.27461484611217185 -34.70087198515755 0.8861745472896566
-0.24777531506198255 -36.21840445269001 0.865741072250083
-0.22259898270470088 -37.694860853432125 0.8456225759469307
-0.19901662859040753 -39.13024118738388 0.8258491294321805
-0.1773837648981315 -40.52454545454528 0.806416433050913
-0.15760020702669117 -41.87777365491633 0.7873583803746388
-0.13980007124817 -43.18992578849703 0.7686952302928165
-0.124299953266251 -44.46100185528738 0.7504354266981407
-0.11104417209489861 -45.69100185528737 0.7326126098962683
-0.09966396881699166 -46.879925788497005 0.7152694412384082
-0.08935905326273105 -48.027773654916295 0.6984594862035194
-0.07971977414642176 -49.13454545454524 0.6822070807861277
-0.07070224520210072 -50.200241187383824 0.6665166500285756
-0.06228744145105419 -51.22486085343206 0.6513929968223615
-0.05448916577246402 -52.20840445268995 0.6368402467788716
-0.04729897838988322 -53.150871985157465 0.62286323059679
-0.04068081401891846 -54.052263450834644 0.6094673123916342
-0.03459972888188424 -54.91257884972146 0.5966573568179427
-0.029020357778149403 -55.73181818181794 0.5843670070542526
-0.023906581794384738 -56.509981447124055 0.5723036491913761
-0.019238704755569217 -57.24706864563982 0.5594565315808209
-0.015036247163849435 -57.94307977736524 0.5446326756126552
-0.011498042968013347 -58.5980148423003 0.5282153751871914
-0.00878218748326905 -59.211873840445016 0.510980565241182
-0.006662876649486808 -59.784656771799376 0.4891533377236121
-0.004899700066922485 -60.316363636363384 0.458921816241573
-0.0035124287272390825 -60.80699443413703 0.4230649567434181
-0.0025445969616638467 -61.25654916512034 0.3862631706266853
-0.0019244050808584702 -61.66502782931328 0.35063725906700155
-0.0015174347090033604 -62.03243042671586 0.3156504438134475
-0.0012218767077768707 -62.35875695732812 0.28073074037879786
-0.0009983803858680466 -62.64400742115 0.2468399770871836
-0.0008287781268287279 -62.88818181818155 0.21533483620665078

CELLS 100 350
4 0 51 52 1
4 1 52 53 2
4 2 53 54 3
4 3 54 55 4
4 4 55 56 5
4 5 56 57 6
4 6 57 58 7
4 7 58 59 8
4 8 59 60 9
4 9 60 61 10
4 10 61 62 11
4 11 62 63 12
4 12 63 64 13
4 13 64 65 14
4 14 65 66 15
4 15 66 67 16
4 16 67 68 17
4 17 68 69 18
4 18 69 70 19
4 19 70 71 20
4 20 71 72 21
4 21 72 73 22
4 22 73 74 23
4 23 74 75 24
4 24 75 76 25
4 25 76 77 26
4 26 77 78 27
4 27 78 79 28
4 28 79 80 29
4 29 80 81 30
4 30 81 82 31
4 31 82 83 32
4 32 83 84 33
4 33 84 85 34
4 34 85 86 35
4 35 86 87 36
4 36 87 88 37
4 37 88 89 38
4 38 89 90 39
4 39 90 91 40
4 40 91 92 41
4 41 92 93 42
4 42 93 94 43
4 43 94 95 44
4 44 95 96 45
4 45 96 97 46
4 46 97 98 47
4 47 98 99 48
4 48 99 100 49
4 49 100 101 50
1 102
1 103
1 104
1 105
1 106
1 107
1 108
1 109
1 110
1 111
1 112
1 113
1 114
1 115
1 116
1 117
1 118
1 119
1 120
1 121
1 122
1 123
1 124
1 125
1 126
1 127
1 128
1 129
1 130
1 131
1 132
1 133
1 134
1 135
1 136
1 137
1 138
1 139
1 140
1 141
1 142
1 143
1 144
1 145
1 146
1 147
1 148
1 149
1 150
1 151

CELL_TYPES 100
9
9
9
9
9
9
9
9
9
9
9
9
9
9
9
9
9
9
9
9
9
9
9
9
9
9
9
9
9
9
9
9
9
9
9
9
9
9
9
9
9
9
9
9
9
9
9
9
9
9
1
1
1
1
1
1
1
1
1
1
1
1
1
1
1
1
1
1
1
1
1
1
1
1
1
1
1
1
1
1
1
1
1
1
1
1
1
1
1
1
1
1
1
1
1
1
1
1
1
1

CELL_DATA 100

VECTORS S float
-4.71374858391492e-18 -8.769741560157173e-16 1.405525363549867e-16
-1.20508831515494e-17 -1.752570412262857e-15 2.894742599267036e-16
-2.333910041562998e-17 -3.5030482391454494e-15 5.915089214440848e-16
-2.0860762419839998e-20 2.1918163095394955e-16 -3.554178939654688e-17
-1.8152632319768348e-17 7.015094584197216e-15 -1.1292547944779903e-15
2.128515729905894e-17 -7.014579891439164e-15 1.1323929630834122e-15
-1.840560136825177e-17 7.013648304844368e-15 -1.1381988507887107e-15
-1.665837150013465e-17 7.012409835226178e-15 -1.1458310240287962e-15
0.0 -0.0 0.0
3.9194800340541097e-17 -1.4023967489610511e-14 2.2967784731124567e-15
-8.322972994582176e-17 2.8047168652897216e-14 -4.5981485746231385e-15
4.199990593346646e-17 -1.4022968776909437e-14 2.3028188001455248e-15
-4.2406926783233056e-17 1.4022497368591643e-14 -2.305680146286624e-15
4.0084990270257686e-17 -1.4021953134616796e-14 2.309029064508361e-15
0.0 -0.0 0.0
3.50126909846194e-17 -1.4020992498534719e-14 2.314937408242855e-15
3.1940754851464167e-17 -1.4020150966059183e-14 2.3200729328338472e-15
3.01950785820439e-17 -1.4019700979805278e-14 2.322813903578019e-15
2.795434552207745e-17 -1.4019262664200659e-14 2.325485894021905e-15
2.673433756305088e-17 -1.4018885540608537e-14 2.3277725857761428e-15
0.0 -0.0 0.0
-2.372374717959347e-17 1.4018178450912967e-14 -2.3320595701564216e-15
2.2858311087986748e-17 -1.4017781821779205e-14 2.3344511198972967e-15
2.209544633615315e-17 -1.4017480759888992e-14 2.3362655401242582e-15
4.291099347516654e-17 -2.803439274567769e-14 4.675954338319528e-15
2.00535814376831e-17 -1.4016901454612168e-14 2.33975708186596e-15
1.920776867635504e-17 -1.4016632121560904e-14 2.341377109102364e-15
0.0 -0.0 0.0
-1.819870083431519e-17 1.4016423480805736e-14 -2.3426338490222054e-15
0.0 -0.0 0.0
-3.3885585731372895e-17 2.8031387450717838e-14 -4.694010683960389e-15
1.64260697690183e-17 -1.4015389009291352e-14 2.3488279713606406e-15
-1.61055086394546e-17 1.401509489074736e-14 -2.3505845129494216e-15
1.555943037221864e-17 -1.4014800637859795e-14 2.3523419653082252e-15
0.0 -0.0 0.0
0.0 -0.0 0.0
2.893644263510724e-17 -2.802793494319631e-14 4.7146147720210335e-15
1.422354867734567e-17 -1.4013726940484871e-14 2.3587383629327313e-15
2.78037278505029e-17 -2.8026938737764754e-14 4.720540105603884e-15
1.3597728096393319e-17 -1.401322164072356e-14 2.3617421718567376e-15
-2.684824901439716e-17 2.8025974530112563e-14 -4.7262667884201135e-15
0.0 -0.0 0.0
0.0 -0.0 0.0
0.0 -0.0 0.0
0.0 -0.0 0.0
6.0806546210688e-18 -7.005992396026512e-15 1.1845385205230079e-15
-5.9867388927726394e-18 7.00591400674384e-15 -1.1850025414372198e-15
0.0 -0.0 0.0
0.0 -0.0 0.0
-5.77547476513138e-18 7.005728291729373e-15 -1.1861010414372997e-15
-4.71374858391492e-18 -8.769741560157173e-16 1.405525363549867e-16
-1.20508831515494e-17 -1.752570412262857e-15 2.894742599267036e-16
-2.333910041562998e-17 -3.5030482391454494e-15 5.915089214440848e-16
-2.0860762419839998e-20 2.1918163095394955e-16 -3.554178939654688e-17
-1.8152632319768348e-17 7.015094584197216e-15 -1.1292547944779903e-15
2.128515729905894e-17 -7.014579891439164e-15 1.1323929630834122e-15
-1.840560136825177e-17 7.013648304844368e-15 -1.1381988507887107e-15
-1.665837150013465e-17 7.012409835226178e-15 -1.1458310240287962e-15
0.0 -0.0 0.0
3.9194800340541097e-17 -1.4023967489610511e-14 2.2967784731124567e-15
-8.322972994582176e-17 2.8047168652897216e-14 -4.5981485746231385e-15
4.199990593346646e-17 -1.4022968776909437e-14 2.3028188001455248e-15
-4.2406926783233056e-17 1.4022497368591643e-14 -2.305680146286624e-15
4.0084990270257686e-17 -1.4021953134616796e-14 2.309029064508361e-15
0.0 -0.0 0.0
3.50126909846194e-17 -1.4020992498534719e-14 2.314937408242855e-15
3.1940754851464167e-17 -1.4020150966059183e-14 2.3200729328338472e-15
3.01950785820439e-17 -1.4019700979805278e-14 2.322813903578019e-15
2.795434552207745e-17 -1.4019262664200659e-14 2.325485894021905e-15
2.673433756305088e-17 -1.4018885540608537e-14 2.3277725857761428e-15
0.0 -0.0 0.0
-2.372374717959347e-17 1.4018178450912967e-14 -2.3320595701564216e-15
2.2858311087986748e-17 -1.4017781821779205e-14 2.3344511198972967e-15
2.209544633615315e-17 -1.4017480759888992e-14 2.3362655401242582e-15
4.291099347516654e-17 -2.803439274567769e-14 4.675954338319528e-15
2.00535814376831e-17 -1.4016901454612168e-14 2.33975708186596e-15
1.920776867635504e-17 -1.4016632121560904e-14 2.341377109102364e-15
0.0 -0.0 0.0
-1.819870083431519e-17 1.4016423480805736e-14 -2.3426338490222054e-15
0.0 -0.0 0.0
-3.3885585731372895e-17 2.8031387450717838e-14 -4.694010683960389e-15
1.64260697690183e-17 -1.4015389009291352e-14 2.3488279713606406e-15
-1.61055086394546e-17 1.401509489074736e-14 -2.3505845129494216e-15
1.555943037221864e-17 -1.4014800637859795e-14 2.3523419653082252e-15
0.0 -0.0 0.0
0.0 -0.0 0.0
2.893644263510724e-17 -2.802793494319631e-14 4.7146147720210335e-15
1.422354867734567e-17 -1.4013726940484871e-14 2.3587383629327313e-15
2.78037278505029e-17 -2.8026938737764754e-14 4.720540105603884e-15
1.3597728096393319e-17 -1.401322164072356e-14 2.3617421718567376e-15
-2.684824901439716e-17 2.8025974530112563e-14 -4.7262667884201135e-15
0.0 -0.0 0.0
0.0 -0.0 0.0
0.0 -0.0 0.0
0.0 -0.0 0.0
6.0806546210688e-18 -7.005992396026512e-15 1.1845385205230079e-15
-5.9867388927726394e-18 7.00591400674384e-15 -1.1850025414372198e-15
0.0 -0.0 0.0
0.0 -0.0 0.0
-5.77547476513138e-18 7.005728291729373e-15 -1.1861010414372997e-15

SCALARS Gamma float
LOOKUP_TABLE default
-0.0
-0.0
-0.0
52.12162766680374
56.13322664380686
56.08096357970314
53.663334694065504
48.76962181568128
45.52049763675277
48.39451726151027
55.362118116020866
56.03102763194784
52.4305942305532
47.656472185421016
46.63812685298045
45.82834001804708
42.34955469879652
40.16712047323033
35.489666906046324
35.92422108584388
35.34536795509169
36.84177766062714
38.34831768093503
36.067913046870366
38.11150925712967
39.408831923761774
39.4809756457774
39.55292829364931
39.76124089526561
40.0000941377209
40.31385346595515
40.5870057607946
38.52817404246723
38.816805358907075
39.11019045045263
39.39467928999105
39.62373650304781
41.99439042975517
41.883538650536444
41.47561733626947
40.71187851275926
39.43537231275688
37.33205242615237
34.63468619511366
31.910591325543194
29.202419041610565
26.304065967910724
23.496170684492547
20.672568806393993
18.059543640379278
-0.0
-0.0
-0.0
52.12162766680374
56.13322664380686
56.08096357970314
53.663334694065504
48.76962181568128
45.52049763675277
48.39451726151027
55.362118116020866
56.03102763194784
52.4305942305532
47.656472185421016
46.63812685298045
45.82834001804708
42.34955469879652
40.16712047323033
35.489666906046324
35.92422108584388
35.34536795509169
36.84177766062714
38.34831768093503
36.067913046870366
38.11150925712967
39.408831923761774
39.4809756457774
39.55292829364931
39.76124089526561
40.0000941377209
40.31385346595515
40.5870057607946
38.52817404246723
38.816805358907075
39.11019045045263
39.39467928999105
39.62373650304781
41.99439042975517
41.883538650536444
41.47561733626947
40.71187851275926
39.43537231275688
37.33205242615237
34.63468619511366
31.910591325543194
29.202419041610565
26.304065967910724
23.496170684492547
20.672568806393993
18.059543640379278

VECTORS Ftot float
118.43325362851913 -6.99044338860595 -39.6447745008679
142.36444640393034 -15.472696555940223 -87.75002267816568
145.54792004543003 -22.885237180783093 -129.78862956101491
1312.7140164920795 1.5546734367854034 8.816991197483675
1340.746381217479 39.84802874157466 225.9894009496972
1433.2304122204027 51.49127537609025 292.0215339093508
1511.4395360597152 49.80104045689873 282.43573534125693
1497.3944817212384 48.522006949044616 275.181975861482
1506.4520801042233 51.78470590293079 293.6856611215424
1708.4660641803223 67.0777232994962 380.4166726497815
2084.23300416086 88.06609553999742 499.4476465607056
2246.7600022978486 97.98581498007293 555.7051710769143
2229.131620375022 99.89123741234668 566.5113586757603
2148.579748258376 92.92828037605457 527.0224670250575
2223.866146431577 90.4337936383431 512.875529740197
2298.679401827466 90.19415015932441 511.51644403444817
2228.3672517112395 82.53564801747649 468.0829200718827
2208.8423346461864 78.80273271519361 446.912505383873
2035.6977665570992 68.4980602688417 388.4718038817616
2141.1010270970683 70.02536480956492 397.1335783565848
2183.3012747492116 69.84484948491053 396.10982507770996
2357.174821943143 70.57068959346861 400.2262688893248
2532.2713361676415 74.35715203685415 421.7003645051625
2453.5348187625623 70.60129878962417 400.3998622669949
2665.93278440757 75.47335393767341 428.0306600523016
2833.176971042409 76.00921954120602 431.0697049073745
2910.7463176652805 75.75504481768984 429.6282084188908
2985.5543591757587 76.00868331634112 431.066663825047
3068.293469285799 76.41982969600137 433.3983908132158
3152.047803873081 76.99571139584752 436.6643782278038
3239.8853224280347 77.84377559394139 441.4739892963223
3322.9191847801317 78.5898411330104 445.7051372242877
3209.260292489917 75.53589202824716 428.38533118840604
3287.233637167009 75.88575070482847 430.36947834033714
3363.359403383471 76.90454469172205 436.14734615614253
3436.790829157758 78.15618118911014 443.2457294685496
3504.1541682072348 78.60133355656416 445.77031399705146
3760.743203350833 84.01873943224217 476.49394944927445
3795.3941860929604 84.05605156131021 476.7055570485092
3799.9918107892777 83.45970515354553 473.3235085079591
3767.7160933190435 82.78063500651392 469.47231032885355
3684.4842759265484 79.97873841755468 453.5819651434402
3519.138601086007 74.93389770084457 424.9712517038947
3290.988071590091 69.5370044937406 394.3639493760275
3054.164925436187 64.122347628308 363.65590433563136
2812.764944730081 59.35800430452998 336.6359706610719
2548.4780676831742 53.45282100767906 303.14601198813097
2288.2849737385286 47.68258548858495 270.42138019378007
2022.2820156768423 42.06267402007918 238.54927845458212
1773.4802401230343 36.71017568441881 208.1937519540173
118.43325362851913 -6.99044338860595 -39.6447745008679
142.36444640393034 -15.472696555940223 -87.75002267816568
145.54792004543003 -22.885237180783093 -129.78862956101491
1312.7140164920795 1.5546734367854034 8.816991197483675
1340.746381217479 39.84802874157466 225.9894009496972
1433.2304122204027 51.49127537609025 292.0215339093508
1511.4395360597152 49.80104045689873 282.43573534125693
1497.3944817212384 48.522006949044616 275.181975861482
1506.4520801042233 51.78470590293079 293.6856611215424
1708.4660641803223 67.0777232994962 380.4166726497815
2084.23300416086 88.06609553999742 499.4476465607056
2246.7600022978486 97.98581498007293 555.7051710769143
2229.131620375022 99.89123741234668 566.5113586757603
2148.579748258376 92.92828037605457 527.0224670250575
2223.866146431577 90.4337936383431 512.875529740197
2298.679401827466 90.19415015932441 511.51644403444817
2228.3672517112395 82.53564801747649 468.0829200718827
2208.8423346461864 78.80273271519361 446.912505383873
2035.6977665570992 68.4980602688417 388.4718038817616
2141.1010270970683 70.02536480956492 397.1335783565848
2183.3012747492116 69.84484948491053 396.10982507770996
2357.174821943143 70.57068959346861 400.2262688893248
2532.2713361676415 74.35715203685415 421.7003645051625
2453.5348187625623 70.60129878962417 400.3998622669949
2665.93278440757 75.47335393767341 428.0306600523016
2833.176971042409 76.00921954120602 431.0697049073745
2910.7463176652805 75.75504481768984 429.6282084188908
2985.5543591757587 76.00868331634112 431.066663825047
3068.293469285799 76.41982969600137 433.3983908132158
3152.047803873081 76.99571139584752 436.6643782278038
3239.8853224280347 77.84377559394139 441.4739892963223
3322.9191847801317 78.5898411330104 445.7051372242877
3209.260292489917 75.53589202824716 428.38533118840604
3287.233637167009 75.88575070482847 430.36947834033714
3363.359403383471 76.90454469172205 436.14734615614253
3436.790829157758 78.15618118911014 443.2457294685496
3504.1541682072348 78.60133355656416 445.77031399705146
3760.743203350833 84.01873943224217 476.49394944927445
3795.3941860929604 84.05605156131021 476.7055570485092
3799.9918107892777 83.45970515354553 473.3235085079591
3767.7160933190435 82.78063500651392 469.47231032885355
3684.4842759265484 79.97873841755468 453.5819651434402
3519.138601086007 74.93389770084457 424.9712517038947
3290.988071590091 69.5370044937406 394.3639493760275
3054.164925436187 64.122347628308 363.65590433563136
2812.764944730081 59.35800430452998 336.6359706610719
2548.4780676831742 53.45282100767906 303.14601198813097
2288.2849737385286 47.68258548858495 270.42138019378007
2022.2820156768423 42.06267402007918 238.54927845458212
1773.4802401230343 36.71017568441881 208.1937519540173

VECTORS D float
93.89129801428129 4.560276545457005 31.602593328438264
62.21340693086816 5.9302230989549125 38.493439940225585
14.402689273739142 2.078240517971768 12.876090828220267
553.0212447810587 104.52043458080665 644.2394506130556
539.9454525800675 125.67981623811521 772.0616916791662
494.0951675874355 136.19131593182993 834.3463828922206
426.3392211448462 135.40699508649374 827.4916207723826
357.9678904845794 128.78285939163953 782.9383293771992
318.1174672535001 127.02054615158178 771.3717063209583
333.3853470383631 145.91662611882617 885.2673745305019
374.6093160092844 177.91931746421153 1078.4676464541803
370.41858291513273 189.41955742323123 1146.7107154399891
340.06090323299304 185.82630019930212 1123.888702389191
296.9825083440966 172.39387132177583 1041.7340692607722
276.80618105522694 169.821387415343 1025.3570384184638
262.21996083109445 169.27365924718973 1021.2819023216407
232.05125675674367 157.0094591394624 945.6101128897737
212.72128774947632 150.3152199054056 904.4854159653195
180.24215414599465 132.60983065007483 797.2757439854252
177.3980654960126 135.51983169897167 814.1235105544205
170.3480224628956 134.7847914117069 809.0994589437058
170.18282823196208 139.1472510423063 834.6929240504725
173.45448009568815 146.25088150455443 876.5007132803512
159.816297300177 138.66150867254947 830.4508987582011
165.86747152903334 147.8125476155134 884.6787575968162
165.86417505967555 151.55212646702904 906.4894247447432
162.47787911782373 151.96846208945882 908.4248673147891
159.86095219723478 152.8215950191566 912.9815265032469
158.0212433756356 154.00064874875216 920.1875609999491
156.5594628768452 155.52377622399553 928.5631440446591
155.71133387614384 157.48963037618734 939.3622587734718
154.8350337726524 159.2309019743312 949.0434078541075
145.94844897920126 152.44026343515358 907.9078720426223
145.15237095126082 153.8197592069 915.4684153062555
145.06070414926018 155.81136594445684 926.6710360153043
145.2508143950176 157.98962008497983 938.9810090735353
144.75283642106248 159.3017228600096 946.1451058492058
152.74266297321296 169.89942098495018 1008.4847000029523
151.3645286921129 170.07949067047983 1008.9097562704708
148.99461456361408 168.99522671535726 1001.8627808427411
145.97425430066693 167.01304659239088 989.5303092758838
140.37539995610328 161.89852726350813 958.6906734859022
131.53359177977248 152.82173573949288 904.4618111335144
121.42673460862024 142.0321636429053 840.1855284306539
111.4063956123542 131.11152694591183 775.2253498411967
102.05954980582902 120.77678795817887 713.8144134012848
91.58045855748722 108.91256507397834 643.4448621049783
81.48856427984407 97.33478456388262 574.8443053733647
71.57806201747479 85.82268804530038 506.70004637429196
62.35220572919545 75.00362292370441 442.70670976880365
93.89129801428129 4.560276545457005 31.602593328438264
62.21340693086816 5.9302230989549125 38.493439940225585
14.402689273739142 2.078240517971768 12.876090828220267
553.0212447810587 104.52043458080665 644.2394506130556
539.9454525800675 125.67981623811521 772.0616916791662
494.0951675874355 136.19131593182993 834.3463828922206
426.3392211448462 135.40699508649374 827.4916207723826
357.9678904845794 128.78285939163953 782.9383293771992
318.1174672535001 127.02054615158178 771.3717063209583
333.3853470383631 145.91662611882617 885.2673745305019
374.6093160092844 177.91931746421153 1078.4676464541803
370.41858291513273 189.41955742323123 1146.7107154399891
340.06090323299304 185.82630019930212 1123.888702389191
296.9825083440966 172.39387132177583 1041.7340692607722
276.80618105522694 169.821387415343 1025.3570384184638
262.21996083109445 169.27365924718973 1021.2819023216407
232.05125675674367 157.0094591394624 945.6101128897737
212.72128774947632 150.3152199054056 904.4854159653195
180.24215414599465 132.60983065007483 797.2757439854252
177.3980654960126 135.51983169897167 814.1235105544205
170.3480224628956 134.7847914117069 809.0994589437058
170.18282823196208 139.1472510423063 834.6929240504725
173.45448009568815 146.25088150455443 876.5007132803512
159.816297300177 138.66150867254947 830.4508987582011
165.86747152903334 147.8125476155134 884.6787575968162
165.86417505967555 151.55212646702904 906.4894247447432
162.47787911782373 151.96846208945882 908.4248673147891
159.86095219723478 152.8215950191566 912.9815265032469
158.0212433756356 154.00064874875216 920.1875609999491
156.5594628768452 155.52377622399553 928.5631440446591
155.71133387614384 157.48963037618734 939.3622587734718
154.8350337726524 159.2309019743312 949.0434078541075
145.94844897920126 152.44026343515358 907.9078720426223
145.15237095126082 153.8197592069 915.4684153062555
145.06070414926018 155.81136594445684 926.6710360153043
145.2508143950176 157.98962008497983 938.9810090735353
144.75283642106248 159.3017228600096 946.1451058492058
152.74266297321296 169.89942098495018 1008.4847000029523
151.3645286921129 170.07949067047983 1008.9097562704708
148.99461456361408 168.99522671535726 1001.8627808427411
145.97425430066693 167.01304659239088 989.5303092758838
140.37539995610328 161.89852726350813 958.6906734859022
131.53359177977248 152.82173573949288 904.4618111335144
121.42673460862024 142.0321636429053 840.1855284306539
111.4063956123542 131.11152694591183 775.2253498411967
102.05954980582902 120.77678795817887 713.8144134012848
91.58045855748722 108.91256507397834 643.4448621049783
81.48856427984407 97.33478456388262 574.8443053733647
71.57806201747479 85.82268804530038 506.70004637429196
62.35220572919545 75.00362292370441 442.70670976880365

VECTORS L float
24.54195561423783 -11.550719934062954 -71.24736782930616
80.15103947306218 -21.402919654895136 -126.24346261839128
131.14523077169093 -24.963477698754858 -142.66472038923519
759.6927717110207 -102.96576114402126 -635.4224594155719
800.8009286374116 -85.83178749654056 -546.0722907294692
939.1352446329671 -84.7000405557397 -542.32484898287
1085.100314914869 -85.60595462959503 -545.0558854311257
1139.426591236659 -80.26085244259487 -507.7563535157172
1188.334612850723 -75.23584024865099 -477.6860451994159
1375.0807171419594 -78.83890281933 -504.8507018807206
1709.6236881515756 -89.85322192421411 -579.0199998934747
1876.3414193827161 -91.43374244315825 -591.0055443630747
1889.0707171420295 -85.93506278695551 -557.3773437134307
1851.5972399142795 -79.46559094572127 -514.7116022357147
1947.0599653763504 -79.38759377699992 -512.4815086782671
2036.4594409963715 -79.07950908786532 -509.76545828719236
1996.315994954496 -74.4738111219859 -477.5271928178908
1996.12104689671 -71.51248719021203 -457.5729105814466
1855.4556124111052 -64.11177038123313 -408.8039401036635
1963.7029616010554 -65.49446688940677 -416.98993219783574
2012.9532522863165 -64.9399419267964 -412.989633865996
2186.9919937111813 -68.57656144883767 -434.4666551611476
2358.8168560719537 -71.89372946770025 -454.80034877518864
2293.718521462385 -68.06020988292532 -430.0510364912063
2500.065312878537 -72.33919367784002 -456.6480975445147
2667.3127959827334 -75.54290692582302 -475.4197198373687
2748.2684385474568 -76.21341727176905 -478.7966588958985
2825.693406978524 -76.81291170281551 -481.9148626781998
2910.272225910164 -77.58081905275081 -486.78917018673354
2995.4883409962363 -78.52806482814803 -491.8987658168551
3084.1739885518914 -79.64585478224596 -497.8882694771497
3168.084151007479 -80.64106084132082 -503.33827062982
3063.3118435107162 -76.90437140690644 -479.5225408542163
3142.0812662157487 -77.93400850207156 -485.09893696591854
3218.2986992342117 -78.90682125273482 -490.5236898591618
3291.5400147627392 -79.83343889586965 -495.73527960498535
3359.4013317861736 -80.7003893034454 -500.3747918521543
3608.0005403776204 -85.88068155270803 -531.9907505536777
3644.029657400847 -86.02343910916966 -532.2041992219616