# vtk DataFile Version 4.0
[MyVLM domain - lattices] 
ASCII
DATASET UNSTRUCTURED_GRID
POINTS 152 float
0.0 0.3173868304691274 -2.2244301063855785
0.0 -1.0029597229297573 -4.0358931929091
0.0 -2.324392667971845 -5.792823691600269
0.0 -3.614028437554992 -7.52281419148629
0.0 -4.871603537241347 -9.226085790652782
0.0 -6.125397252075276 -10.878909351449055
0.0 -7.398834755575138 -12.461628819415596
0.0 -8.697962531393769 -13.969170592349387
0.0 -9.985907551273641 -15.432474814661715
0.0 -11.247571877997903 -16.864210159902772
0.0 -12.483145646042061 -18.264217086304285
0.0 -13.692907115402944 -19.632262106005548
0.0 -14.877162299099453 -20.968088443595263
0.0 -16.038429621516872 -22.269582890100594
0.0 -17.17502890027871 -23.53815528593396
0.0 -18.283277125320424 -24.776896043482143
0.0 -19.36262605947433 -25.986265188350337
0.0 -20.41397914892059 -27.165504639182007
0.0 -21.437987277609384 -28.314068239494596
0.0 -22.434650257850063 -29.431956146779253
0.0 -23.403967906964493 -30.519168514321134
0.0 -24.345940047287044 -31.57570549119942
0.0 -25.260566506164597 -32.601567222287265
0.0 -26.14784711595655 -33.59675384825184
0.0 -27.0077817140348 -34.56126550555433
0.0 -27.84037014278376 -35.49510232644991
0.0 -28.64561224960035 -36.39826443898777
0.0 -29.42350788689402 -37.27075196701111
0.0 -30.174055688682248 -38.11256605671532
0.0 -30.897238713282327 -38.92372092386013
0.0 -31.59305351675744 -39.70421945825166
0.0 -32.261502523197905 -40.45405962583659
0.0 -32.902588061424126 -41.17323947250262
0.0 -33.51631236498654 -41.861757124078366
0.0 -34.10267757216572 -42.5196107863334
0.0 -34.66168572597227 -43.14679874497829
0.0 -35.19366203724947 -43.743048115714366
0.0 -35.69963488036559 -44.307495989988496
0.0 -36.18123614280016 -44.838773051618524
0.0 -36.63931475346371 -45.33616696466869
0.0 -37.07327589078221 -45.800176843702396
0.0 -37.48331418680854 -46.230639373035835
0.0 -37.87845110168875 -46.619984648787806
0.0 -38.25848183951368 -46.968384515130126
0.0 -38.61657585999258 -47.28157047590152
0.0 -38.948078342766934 -47.563448389148
0.0 -39.251810637824406 -47.81500725966022
0.0 -39.52889954740716 -48.03530158809237
0.0 -39.778357321453235 -48.225160195157116
0.0 -39.998227111433515 -48.386225071733534
0.0 -40.18681492906902 -48.51991764276173
-0.7686761955390344 -2.1744985707209263 -0.13348998531095768
-0.8409029948616161 -3.725502654376521 -1.7514084232678118
-0.8940476007249757 -5.220425896218094 -3.362763277901696
-0.9506443374492793 -6.695169941354469 -4.937429492043142
-1.0210144815146838 -8.148629596326266 -6.476334433116293
-1.048631451549771 -9.557425417162637 -7.999095783934217
-0.9920275022819518 -10.905622954280405 -9.519084135265171
-0.9074715353829097 -12.177847789821639 -11.04920015546331
-0.8388231939293685 -13.404833155307829 -12.563655601294071
-0.7803448823218929 -14.602189117882705 -14.04935207117449
-0.7251531968841737 -15.771623253380433 -15.504856738851913
-0.671766762046156 -16.9155473393189 -16.928145882700605
-0.6188683613166902 -18.030721626641416 -18.32193797495913
-0.5668565661826578 -19.116082159178205 -19.68712578085715
-0.5162677046190278 -20.17227041960714 -21.023171032516245
-0.4681223452427161 -21.203599891680966 -22.3264542873104
-0.42442582165628834 -22.21056697807667 -23.596559013936435
-0.3846819074085718 -23.19226495199008 -24.834246046521326
-0.3476243488905531 -24.148118625734025 -26.03999802484122
-0.3131098246080671 -25.078169562131546 -27.21378007354664
-0.28048746260446866 -25.98248833152892 -28.355532977086046
-0.2502235469699514 -26.861065912393833 -29.465264305423876
-0.2227998260917326 -27.71390265976018 -30.542973760651336
-0.19746739264611052 -28.54106756931093 -31.588603448516263
-0.17533279734900953 -29.34253314001186 -32.60217644512636
-0.15613374469432648 -30.118344228703968 -33.583655111122866
-0.13998404755873647 -30.868524801870368 -34.53301933623865
-0.12578653595324127 -31.593138141068597 -35.45021602094215
-0.11250427274737486 -32.29223089203214 -36.33520602481557
-0.10008179164308317 -32.965812224791556 -37.18798165328965
-0.08845752889585208 -33.613888803933726 -38.008537314112004
-0.07764231497362577 -34.23646411609619 -38.796870081646354
-0.06766212708627829 -34.83354151807565 -39.55297713920583
-0.0584684819534103 -35.405126000364795 -40.27685429926986
-0.050013688763705585 -35.951222072929625 -40.96849777752762
-0.042252254921319045 -36.47183376948464 -41.62790418929078
-0.03513536582041269 -36.96671241896578 -42.25528219435748
-0.028615518964613278 -37.435057750008944 -42.85130330013415
-0.022687693716904638 -37.87471853153911 -43.417772603822456
-0.017408965386693863 -38.284582056808226 -43.95562377724427
-0.013252482528008399 -38.66645931721861 -44.46333721818186
-0.010166684094042405 -39.02025778626571 -44.94099056559105
-0.00760098697125575 -39.335286633492395 -45.39755449136541
-0.005464879873870877 -39.61151095666713 -45.83305828195454
-0.0039015967321000085 -39.856987580119835 -46.240741459034766
-0.002883995165670249 -40.07704920811726 -46.61612935242265
-0.0022477517166190047 -40.27263996773107 -46.95842974544059
-0.00179874084072329 -40.44173649182285 -47.26934044470816
-0.0014595970466816986 -40.58514735536965 -47.54818297526035
-0.0012027506489664258 -40.70501032490593 -47.79316353798654
-0.0010073243559101815 -40.803175989933294 -48.00272930391848
-0.603592196400244 -2.2981970709691213 -1.489377315628873
-0.6506064733449719 -3.7706422553356806 -3.1464039985022363
-0.6917594768153456 -5.210651077280565 -4.777027024115135
-0.7393720571114861 -6.627128823479818 -6.373773969702172
-0.7761172248991705 -8.014395728722917 -7.94141072415667
-0.7652471076868961 -9.364172140247442 -9.486884741057853
-0.712312139124323 -10.66840118990938 -11.016956535493804
-0.6548605234921042 -11.928989114756977 -12.530026584660407
-0.607188028594223 -13.156818281105394 -14.016963498996274
-0.564561779702275 -14.356519329728673 -15.473881709535783
-0.5238449845988737 -15.529695567442875 -16.899435882120923
-0.48398817126106725 -16.676109539047918 -18.2938252653225
-0.4446468478122555 -17.794500409759394 -19.658107825143084
-0.4061716015506322 -18.884814532268955 -20.992328577019343
-0.369146268698154 -19.94823961993293 -22.295490911112
-0.3347055625871267 -20.98605047425846 -23.566525141946624
-0.3034153983993225 -21.9981376248244 -24.805523126113204
-0.27461484611217185 -22.984139644962784 -26.01278813659553
-0.24777531506198255 -23.94393776238202 -27.188419835179683
-0.22259898270470088 -24.87757398072449 -28.332382976624803
-0.19901662859040753 -25.785071335752477 -29.44465823163129
-0.1773837648981315 -26.66642653373921 -30.525248363964035
-0.15760020702669117 -27.521665538666806 -31.57413158725523
-0.13980007124817 -28.350803869744965 -32.59129487934175
-0.124299953266251 -29.153847995370757 -33.57673281259399
-0.11104417209489861 -29.930823685513392 -34.53042376344028
-0.09966396881699166 -30.681763620663904 -35.45234030969266
-0.08935905326273105 -31.406708834359804 -36.34244802012494
-0.07971977414642176 -32.105677969054454 -37.200731251861384
-0.07070224520210072 -32.77867441452695 -38.02718716053959
-0.06228744145105419 -33.42570185000564 -38.82181265892041
-0.05448916577246402 -34.04676343589219 -39.58460509511197
-0.04729897838988322 -34.6418628727165 -40.315561364001
-0.04068081401891846 -35.21100426962944 -41.014678017600524
-0.03459972888188424 -35.7541913531726 -41.681951928970854
-0.029020357778149403 -36.271373291071626 -42.31742575145467
-0.023906581794384738 -36.7623259280674 -42.92128757364721
-0.019238704755569217 -37.22627498347624 -43.4941870941846
-0.015036247163849435 -37.662306582663234 -44.03689114493593
-0.011498042968013347 -38.0707143457908 -44.549153349331185
-0.00878218748326905 -38.45209267350547 -45.030474946007125
-0.006662876649486808 -38.80354981847145 -45.483282399086626
-0.004899700066922485 -39.12216571396013 -45.910025935484725
-0.0035124287272390825 -39.4100691637334 -46.30891927674995
-0.0025445969616638467 -39.67084557093385 -46.67695391242772
-0.0019244050808584702 -39.90611956351704 -47.01276661779974
-0.0015174347090033604 -40.11547994548667 -47.316702427274855
-0.0012218767077768707 -40.298488551304736 -47.589129005394376
-0.0009983803858680466 -40.45588218421418 -47.82942810082891
-0.0008287781268287279 -40.58870012312752 -48.03672765502629

CELLS 100 350
4 0 51 52 1
4 1 52 53 2
4 2 53 54 3
4 3 54 55 4
4 4 55 56 5
4 5 56 57 6
4 6 57 58 7
4 7 58 59 8
4 8 59 60 9
4 9 60 61 10
4 10 61 62 11
4 11 62 63 12
4 12 63 64 13
4 13 64 65 14
4 14 65 66 15
4 15 66 67 16
4 16 67 68 17
4 17 68 69 18
4 18 69 70 19
4 19 70 71 20
4 20 71 72 21
4 21 72 73 22
4 22 73 74 23
4 23 74 75 24
4 24 75 76 25
4 25 76 77 26
4 26 77 78 27
4 27 78 79 28
4 28 79 80 29
4 29 80 81 30
4 30 81 82 31
4 31 82 83 32
4 32 83 84 33
4 33 84 85 34
4 34 85 86 35
4 35 86 87 36
4 36 87 88 37
4 37 88 89 38
4 38 89 90 39
4 39 90 91 40
4 40 91 92 41
4 41 92 93 42
4 42 93 94 43
4 43 94 95 44
4 44 95 96 45
4 45 96 97 46
4 46 97 98 47
4 47 98 99 48
4 48 99 100 49
4 49 100 101 50
1 102
1 103
1 104
1 105
1 106
1 107
1 108
1 109
1 110
1 111
1 112
1 113
1 114
1 115
1 116
1 117
1 118
1 119
1 120
1 121
1 122
1 123
1 124
1 125
1 126
1 127
1 128
1 129
1 130
1 131
1 132
1 133
1 134
1 135
1 136
1 137
1 138
1 139
1 140
1 141
1 142
1 143
1 144
1 145
1 146
1 147
1 148
1 149
1 150
1 151

CELL_TYPES 100
9
9
9
9
9
9
9
9
9
9
9
9
9
9
9
9
9
9
9
9
9
9
9
9
9
9
9
9
9
9
9
9
9
9
9
9
9
9
9
9
9
9
9
9
9
9
9
9
9
9
1
1
1
1
1
1
1
1
1
1
1
1
1
1
1
1
1
1
1
1
1
1
1
1
1
1
1
1
1
1
1
1
1
1
1
1
1
1
1
1
1
1
1
1
1
1
1
1
1
1

CELL_DATA 100

VECTORS S float
1.367973012193579e-17 2.6949716009770336e-15 2.3148899365730688e-15
-0.0 -0.0 -0.0
9.025075179367183e-17 1.08207212206933e-14 9.211527495612085e-15
0.0 -0.0 -0.0
3.32234399808084e-17 -1.0761262622031193e-14 -9.281299193501369e-15
0.0 -0.0 -0.0
0.0 -0.0 -0.0
0.0 -0.0 -0.0
0.0 -0.0 -0.0
0.0 -0.0 -0.0
-2.0731886369163814e-16 6.476651452862359e-14 5.545626851149645e-14
1.408115280169908e-16 -4.318062874925416e-14 -3.6967387528981903e-14
-1.4208788403245379e-16 4.318979438833702e-14 3.695667381558637e-14
-1.3405198661408772e-16 4.319982524141649e-14 3.6944977966717256e-14
0.0 -0.0 -0.0
-1.1552008405366906e-16 4.321771005233165e-14 3.6924117602564807e-14
0.0 -0.0 -0.0
0.0 -0.0 -0.0
4.6532259811607907e-17 -2.1619096866099992e-14 -1.8450096270461524e-14
0.0 -0.0 -0.0
8.546043450133227e-17 -4.3249394188789624e-14 -3.688708265236071e-14
-7.833267903854861e-17 4.3254859559192485e-14 3.688068947689553e-14
-3.7836656122330357e-17 2.1629695658880672e-14 1.843768968818947e-14
0.0 -0.0 -0.0
0.0 -0.0 -0.0
-6.710606965561148e-17 4.3268758181937885e-14 3.6864404646673236e-14
-3.2191254933886296e-17 2.1635799065514604e-14 1.843053795921593e-14
0.0 -0.0 -0.0
3.02023667574259e-17 -2.1638574526269552e-14 -1.842728268721237e-14
-2.915863953093889e-17 2.16406181680698e-14 1.842488431507411e-14
2.822713658788232e-17 -2.1642627192334525e-14 -1.8422525841716127e-14
2.7350120076846817e-17 -2.164461094080144e-14 -1.842019641965271e-14
-5.345092298025508e-17 4.3293523225285385e-14 3.6835339791099696e-14
-2.585149877339606e-17 2.1648722128784005e-14 1.8415366649540948e-14
0.0 -0.0 -0.0
2.467255117502272e-17 -2.1652487517954523e-14 -1.841094083680566e-14
2.3949724109909e-17 -2.165432720848206e-14 -1.8408777974244373e-14
-2.345121792523418e-17 2.1656100252348596e-14 1.8406692773198583e-14
-6.869196819246589e-17 6.497348456408308e-14 5.521398090639009e-14
0.0 -0.0 -0.0
0.0 -0.0 -0.0
0.0 -0.0 -0.0
-4.164158863040172e-17 4.332816701838265e-14 3.6794598470298575e-14
2.039855177391856e-17 -2.1665446532560278e-14 -1.839569453405262e-14
-2.0027239375231078e-17 2.166671305186866e-14 1.8394203200573365e-14
1.994836502464377e-17 -2.1667705263079862e-14 -1.8393034487037482e-14
-1.962790851118754e-17 2.1668751547900336e-14 1.8391802196818295e-14
0.0 -0.0 -0.0
9.56468647138428e-18 -1.0835254638009054e-14 -9.194865805592542e-15
0.0 -0.0 -0.0
1.367973012193579e-17 2.6949716009770336e-15 2.3148899365730688e-15
-0.0 -0.0 -0.0
9.025075179367183e-17 1.08207212206933e-14 9.211527495612085e-15
0.0 -0.0 -0.0
3.32234399808084e-17 -1.0761262622031193e-14 -9.281299193501369e-15
0.0 -0.0 -0.0
0.0 -0.0 -0.0
0.0 -0.0 -0.0
0.0 -0.0 -0.0
0.0 -0.0 -0.0
-2.0731886369163814e-16 6.476651452862359e-14 5.545626851149645e-14
1.408115280169908e-16 -4.318062874925416e-14 -3.6967387528981903e-14
-1.4208788403245379e-16 4.318979438833702e-14 3.695667381558637e-14
-1.3405198661408772e-16 4.319982524141649e-14 3.6944977966717256e-14
0.0 -0.0 -0.0
-1.1552008405366906e-16 4.321771005233165e-14 3.6924117602564807e-14
0.0 -0.0 -0.0
0.0 -0.0 -0.0
4.6532259811607907e-17 -2.1619096866099992e-14 -1.8450096270461524e-14
0.0 -0.0 -0.0
8.546043450133227e-17 -4.3249394188789624e-14 -3.688708265236071e-14
-7.833267903854861e-17 4.3254859559192485e-14 3.688068947689553e-14
-3.7836656122330357e-17 2.1629695658880672e-14 1.843768968818947e-14
0.0 -0.0 -0.0
0.0 -0.0 -0.0
-6.710606965561148e-17 4.3268758181937885e-14 3.6864404646673236e-14
-3.2191254933886296e-17 2.1635799065514604e-14 1.843053795921593e-14
0.0 -0.0 -0.0
3.02023667574259e-17 -2.1638574526269552e-14 -1.842728268721237e-14
-2.915863953093889e-17 2.16406181680698e-14 1.842488431507411e-14
2.822713658788232e-17 -2.1642627192334525e-14 -1.8422525841716127e-14
2.7350120076846817e-17 -2.164461094080144e-14 -1.842019641965271e-14
-5.345092298025508e-17 4.3293523225285385e-14 3.6835339791099696e-14
-2.585149877339606e-17 2.1648722128784005e-14 1.8415366649540948e-14
0.0 -0.0 -0.0
2.467255117502272e-17 -2.1652487517954523e-14 -1.841094083680566e-14
2.3949724109909e-17 -2.165432720848206e-14 -1.8408777974244373e-14
-2.345121792523418e-17 2.1656100252348596e-14 1.8406692773198583e-14
-6.869196819246589e-17 6.497348456408308e-14 5.521398090639009e-14
0.0 -0.0 -0.0
0.0 -0.0 -0.0
0.0 -0.0 -0.0
-4.164158863040172e-17 4.332816701838265e-14 3.6794598470298575e-14
2.039855177391856e-17 -2.1665446532560278e-14 -1.839569453405262e-14
-2.0027239375231078e-17 2.166671305186866e-14 1.8394203200573365e-14
1.994836502464377e-17 -2.1667705263079862e-14 -1.8393034487037482e-14
-1.962790851118754e-17 2.1668751547900336e-14 1.8391802196818295e-14
0.0 -0.0 -0.0
9.56468647138428e-18 -1.0835254638009054e-14 -9.194865805592542e-15
0.0 -0.0 -0.0

SCALARS Gamma float
LOOKUP_TABLE default
-0.0
-0.0
-0.0
53.23236872593418
57.78296571632651
57.54564162341142
54.872029754246846
49.79493444251867
46.282383066534145
49.42827137172923
56.847164922597244
57.44173487988547
54.172460653522194
49.468817365868034
48.44120490206051
47.61948770045921
44.12558021246225
41.84626911615411
37.18863552198686
37.665045922920946
36.99974365455857
38.37896293627738
39.7335157251145
37.261692642148304
39.249688967322385
40.56436858292972
40.589805420770915
40.61522916623762
40.82310849639049
41.01574889141782
41.2766716956073
41.50834369387439
39.38052118885138
39.638957542306485
39.903973981629086
40.16182977827717
40.36521061330144
42.730238483647256
42.58820473663724
42.148639221393594
41.35293519106043
40.04107725205202
37.89216317514689
35.14368173654351
32.379330491351425
29.63631083176122
26.6910490520204
23.829108408581874
20.963482711079806
18.325368126165003
-0.0
-0.0
-0.0
53.23236872593418
57.78296571632651
57.54564162341142
54.872029754246846
49.79493444251867
46.282383066534145
49.42827137172923
56.847164922597244
57.44173487988547
54.172460653522194
49.468817365868034
48.44120490206051
47.61948770045921
44.12558021246225
41.84626911615411
37.18863552198686
37.665045922920946
36.99974365455857
38.37896293627738
39.7335157251145
37.261692642148304
39.249688967322385
40.56436858292972
40.589805420770915
40.61522916623762
40.82310849639049
41.01574889141782
41.2766716956073
41.50834369387439
39.38052118885138
39.638957542306485
39.903973981629086
40.16182977827717
40.36521061330144
42.730238483647256
42.58820473663724
42.148639221393594
41.35293519106043
40.04107725205202
37.89216317514689
35.14368173654351
32.379330491351425
29.63631083176122
26.6910490520204
23.829108408581874
20.963482711079806
18.325368126165003

VECTORS Ftot float
122.14956332008299 26.188010196002978 -31.209655233980325
146.5292038699305 58.04412279435815 -69.17429186915574
149.4519402193571 85.82990830680785 -102.2881015766698
1364.1023911839698 -2.5343346393140993 3.020302411238527
1393.636640494357 -154.46207705543387 184.08073525037688
1483.5263065565118 -197.3663629089732 235.21207205402123
1558.0318399597968 -188.90319108544227 225.12605662858624
1539.4440391086723 -183.02716662276796 218.1232833650226
1541.3017566138496 -194.225480588929 231.46891426519292
1753.6725179762027 -254.67419855733638 303.5088910717566
2150.0150423402183 -336.7387875483217 401.30965982653044
2312.2597707397094 -371.94110123545346 443.26214363079805
2310.081006858105 -384.59526548387794 458.3427893351351
2235.572763626352 -361.288001432315 430.5662736681432
2314.415034345836 -353.03591579332624 420.7318209614832
2393.191424533995 -351.40168416508254 418.78421954739264
2327.345663826713 -322.8519099096648 384.7599235107449
2306.062890170301 -308.576510077286 367.7471644747887
2137.4887569221687 -269.63899974212654 321.34324664618833
2248.8610281911792 -276.2762814462092 329.25325096208866
2289.1834513480712 -275.18548485545074 327.9532902062627
2459.426988205227 -276.07329694373965 329.0113434520296
2627.3781845234803 -289.4174389157232 344.9142725872282
2537.9769193138295 -274.0871462362004 326.6443412108862
2748.8476925944346 -292.0442165934683 348.0447443216272
2919.388952205112 -294.80860486178506 351.33921397171895
2995.6426537613315 -293.2350339279147 349.46390515807707
3068.860464423713 -293.7401840615583 350.06591964464627
3152.5609738354506 -295.50925975926975 352.174221962965
3234.3813570391044 -297.2234436788312 354.21710680746963
3319.624383664468 -299.8663664795798 357.36681955021095
3400.697094704861 -302.2493454696334 360.2067433226838
3282.5316353523785 -289.947130152677 345.54553402183353
3358.963132634948 -291.5297034072181 347.43157138347635
3433.7173517436654 -294.99833544786765 351.5653260793079
3505.770202554396 -299.4843957086369 356.9116045116738
3571.7781847636447 -300.7843838543341 358.4608700546383
3828.8922592578288 -320.52384385799246 381.9854424298678
3861.455159265442 -320.3608577189007 381.7912031130622
3863.8000404671902 -317.8252321515531 378.7693622337019
3829.1702489416166 -314.7248451232545 375.0744648542946
3742.9802638093115 -304.46367847146524 362.8456826328169
3573.7225961759323 -285.1265226141234 339.8005576692756
3340.9833489585717 -264.471318715248 315.18464421702487
3100.507093079734 -243.8479924314085 290.6067210270166
2855.8992956547672 -225.84078789497488 269.14657032814307
2587.157594491644 -203.3295335848138 242.3187021302067
2321.7560749125964 -181.25336160822872 216.00934486638388
2051.6484020518665 -159.85189473084188 190.50406982847213
1800.3088149173418 -139.6823903253332 166.46699049236238
122.14956332008299 26.188010196002978 -31.209655233980325
146.5292038699305 58.04412279435815 -69.17429186915574
149.4519402193571 85.82990830680785 -102.2881015766698
1364.1023911839698 -2.5343346393140993 3.020302411238527
1393.636640494357 -154.46207705543387 184.08073525037688
1483.5263065565118 -197.3663629089732 235.21207205402123
1558.0318399597968 -188.90319108544227 225.12605662858624
1539.4440391086723 -183.02716662276796 218.1232833650226
1541.3017566138496 -194.225480588929 231.46891426519292
1753.6725179762027 -254.67419855733638 303.5088910717566
2150.0150423402183 -336.7387875483217 401.30965982653044
2312.2597707397094 -371.94110123545346 443.26214363079805
2310.081006858105 -384.59526548387794 458.3427893351351
2235.572763626352 -361.288001432315 430.5662736681432
2314.415034345836 -353.03591579332624 420.7318209614832
2393.191424533995 -351.40168416508254 418.78421954739264
2327.345663826713 -322.8519099096648 384.7599235107449
2306.062890170301 -308.576510077286 367.7471644747887
2137.4887569221687 -269.63899974212654 321.34324664618833
2248.8610281911792 -276.2762814462092 329.25325096208866
2289.1834513480712 -275.18548485545074 327.9532902062627
2459.426988205227 -276.07329694373965 329.0113434520296
2627.3781845234803 -289.4174389157232 344.9142725872282
2537.9769193138295 -274.0871462362004 326.6443412108862
2748.8476925944346 -292.0442165934683 348.0447443216272
2919.388952205112 -294.80860486178506 351.33921397171895
2995.6426537613315 -293.2350339279147 349.46390515807707
3068.860464423713 -293.7401840615583 350.06591964464627
3152.5609738354506 -295.50925975926975 352.174221962965
3234.3813570391044 -297.2234436788312 354.21710680746963
3319.624383664468 -299.8663664795798 357.36681955021095
3400.697094704861 -302.2493454696334 360.2067433226838
3282.5316353523785 -289.947130152677 345.54553402183353
3358.963132634948 -291.5297034072181 347.43157138347635
3433.7173517436654 -294.99833544786765 351.5653260793079
3505.770202554396 -299.4843957086369 356.9116045116738
3571.7781847636447 -300.7843838543341 358.4608700546383
3828.8922592578288 -320.52384385799246 381.9854424298678
3861.455159265442 -320.3608577189007 381.7912031130622
3863.8000404671902 -317.8252321515531 378.7693622337019
3829.1702489416166 -314.7248451232545 375.0744648542946
3742.9802638093115 -304.46367847146524 362.8456826328169
3573.7225961759323 -285.1265226141234 339.8005576692756
3340.9833489585717 -264.471318715248 315.18464421702487
3100.507093079734 -243.8479924314085 290.6067210270166
2855.8992956547672 -225.84078789497488 269.14657032814307
2587.157594491644 -203.3295335848138 242.3187021302067
2321.7560749125964 -181.25336160822872 216.00934486638388
2051.6484020518665 -159.85189473084188 190.50406982847213
1800.3088149173418 -139.6823903253332 166.46699049236238

VECTORS D float
97.68765800035561 -21.519881699486202 24.47594952297787
65.86065332557483 -26.606959339058687 30.657364985859477
16.76582453732201 -9.791714324037107 11.337998258583168
580.6318749232522 -441.47623414718186 512.5168229390404
570.8263803711669 -531.8822959129194 618.7377183505198
519.2923171207746 -571.7091411771614 665.8170301352101
446.15062966051084 -564.0365508020354 657.6758708713871
373.8157341988412 -531.9762885754367 620.9131665325068
330.37686928872495 -521.1506511187274 608.764651235704
348.21002377902954 -601.4323935656773 703.0020569161484
393.61238088859466 -736.6146187984995 861.7522592967689
387.09793637639723 -779.5220987911246 912.0136546089569
358.944808940522 -771.6192047848907 903.1407067554239
315.5805537873391 -719.9626403132946 842.998592937649
294.7479935017256 -710.0556473054535 831.6892945273248
279.011421486063 -706.6706303924957 827.993187507876
247.69880154802217 -656.5213612591149 769.5064320407095
227.06569534239867 -628.0728443817015 736.3330526487581
193.47656390585735 -556.665933237679 652.7671974126339
190.62908972420826 -569.0561190869247 667.4711825101543
182.7441696182427 -564.59632558701 662.4017049347552
181.46338847547577 -578.9337107033202 679.377506746929
183.89905277409432 -604.5823014603882 709.6273734846485
168.94325859498784 -571.1532250528164 670.5067019196613
174.73471602121833 -606.4264430101105 712.0009875992782
174.8104176752408 -621.7457889154437 730.0782228613685
170.92019341305613 -621.9981948755352 730.468645502962
167.87920929948066 -624.1477139025135 733.0901897912803
166.03265406971892 -629.156964897095 739.071228456827
164.1963337078593 -633.8099516656101 744.6899889406413
162.94306110168134 -639.9038967368678 752.0033360826807
161.74492966150552 -645.4745335334757 758.7035759762504
152.25926989400813 -616.6781595445914 725.0186579717947
151.367214794552 -621.6077613225208 730.9616486875587
151.05908699684076 -628.3754130276574 739.0667354244921
151.0823349714957 -636.0303655799287 748.2163600711858
150.37474936721512 -640.1166603976106 753.167704505394
158.28035556160907 -680.7402881935191 801.1157667342675
156.69313604360187 -680.3691121785425 800.8246252501457
154.1024184584541 -675.0436595912691 794.6960870976976
150.80091011142494 -665.9741991320311 784.151555366472
145.04710003112402 -645.3724290065813 760.0167493907205
135.83406918732072 -608.536545793018 716.7473090005062
125.33285192444549 -565.013020649282 665.5805234796428
114.96903946596349 -521.2402298246271 614.0991746150926
105.39532319140537 -480.1389603105914 565.7365536417483
94.54395876720929 -432.6845377559513 509.8787681093624
84.06374493957921 -386.28234827016087 455.24339163985366
73.82020604662438 -340.4086974702251 401.21531550413204
64.39595018443225 -297.7061088408884 350.9440605007445
97.68765800035561 -21.519881699486202 24.47594952297787
65.86065332557483 -26.606959339058687 30.657364985859477
16.76582453732201 -9.791714324037107 11.337998258583168
580.6318749232522 -441.47623414718186 512.5168229390404
570.8263803711669 -531.8822959129194 618.7377183505198
519.2923171207746 -571.7091411771614 665.8170301352101
446.15062966051084 -564.0365508020354 657.6758708713871
373.8157341988412 -531.9762885754367 620.9131665325068
330.37686928872495 -521.1506511187274 608.764651235704
348.21002377902954 -601.4323935656773 703.0020569161484
393.61238088859466 -736.6146187984995 861.7522592967689
387.09793637639723 -779.5220987911246 912.0136546089569
358.944808940522 -771.6192047848907 903.1407067554239
315.5805537873391 -719.9626403132946 842.998592937649
294.7479935017256 -710.0556473054535 831.6892945273248
279.011421486063 -706.6706303924957 827.993187507876
247.69880154802217 -656.5213612591149 769.5064320407095
227.06569534239867 -628.0728443817015 736.3330526487581
193.47656390585735 -556.665933237679 652.7671974126339
190.62908972420826 -569.0561190869247 667.4711825101543
182.7441696182427 -564.59632558701 662.4017049347552
181.46338847547577 -578.9337107033202 679.377506746929
183.89905277409432 -604.5823014603882 709.6273734846485
168.94325859498784 -571.1532250528164 670.5067019196613
174.73471602121833 -606.4264430101105 712.0009875992782
174.8104176752408 -621.7457889154437 730.0782228613685
170.92019341305613 -621.9981948755352 730.468645502962
167.87920929948066 -624.1477139025135 733.0901897912803
166.03265406971892 -629.156964897095 739.071228456827
164.1963337078593 -633.8099516656101 744.6899889406413
162.94306110168134 -639.9038967368678 752.0033360826807
161.74492966150552 -645.4745335334757 758.7035759762504
152.25926989400813 -616.6781595445914 725.0186579717947
151.367214794552 -621.6077613225208 730.9616486875587
151.05908699684076 -628.3754130276574 739.0667354244921
151.0823349714957 -636.0303655799287 748.2163600711858
150.37474936721512 -640.1166603976106 753.167704505394
158.28035556160907 -680.7402881935191 801.1157667342675
156.69313604360187 -680.3691121785425 800.8246252501457
154.1024184584541 -675.0436595912691 794.6960870976976
150.80091011142494 -665.9741991320311 784.151555366472
145.04710003112402 -645.3724290065813 760.0167493907205
135.83406918732072 -608.536545793018 716.7473090005062
125.33285192444549 -565.013020649282 665.5805234796428
114.96903946596349 -521.2402298246271 614.0991746150926
105.39532319140537 -480.1389603105914 565.7365536417483
94.54395876720929 -432.6845377559513 509.8787681093624
84.06374493957921 -386.28234827016087 455.24339163985366
73.82020604662438 -340.4086974702251 401.21531550413204
64.39595018443225 -297.7061088408884 350.9440605007445

VECTORS L float
24.46190531972739 47.70789189548917 -55.68560475695819
80.66855054435571 84.65108213341685 -99.83165685501524
132.6861156820351 95.62162263084498 -113.62609983525297
783.4705162607174 438.94189950786773 -509.49652052780186
822.8102601231902 377.4202188574857 -434.6569831001431
964.2339894357369 374.3427782681882 -430.604958081189
1111.8812102992863 375.13335971659325 -432.54981424280106
1165.628304909831 348.94912195266875 -402.7898831674842
1210.9248873251245 326.9251705297985 -377.29573697051126
1405.4624941971736 346.75819500834103 -399.4931658443918
1756.402661451624 399.87583125017784 -460.44259947023835
1925.1618343633133 407.58099755567105 -468.75151097815865
1951.136197917583 387.0239393010127 -444.7979174202887
1919.9922098390125 358.6746388809798 -412.43231926950614
2019.6670408441103 357.0197315121272 -410.9574735658415
2114.180003047932 355.26894622741304 -409.2089679604833
2079.646862278691 333.6694513494502 -384.7465085299646
2078.9971948279026 319.4963343044156 -368.58588817396947
1944.0121930163107 287.0269334955524 -331.42395076644533
2058.2319384669713 292.7798376407155 -338.2179315480658
2106.439281729829 289.4108407315593 -334.4484147284925
2277.963599729752 302.86041375958064 -350.3661632948996
2443.479131749387 315.16486254466514 -364.71310089742053
2369.0336607188424 297.06607881661597 -343.862360708775
2574.112976573217 314.382226416642 -363.956243277651
2744.5785345298714 326.9371840536587 -378.73900888964977
2824.722460348276 328.76316094762075 -381.0047403448852
2900.9812551242326 330.40752984095525 -383.02427014663397
2986.5283197657322 333.64770513782526 -386.89700649386214
3070.1850233312452 336.586507986779 -390.47288213317177
3156.681322562787 340.03753025728804 -394.63651653246984
3238.9521650433558 343.22518806384227 -398.4968326535667
3130.2723654583706 326.7310293919146 -379.4731239499614
3207.595917840396 330.07805791530257 -383.5300773040822
3282.6582647468254 333.3770775797899 -387.5014093451844
3354.6878675829007 336.5459698712917 -391.30475555951193
3421.40343539643 339.3322765432765 -394.7068344507557
3670.611903696221 360.2164443355266 -419.1303243043998
3704.762023221841 360.00825445964205 -419.0334221370837
3709.6976220087367 357.21842743971627 -415.92672486399584
3678.369338830193 351.2493540087767 -409.07709051217756
3597.9331637781875 340.9087505351161 -397.1710667579036
3437.8885269886127 323.4100231788949 -376.94675133123087
3215.6504970341266 300.541701934034 -350.395879262618
2985.5380536137714 277.39223739321875 -323.49245358807605
2750.503972463362 254.29817241561653 -296.58998331360533
2492.6136357244345 229.35500417113752 -267.5600659791558
2237.6923299730174 205.02898666193218 -239.23404677346994