# vtk DataFile Version 4.0
[MyVLM domain - lattices] 
ASCII
DATASET UNSTRUCTURED_GRID
POINTS 152 float
0.0 -2.224430106385581 -0.31738683046912763
0.0 -4.0358931929091035 1.0029597229297607
0.0 -5.792823691600273 2.3243926679718516
0.0 -7.522814191486295 3.6140284375550036
0.0 -9.226085790652787 4.871603537241361
0.0 -10.878909351449062 6.1253972520752935
0.0 -12.461628819415601 7.398834755575161
0.0 -13.969170592349396 8.697962531393795
0.0 -15.432474814661722 9.98590755127367
0.0 -16.86421015990278 11.247571877997935
0.0 -18.264217086304292 12.483145646042095
0.0 -19.63226210600555 13.692907115402981
0.0 -20.96808844359527 14.877162299099492
0.0 -22.2695828901006 16.038429621516915
0.0 -23.538155285933968 17.17502890027876
0.0 -24.776896043482154 18.283277125320478
0.0 -25.98626518835035 19.362626059474383
0.0 -27.165504639182018 20.413979148920646
0.0 -28.3140682394946 21.43798727760944
0.0 -29.431956146779257 22.434650257850127
0.0 -30.51916851432115 23.403967906964557
0.0 -31.575705491199432 24.34594004728711
0.0 -32.60156722228728 25.260566506164672
0.0 -33.59675384825186 26.147847115956626
0.0 -34.56126550555434 27.00778171403488
0.0 -35.495102326449924 27.84037014278384
0.0 -36.39826443898778 28.645612249600433
0.0 -37.270751967011115 29.423507886894097
0.0 -38.11256605671534 30.174055688682326
0.0 -38.923720923860145 30.897238713282412
0.0 -39.704219458251664 31.593053516757532
0.0 -40.45405962583661 32.261502523198
0.0 -41.17323947250264 32.90258806142421
0.0 -41.86175712407837 33.51631236498664
0.0 -42.519610786333416 34.10267757216582
0.0 -43.146798744978305 34.66168572597237
0.0 -43.74304811571437 35.19366203724957
0.0 -44.30749598998851 35.69963488036569
0.0 -44.83877305161854 36.181236142800266
0.0 -45.336166964668706 36.63931475346381
0.0 -45.80017684370241 37.07327589078231
0.0 -46.23063937303586 37.48331418680865
0.0 -46.61998464878782 37.87845110168885
0.0 -46.96838451513014 38.258481839513784
0.0 -47.28157047590153 38.616575859992686
0.0 -47.563448389148014 38.94807834276705
0.0 -47.815007259660234 39.25181063782452
0.0 -48.03530158809238 39.52889954740727
0.0 -48.22516019515713 39.77835732145334
0.0 -48.38622507173355 39.99822711143362
0.0 -48.51991764276175 40.186814929069136
-0.7686761955390344 -0.13348998531095657 2.1744985707209317
-0.8409029948616161 -1.7514084232678107 3.7255026543765304
-0.8940476007249757 -3.3627632779016956 5.220425896218107
-0.9506443374492793 -4.937429492043142 6.695169941354488
-1.0210144815146838 -6.476334433116292 8.148629596326288
-1.048631451549771 -7.999095783934218 9.557425417162662
-0.9920275022819518 -9.519084135265173 10.905622954280433
-0.9074715353829097 -11.049200155463312 12.177847789821673
-0.8388231939293685 -12.563655601294073 13.404833155307864
-0.7803448823218929 -14.049352071174491 14.602189117882746
-0.7251531968841737 -15.504856738851917 15.771623253380476
-0.671766762046156 -16.928145882700605 16.915547339318945
-0.6188683613166902 -18.321937974959138 18.030721626641466
-0.5668565661826578 -19.687125780857155 19.116082159178255
-0.5162677046190278 -21.02317103251625 20.172270419607198
-0.4681223452427161 -22.326454287310405 21.203599891681026
-0.42442582165628834 -23.596559013936442 22.21056697807673
-0.3846819074085718 -24.83424604652133 23.19226495199014
-0.3476243488905531 -26.03999802484123 24.14811862573409
-0.3131098246080671 -27.213780073546648 25.078169562131613
-0.28048746260446866 -28.355532977086053 25.982488331528987
-0.2502235469699514 -29.465264305423883 26.861065912393908
-0.2227998260917326 -30.542973760651343 27.713902659760247
-0.19746739264611052 -31.588603448516274 28.54106756931101
-0.17533279734900953 -32.60217644512636 29.342533140011938
-0.15613374469432648 -33.58365511112287 30.11834422870405
-0.13998404755873647 -34.53301933623866 30.868524801870457
-0.12578653595324127 -35.45021602094216 31.593138141068682
-0.11250427274737486 -36.335206024815584 32.29223089203222
-0.10008179164308317 -37.187981653289654 32.96581222479165
-0.08845752889585208 -38.00853731411201 33.61388880393382
-0.07764231497362577 -38.79687008164636 34.236464116096286
-0.06766212708627829 -39.552977139205844 34.83354151807575
-0.0584684819534103 -40.27685429926986 35.405126000364895
-0.050013688763705585 -40.96849777752763 35.95122207292973
-0.042252254921319045 -41.627904189290796 36.471833769484746
-0.03513536582041269 -42.255282194357484 36.96671241896588
-0.028615518964613278 -42.85130330013416 37.435057750009044
-0.022687693716904638 -43.41777260382247 37.874718531539216
-0.017408965386693863 -43.955623777244284 38.28458205680833
-0.013252482528008399 -44.46333721818188 38.66645931721871
-0.010166684094042405 -44.94099056559106 39.020257786265816
-0.00760098697125575 -45.397554491365426 39.33528663349251
-0.005464879873870877 -45.83305828195456 39.611510956667246
-0.0039015967321000085 -46.24074145903478 39.85698758011995
-0.002883995165670249 -46.61612935242266 40.07704920811737
-0.0022477517166190047 -46.958429745440604 40.27263996773118
-0.00179874084072329 -47.26934044470817 40.441736491822965
-0.0014595970466816986 -47.54818297526036 40.585147355369756
-0.0012027506489664258 -47.79316353798655 40.70501032490604
-0.0010073243559101815 -48.00272930391849 40.803175989933415
-0.603592196400244 -1.4893773156288725 2.2981970709691275
-0.6506064733449719 -3.1464039985022367 3.770642255335691
-0.6917594768153456 -4.777027024115134 5.21065107728058
-0.7393720571114861 -6.373773969702174 6.6271288234798345
-0.7761172248991705 -7.94141072415667 8.014395728722938
-0.7652471076868961 -9.486884741057855 9.364172140247467
-0.712312139124323 -11.016956535493806 10.668401189909408
-0.6548605234921042 -12.530026584660408 11.928989114757009
-0.607188028594223 -14.016963498996274 13.156818281105428
-0.564561779702275 -15.473881709535787 14.356519329728712
-0.5238449845988737 -16.899435882120926 15.529695567442918
-0.48398817126106725 -18.293825265322507 16.676109539047964
-0.4446468478122555 -19.65810782514309 17.794500409759447
-0.4061716015506322 -20.992328577019347 18.884814532269004
-0.369146268698154 -22.295490911112008 19.948239619932988
-0.3347055625871267 -23.56652514194663 20.986050474258516
-0.3034153983993225 -24.80552312611321 21.998137624824455
-0.27461484611217185 -26.012788136595535 22.98413964496285
-0.24777531506198255 -27.188419835179687 23.943937762382085
-0.22259898270470088 -28.332382976624817 24.877573980724563
-0.19901662859040753 -29.4446582316313 25.785071335752544
-0.1773837648981315 -30.52524836396405 26.666426533739287
-0.15760020702669117 -31.57413158725525 27.52166553866688
-0.13980007124817 -32.59129487934177 28.350803869745043
-0.124299953266251 -33.576732812593995 29.153847995370835
-0.11104417209489861 -34.53042376344029 29.93082368551347
-0.09966396881699166 -35.452340309692666 30.681763620663993
-0.08935905326273105 -36.342448020124955 31.406708834359893
-0.07971977414642176 -37.2007312518614 32.10567796905454
-0.07070224520210072 -38.0271871605396 32.77867441452704
-0.06228744145105419 -38.82181265892042 33.42570185000572
-0.05448916577246402 -39.58460509511198 34.04676343589229
-0.04729897838988322 -40.31556136400101 34.641862872716594
-0.04068081401891846 -41.01467801760053 35.21100426962954
-0.03459972888188424 -41.68195192897087 35.75419135317269
-0.029020357778149403 -42.317425751454685 36.271373291071725
-0.023906581794384738 -42.92128757364722 36.762325928067504
-0.019238704755569217 -43.49418709418462 37.22627498347634
-0.015036247163849435 -44.036891144935936 37.66230658266334
-0.011498042968013347 -44.5491533493312 38.070714345790904
-0.00878218748326905 -45.03047494600713 38.45209267350557
-0.006662876649486808 -45.48328239908664 38.80354981847156
-0.004899700066922485 -45.91002593548474 39.12216571396024
-0.0035124287272390825 -46.30891927674996 39.41006916373351
-0.0025445969616638467 -46.676953912427734 39.67084557093396
-0.0019244050808584702 -47.012766617799755 39.90611956351715
-0.0015174347090033604 -47.31670242727487 40.11547994548678
-0.0012218767077768707 -47.58912900539439 40.29848855130485
-0.0009983803858680466 -47.82942810082893 40.45588218421429
-0.0008287781268287279 -48.0367276550263 40.58870012312764

CELLS 100 350
4 0 51 52 1
4 1 52 53 2
4 2 53 54 3
4 3 54 55 4
4 4 55 56 5
4 5 56 57 6
4 6 57 58 7
4 7 58 59 8
4 8 59 60 9
4 9 60 61 10
4 10 61 62 11
4 11 62 63 12
4 12 63 64 13
4 13 64 65 14
4 14 65 66 15
4 15 66 67 16
4 16 67 68 17
4 17 68 69 18
4 18 69 70 19
4 19 70 71 20
4 20 71 72 21
4 21 72 73 22
4 22 73 74 23
4 23 74 75 24
4 24 75 76 25
4 25 76 77 26
4 26 77 78 27
4 27 78 79 28
4 28 79 80 29
4 29 80 81 30
4 30 81 82 31
4 31 82 83 32
4 32 83 84 33
4 33 84 85 34
4 34 85 86 35
4 35 86 87 36
4 36 87 88 37
4 37 88 89 38
4 38 89 90 39
4 39 90 91 40
4 40 91 92 41
4 41 92 93 42
4 42 93 94 43
4 43 94 95 44
4 44 95 96 45
4 45 96 97 46
4 46 97 98 47
4 47 98 99 48
4 48 99 100 49
4 49 100 101 50
1 102
1 103
1 104
1 105
1 106
1 107
1 108
1 109
1 110
1 111
1 112
1 113
1 114
1 115
1 116
1 117
1 118
1 119
1 120
1 121
1 122
1 123
1 124
1 125
1 126
1 127
1 128
1 129
1 130
1 131
1 132
1 133
1 134
1 135
1 136
1 137
1 138
1 139
1 140
1 141
1 142
1 143
1 144
1 145
1 146
1 147
1 148
1 149
1 150
1 151

CELL_TYPES 100
9
9
9
9
9
9
9
9
9
9
9
9
9
9
9
9
9
9
9
9
9
9
9
9
9
9
9
9
9
9
9
9
9
9
9
9
9
9
9
9
9
9
9
9
9
9
9
9
9
9
1
1
1
1
1
1
1
1
1
1
1
1
1
1
1
1
1
1
1
1
1
1
1
1
1
1
1
1
1
1
1
1
1
1
1
1
1
1
1
1
1
1
1
1
1
1
1
1
1
1

CELL_DATA 100

VECTORS S float
-0.0 -0.0 0.0
-2.8045172934890797e-17 -4.602956485457373e-15 5.4128645831394796e-15
-6.514116016861283e-17 -9.191701856690703e-15 1.0837747244863187e-14
-0.0 -0.0 0.0
4.589063054347058e-17 -1.8469196113605256e-14 2.160278352235038e-14
0.0 -0.0 0.0
0.0 -0.0 0.0
3.5066443506409e-17 -1.8416008510660838e-14 2.1648163151318946e-14
0.0 -0.0 0.0
0.0 -0.0 0.0
0.0 -0.0 0.0
0.0 -0.0 0.0
7.774938541434741e-17 -3.6766438143135575e-14 4.335201551352968e-14
7.314746573996424e-17 -3.6757039412166926e-14 4.3359992745455196e-14
0.0 -0.0 0.0
6.203952950628434e-17 -3.674242580706745e-14 4.337239403922946e-14
1.1424741157256188e-16 -7.347409518882305e-14 8.675391261985695e-14
2.700724010412416e-17 -1.83664552617917e-14 2.1690231872248444e-14
-4.989759783016258e-17 3.672933031810538e-14 -4.338350000171148e-14
-4.800552238796435e-17 3.672674669486657e-14 -4.3385689351054366e-14
0.0 -0.0 0.0
-2.138668997717039e-17 1.8361366669065482e-14 -2.169454594131758e-14
-2.0846407203934058e-17 1.8360743948902187e-14 -2.1695073496452475e-14
-4.039526071243762e-17 3.6719347231563415e-14 -4.339195979552033e-14
0.0 -0.0 0.0
0.0 -0.0 0.0
1.832903420522122e-17 -1.8359645345891915e-14 2.16960054794861e-14
0.0 -0.0 0.0
1.764859660530442e-17 -1.836028375187784e-14 2.1695465794121232e-14
3.425124929857928e-17 -3.671886344628428e-14 4.339237446660777e-14
0.0 -0.0 0.0
0.0 -0.0 0.0
-1.6008605373886708e-17 1.8357229705351548e-14 -2.169805125387598e-14
0.0 -0.0 0.0
-3.040994603591968e-17 3.671033904440597e-14 -4.3399589286826305e-14
0.0 -0.0 0.0
-2.901213013356609e-17 3.6705995430723845e-14 -4.3403263996170266e-14
0.0 -0.0 0.0
-2.777021612643961e-17 3.670156414951669e-14 -4.340701194023002e-14
1.357430531082906e-17 -1.8349679900000852e-14 2.170443803124274e-14
4.0108398451105637e-17 -5.504582294605196e-14 6.511603389354361e-14
0.0 -0.0 0.0
0.0 -0.0 0.0
-2.475419038840529e-17 3.6691073573952635e-14 -4.34158815988587e-14
-1.2145081124617559e-17 1.8344618705852915e-14 -2.1708716774148397e-14
0.0 -0.0 0.0
0.0 -0.0 0.0
-2.327290209796888e-17 3.6684130774330853e-14 -4.342174887644537e-14
-1.1545337472130659e-17 1.834161827836427e-14 -2.171125221129064e-14
0.0 -0.0 0.0
-0.0 -0.0 0.0
-2.8045172934890797e-17 -4.602956485457373e-15 5.4128645831394796e-15
-6.514116016861283e-17 -9.191701856690703e-15 1.0837747244863187e-14
-0.0 -0.0 0.0
4.589063054347058e-17 -1.8469196113605256e-14 2.160278352235038e-14
0.0 -0.0 0.0
0.0 -0.0 0.0
3.5066443506409e-17 -1.8416008510660838e-14 2.1648163151318946e-14
0.0 -0.0 0.0
0.0 -0.0 0.0
0.0 -0.0 0.0
0.0 -0.0 0.0
7.774938541434741e-17 -3.6766438143135575e-14 4.335201551352968e-14
7.314746573996424e-17 -3.6757039412166926e-14 4.3359992745455196e-14
0.0 -0.0 0.0
6.203952950628434e-17 -3.674242580706745e-14 4.337239403922946e-14
1.1424741157256188e-16 -7.347409518882305e-14 8.675391261985695e-14
2.700724010412416e-17 -1.83664552617917e-14 2.1690231872248444e-14
-4.989759783016258e-17 3.672933031810538e-14 -4.338350000171148e-14
-4.800552238796435e-17 3.672674669486657e-14 -4.3385689351054366e-14
0.0 -0.0 0.0
-2.138668997717039e-17 1.8361366669065482e-14 -2.169454594131758e-14
-2.0846407203934058e-17 1.8360743948902187e-14 -2.1695073496452475e-14
-4.039526071243762e-17 3.6719347231563415e-14 -4.339195979552033e-14
0.0 -0.0 0.0
0.0 -0.0 0.0
1.832903420522122e-17 -1.8359645345891915e-14 2.16960054794861e-14
0.0 -0.0 0.0
1.764859660530442e-17 -1.836028375187784e-14 2.1695465794121232e-14
3.425124929857928e-17 -3.671886344628428e-14 4.339237446660777e-14
0.0 -0.0 0.0
0.0 -0.0 0.0
-1.6008605373886708e-17 1.8357229705351548e-14 -2.169805125387598e-14
0.0 -0.0 0.0
-3.040994603591968e-17 3.671033904440597e-14 -4.3399589286826305e-14
0.0 -0.0 0.0
-2.901213013356609e-17 3.6705995430723845e-14 -4.3403263996170266e-14
0.0 -0.0 0.0
-2.777021612643961e-17 3.670156414951669e-14 -4.340701194023002e-14
1.357430531082906e-17 -1.8349679900000852e-14 2.170443803124274e-14
4.0108398451105637e-17 -5.504582294605196e-14 6.511603389354361e-14
0.0 -0.0 0.0
0.0 -0.0 0.0
-2.475419038840529e-17 3.6691073573952635e-14 -4.34158815988587e-14
-1.2145081124617559e-17 1.8344618705852915e-14 -2.1708716774148397e-14
0.0 -0.0 0.0
0.0 -0.0 0.0
-2.327290209796888e-17 3.6684130774330853e-14 -4.342174887644537e-14
-1.1545337472130659e-17 1.834161827836427e-14 -2.171125221129064e-14
0.0 -0.0 0.0

SCALARS Gamma float
LOOKUP_TABLE default
-0.0
-0.0
-0.0
55.00662277764636
60.65725937018195
60.08726268545536
56.87997262664661
51.460781173409416
47.411038361393736
50.95099033823902
58.917583445446
59.63828147071194
56.838589748999006
52.18632577326114
51.07886821508662
50.18185735708672
46.54160624322519
44.075107497255715
39.34208526080667
39.78681781152561
38.93451527523436
40.06236464182812
41.172753609704955
38.4712840260575
40.35725066835509
41.66623841958604
41.62478348474978
41.5878016952493
41.69329089169881
41.817218288619884
42.01487685028965
42.191006207953436
39.98732906560975
40.196256716820265
40.41582680008402
40.63198145403978
40.79670283732306
43.14047769850099
42.96005041680705
42.48381568232508
41.654700196006836
40.31050060643172
38.12802815285761
35.34507719490777
32.55502535695224
29.7779663978127
26.812043056270234
23.92799811134392
21.05658695408681
18.39121390979973
-0.0
-0.0
-0.0
55.00662277764636
60.65725937018195
60.08726268545536
56.87997262664661
51.460781173409416
47.411038361393736
50.95099033823902
58.917583445446
59.63828147071194
56.838589748999006
52.18632577326114
51.07886821508662
50.18185735708672
46.54160624322519
44.075107497255715
39.34208526080667
39.78681781152561
38.93451527523436
40.06236464182812
41.172753609704955
38.4712840260575
40.35725066835509
41.66623841958604
41.62478348474978
41.5878016952493
41.69329089169881
41.817218288619884
42.01487685028965
42.191006207953436
39.98732906560975
40.196256716820265
40.41582680008402
40.63198145403978
40.79670283732306
43.14047769850099
42.96005041680705
42.48381568232508
41.654700196006836
40.31050060643172
38.12802815285761
35.34507719490777
32.55502535695224
29.7779663978127
26.812043056270234
23.92799811134392
21.05658695408681
18.39121390979973

VECTORS Ftot float
128.56970283460456 -31.983094129022106 -26.837002487570704
153.45871193607692 -70.52617831089694 -59.17849020901676
155.7250961694691 -103.77382383382206 -87.0765773048162
1450.630941328119 -4.986149030280703 -4.183875812303494
1481.0773200392234 198.55652569550884 166.60870747894376
1564.5008476678522 247.71635816859956 207.8587047758511
1628.732150944063 232.54098047294292 195.12505094844968
1601.3890631082468 223.68703780211695 187.69571091889478
1587.0772107660944 234.05024288026274 196.39147247778146
1812.279013368016 313.083151693741 262.7079571140387
2230.8925972424063 418.23734894089745 350.9428052408707
2403.9284481198947 460.17387413393516 386.1317280632054
2424.0840404802443 483.5344361892866 405.7335670679448
2355.8135434564447 461.1412386367272 386.9434432607122
2437.1220795226036 450.3139973194221 377.8583090646941
2517.864986921738 448.01378573462347 375.9282023722598
2449.801143297165 412.2485829104368 345.9176338735042
2423.6080735066716 393.85693631823887 330.485210001248
2256.3468980497814 345.0905246511297 289.5653319575373
2370.102452471973 353.53365734242124 296.6499614847808
2403.3211841926286 350.619163193925 294.20441051970926
2561.7332796382893 347.895529711099 291.91901066880786
2716.605629842341 362.0572508318153 303.80210563803644
2614.81182152181 341.6440257867717 286.67337603160155
2820.378592864108 362.4055999276736 304.09440523589205
2992.0687522101907 366.4818689390261 307.51480105989737
3065.355748798709 363.57430887552533 305.07506848298806
3135.604049505025 363.4255967749228 304.95028421422086
3213.532122392097 364.4261512729041 305.78984912444974
3291.3922773532586 365.619172696359 306.7909129608573
3372.839297747401 367.9852994769925 308.7763290698056
3450.5150617322256 370.1316761805858 310.57735297015824
3327.3370341727377 354.15557270863513 297.17181043919436
3400.362440149449 355.9457518581759 298.6739491033153
3472.0163051129366 359.42246486727277 301.5912577069577
3541.1221497758856 364.2755796142286 305.6635045011894
3604.3643029200402 365.2056350894728 306.4439137074412
3859.902113968869 388.19613381973153 325.73523271258307
3889.539966028484 387.4829421118222 325.1367938135176
3889.0501170289645 383.9525482906069 322.17444166022534
3851.8651368617207 379.60349990663974 318.52515676526633
3763.0966514671154 367.2639213569409 308.17102095533096
3591.2510541888596 343.65433051356456 288.36022198640734
3355.821043976933 318.49386619793637 267.24808565891465
3113.4167232545715 293.4800882146622 246.2590337787989
2866.001613227655 271.5066837530903 227.8211581993847
2595.727609115213 244.3380733746483 205.02398725123476
2328.604566596213 217.68144405613913 182.65641942164422
2058.2218202855393 192.07817072757058 161.17272221471123
1804.6366186946414 167.57887314383478 140.61537064809608
128.56970283460456 -31.983094129022106 -26.837002487570704
153.45871193607692 -70.52617831089694 -59.17849020901676
155.7250961694691 -103.77382383382206 -87.0765773048162
1450.630941328119 -4.986149030280703 -4.183875812303494
1481.0773200392234 198.55652569550884 166.60870747894376
1564.5008476678522 247.71635816859956 207.8587047758511
1628.732150944063 232.54098047294292 195.12505094844968
1601.3890631082468 223.68703780211695 187.69571091889478
1587.0772107660944 234.05024288026274 196.39147247778146
1812.279013368016 313.083151693741 262.7079571140387
2230.8925972424063 418.23734894089745 350.9428052408707
2403.9284481198947 460.17387413393516 386.1317280632054
2424.0840404802443 483.5344361892866 405.7335670679448
2355.8135434564447 461.1412386367272 386.9434432607122
2437.1220795226036 450.3139973194221 377.8583090646941
2517.864986921738 448.01378573462347 375.9282023722598
2449.801143297165 412.2485829104368 345.9176338735042
2423.6080735066716 393.85693631823887 330.485210001248
2256.3468980497814 345.0905246511297 289.5653319575373
2370.102452471973 353.53365734242124 296.6499614847808
2403.3211841926286 350.619163193925 294.20441051970926
2561.7332796382893 347.895529711099 291.91901066880786
2716.605629842341 362.0572508318153 303.80210563803644
2614.81182152181 341.6440257867717 286.67337603160155
2820.378592864108 362.4055999276736 304.09440523589205
2992.0687522101907 366.4818689390261 307.51480105989737
3065.355748798709 363.57430887552533 305.07506848298806
3135.604049505025 363.4255967749228 304.95028421422086
3213.532122392097 364.4261512729041 305.78984912444974
3291.3922773532586 365.619172696359 306.7909129608573
3372.839297747401 367.9852994769925 308.7763290698056
3450.5150617322256 370.1316761805858 310.57735297015824
3327.3370341727377 354.15557270863513 297.17181043919436
3400.362440149449 355.9457518581759 298.6739491033153
3472.0163051129366 359.42246486727277 301.5912577069577
3541.1221497758856 364.2755796142286 305.6635045011894
3604.3643029200402 365.2056350894728 306.4439137074412
3859.902113968869 388.19613381973153 325.73523271258307
3889.539966028484 387.4829421118222 325.1367938135176
3889.0501170289645 383.9525482906069 322.17444166022534
3851.8651368617207 379.60349990663974 318.52515676526633
3763.0966514671154 367.2639213569409 308.17102095533096
3591.2510541888596 343.65433051356456 288.36022198640734
3355.821043976933 318.49386619793637 267.24808565891465
3113.4167232545715 293.4800882146622 246.2590337787989
2866.001613227655 271.5066837530903 227.8211581993847
2595.727609115213 244.3380733746483 205.02398725123476
2328.604566596213 217.68144405613913 182.65641942164422
2058.2218202855393 192.07817072757058 161.17272221471123
1804.6366186946414 167.57887314383478 140.61537064809608

VECTORS D float
104.03650762549866 25.447617863444933 22.231594319475008
72.22532276419874 32.82664193837737 28.28912006226992
21.561927523878516 14.24161092250936 12.208183817516506
630.9837462952839 544.1960741272862 465.1613383194939
626.5988606063066 663.9820149087468 566.3371583475583
564.7495119166894 708.1874927612228 603.2393672036064
480.38024923922745 693.0359713681146 589.5223061545485
400.35264891081704 651.2698789054256 553.3842573790753
349.49171008102337 631.1577972352329 535.8379946523687
371.1003298644142 734.838609560175 623.4449846641435
421.30640833436337 906.0043465461488 768.144542745561
414.3333614298285 958.5949526235321 812.6190238859696
388.50156277192866 960.7028360132691 814.0663177578145
344.46946181634144 905.045534297986 766.6421325525779
321.2769897972659 892.2680613420096 755.6081384632262
303.70337348959174 887.6199371154735 751.5026272346728
269.3966056238826 825.3492763742238 698.6545229038333
246.45524386284197 788.7818368118852 667.6032937988311
210.46464904763008 701.5188401623225 593.6776775332648
206.9500284804931 716.4231666410654 606.235784581258
197.37001115195886 707.8529066529064 598.9414717629857
193.94097916214113 718.9442873371603 608.2935293750097
194.89137804780344 745.1876919257755 630.472057286732
178.284611249544 701.4397578033089 593.4096615315651
183.49946342618023 741.503158926472 627.3178830270914
183.51101894160863 760.3202820949773 643.2462116539704
178.95588006510903 758.9876342501374 642.1211366062533
175.36497972080764 760.1941611950404 643.1377424590465
172.74027481943256 763.9052444783006 646.3317523489663
170.35460130701463 767.9083122832753 649.6737260085121
168.61063183696015 773.7311516523927 654.5526572529104
166.98023322423438 779.1013616541045 659.0457068886051
156.82972261373027 743.0475850553747 628.5257793965199
155.67221628540943 748.2820213957635 632.8982151823552
155.0139819916235 755.1938346162543 638.6859461500574
154.74167057441844 763.3468762435386 645.5201825671381
153.72767583148553 767.205564314 648.7204274149443
161.451375181848 814.4912866715524 688.6357503554344
159.58711459795776 813.1810786026591 687.4600305115395
156.72855886429048 806.0454686727404 681.3605969615261
153.14401309179564 794.3757709957164 671.4310296177491
147.2063381294726 769.6150907109064 650.4410130596724
137.71701817101038 725.2275687704519 612.8707148136505
126.94620323889549 672.936652021768 568.6312208872657
116.36247353455599 620.5423370449056 524.3147004341175
106.53819992788306 571.1095987477935 482.4994887054247
95.51710870427699 514.5091731681745 434.6506360924664
84.87238874834338 459.1255174067881 387.83894549038234
74.57740538580097 404.81564670570594 341.9477131683563
64.93335073706253 353.5788794410611 298.65448142534024
104.03650762549866 25.447617863444933 22.231594319475008
72.22532276419874 32.82664193837737 28.28912006226992
21.561927523878516 14.24161092250936 12.208183817516506
630.9837462952839 544.1960741272862 465.1613383194939
626.5988606063066 663.9820149087468 566.3371583475583
564.7495119166894 708.1874927612228 603.2393672036064
480.38024923922745 693.0359713681146 589.5223061545485
400.35264891081704 651.2698789054256 553.3842573790753
349.49171008102337 631.1577972352329 535.8379946523687
371.1003298644142 734.838609560175 623.4449846641435
421.30640833436337 906.0043465461488 768.144542745561
414.3333614298285 958.5949526235321 812.6190238859696
388.50156277192866 960.7028360132691 814.0663177578145
344.46946181634144 905.045534297986 766.6421325525779
321.2769897972659 892.2680613420096 755.6081384632262
303.70337348959174 887.6199371154735 751.5026272346728
269.3966056238826 825.3492763742238 698.6545229038333
246.45524386284197 788.7818368118852 667.6032937988311
210.46464904763008 701.5188401623225 593.6776775332648
206.9500284804931 716.4231666410654 606.235784581258
197.37001115195886 707.8529066529064 598.9414717629857
193.94097916214113 718.9442873371603 608.2935293750097
194.89137804780344 745.1876919257755 630.472057286732
178.284611249544 701.4397578033089 593.4096615315651
183.49946342618023 741.503158926472 627.3178830270914
183.51101894160863 760.3202820949773 643.2462116539704
178.95588006510903 758.9876342501374 642.1211366062533
175.36497972080764 760.1941611950404 643.1377424590465
172.74027481943256 763.9052444783006 646.3317523489663
170.35460130701463 767.9083122832753 649.6737260085121
168.61063183696015 773.7311516523927 654.5526572529104
166.98023322423438 779.1013616541045 659.0457068886051
156.82972261373027 743.0475850553747 628.5257793965199
155.67221628540943 748.2820213957635 632.8982151823552
155.0139819916235 755.1938346162543 638.6859461500574
154.74167057441844 763.3468762435386 645.5201825671381
153.72767583148553 767.205564314 648.7204274149443
161.451375181848 814.4912866715524 688.6357503554344
159.58711459795776 813.1810786026591 687.4600305115395
156.72855886429048 806.0454686727404 681.3605969615261
153.14401309179564 794.3757709957164 671.4310296177491
147.2063381294726 769.6150907109064 650.4410130596724
137.71701817101038 725.2275687704519 612.8707148136505
126.94620323889549 672.936652021768 568.6312208872657
116.36247353455599 620.5423370449056 524.3147004341175
106.53819992788306 571.1095987477935 482.4994887054247
95.51710870427699 514.5091731681745 434.6506360924664
84.87238874834338 459.1255174067881 387.83894549038234
74.57740538580097 404.81564670570594 341.9477131683563
64.93335073706253 353.5788794410611 298.65448142534024

VECTORS L float
24.533195209105894 -57.430711992467046 -49.06859680704571
81.23338917187819 -103.35282024927432 -87.46761027128669
134.16316864559062 -118.01543475633146 -99.28476112233272
819.6471950328352 -549.1822231575671 -469.34521413179766
854.4784594329168 -465.4254892132381 -399.72845086861463
999.7513357511627 -460.4711345926233 -395.3806624277555
1148.3519017048357 -460.49499089517184 -394.3972552060988
1201.03641419743 -427.58284110330885 -365.68854646018065
1237.5855006850713 -397.1075543549701 -339.4465221745872
1441.1786835036023 -421.7554578664338 -360.7370275501048
1809.5861889080431 -487.7669976052514 -417.2017375046902
1989.5950866900666 -498.42107848959705 -426.4872958227641
2035.5824777083153 -477.1683998239824 -408.3327506898695
2011.3440816401035 -443.90429566125897 -379.6986892918658
2115.845089725338 -441.9540640225873 -377.74982939853214
2214.1616134321466 -439.60615138085024 -375.57442486241314
2180.4045376732824 -413.1006934637869 -352.7368890303289
2177.15282964383 -394.92490049364653 -337.1180837975832
2045.8822490021519 -356.4283155111928 -304.1123455757276
2163.15242399148 -362.8895092986442 -309.58582309647727
2205.9511730406703 -357.2337434589816 -304.7370612432764
2367.7923004761487 -371.04875762606133 -316.3745187062018
2521.7142517945376 -383.1304410939603 -326.66995164869576
2436.5272102722656 -359.79573201653716 -306.7362854999635
2636.8791294379284 -379.09755899879855 -323.2234777911995
2808.5577332685825 -393.8384131559513 -335.7314105940731
2886.3998687336 -395.41332537461227 -337.0460681232653
2960.2390697842184 -396.7685644201177 -338.1874582448256
3040.791847572664 -399.4790932053965 -340.54190322451666
3121.037676046244 -402.2891395869161 -342.88281304765445
3204.2286659104416 -405.74585217540005 -345.77632818310474
3283.5348285079913 -408.96968547351884 -348.46835391844695
3170.507311559008 -388.8920123467395 -331.3539689573254
3244.690223864041 -392.3362695375879 -334.22426607904015
3317.002323121313 -395.7713697489813 -337.0946884430996
3386.380479201466 -399.07129662931 -339.85667806594864
3450.6366270885555 -401.99992922452736 -342.2765137075032
3698.4507387870226 -426.29515285182094 -362.9005176428515
3729.952851430526 -425.698136490837 -362.32323669802184
3732.3215581646746 -422.09292038213374 -359.186155301301
3698.721123769925 -414.77227108907664 -352.90587285248273
3615.890313337642 -402.35116935396576 -342.26999210434155
3453.5340360178507 -381.57323825688724 -324.51049282724307
3228.8748407380376 -354.44278582383185 -301.38313522835114
2997.0542497200167 -327.06224883024333 -278.05566665531876
2759.463413299772 -299.6029149947032 -254.67833050603994
2500.210500410936 -270.17109979352614 -229.6266488412316
2243.7321778478695 -241.44407335064906 -205.1825260687382
1983.6444148997382 -212.73747597813542 -180.7749909536452
1739.7032679575793 -186.00000629722635 -158.03911077724416
24.533195209105894 -57.430711992467046 -49.06859680704571
81.23338917187819 -103.35282024927432 -87.46761027128669
134.16316864559062 -118.01543475633146 -99.28476112233272
819.6471950328352 -549.1822231575671 -469.34521413179766
854.4784594329168 -465.4254892132381 -399.72845086861463
999.7513357511627 -460.4711345926233 -395.3806624277555
1148.3519017048357 -460.49499089517184 -394.3972552060988
1201.03641419743 -427.58284110330885 -365.68854646018065
1237.5855006850713 -397.1075543549701 -339.4465221745872