# vtk DataFile Version 4.0
[MyVLM domain - lattices] 
ASCII
DATASET UNSTRUCTURED_GRID
POINTS 152 float
0.0 -0.6988332456712769 2.1355223700758232
0.0 0.2868970128931596 4.148741034866123
0.0 1.28316664287118 6.108444234296378
0.0 2.25280024963221 8.036095192463783
0.0 3.195499948531323 9.931865893148272
0.0 4.143235920240505 11.777298343932834
0.0 5.1224906952933065 13.557102848685101
0.0 6.140099919446264 15.267332845487454
0.0 7.154378048900554 16.932055494273456
0.0 8.148256625955083 18.561125273691488
0.0 9.121950600652763 20.154418082276408
0.0 10.07577455033735 21.71175229871412
0.0 11.010074427584614 23.232928187191877
0.0 11.927697351141727 24.716301962934587
0.0 12.826743848159428 26.16297028710308
0.0 13.703050217292525 27.575337073789846
0.0 14.55599666771977 28.953760159392342
0.0 15.3866045596899 30.29764986129606
0.0 16.19560972784129 31.606581345174426
0.0 16.98301195998668 32.88055473353383
0.0 17.748811049605532 34.11957014560894
0.0 18.493006795844035 35.32362769736277
0.0 19.2155990035151 36.49272750148664
0.0 19.916587483098358 37.626869667400186
0.0 20.595972050740162 38.726054301251345
0.0 21.253752528253585 39.79028150591641
0.0 21.889928743118432 40.819551380999954
0.0 22.504500528481216 41.813864022834885
0.0 23.097466340077048 42.773220323002946
0.0 23.668807025064662 43.69763133940219
0.0 24.21851869001882 44.58709931990275
0.0 24.746604075412105 45.44162268229202
0.0 25.25306581401294 46.26119990654045
0.0 25.737906430885584 47.04582953480151
0.0 26.201128343390135 47.795510171411706
0.0 26.642733861182535 48.510240482890545
0.0 27.063090640283782 49.18980820293534
0.0 27.463361274242498 49.833542107847826
0.0 27.845390637760225 50.44037705872247
0.0 28.210138458446956 51.00975895656528
0.0 28.55693228107056 51.542076043585546
0.0 28.885992140256548 52.03720128273299
0.0 29.207516939914345 52.489246334090076
0.0 29.521275155017527 52.89834486869312
0.0 29.81954475133364 53.268955205084964
0.0 30.09706338055281 53.60411556147882
0.0 30.352498560125206 53.904595247033576
0.0 30.587124157873387 54.16965879381892
0.0 30.799823506671956 54.39995090990033
0.0 30.988384358194054 54.59674883744484
0.0 31.1508916317985 54.76115824877612
-0.7686761955390344 2.118282758673883 0.5090596866287463
-0.8409029948616161 3.364775016846562 2.3717273407508026
-0.8940476007249757 4.557178181488341 4.218192791145825
-0.9506443374492793 5.736079632327871 6.0250229032017755
-1.0210144815146838 6.900229930614547 7.79293904071765
-1.048631451549771 8.023198243794226 9.537201051983494
-0.9920275022819518 9.086970423656176 11.268209410317994
-0.9074715353829097 10.074165446745473 12.995999054291632
-0.8388231939293685 11.01952771918251 14.70051029167798
-0.7803448823218929 11.94070466968071 16.371554374758833
-0.7251531968841737 12.839626739828095 18.008016762563688
-0.671766762046156 13.71902048239524 19.608323279116494
-0.6188683613166902 14.575223309643038 21.17458852043436
-0.5668565661826578 15.407032402231415 22.707506934587062
-0.5162677046190278 16.215172966511144 24.20665982349276
-0.4681223452427161 17.0045214643406 25.669231760584832
-0.42442582165628834 17.775639086826427 27.09489874202679
-0.3846819074085718 18.52750076492236 28.484252591708433
-0.3476243488905531 19.259456239817045 29.837668736729537
-0.3131098246080671 19.97155249894173 31.155120048884026
-0.28048746260446866 20.663869323193175 32.436560466649674
-0.2502235469699514 21.336396513585882 33.6819958784135
-0.2227998260917326 21.98913447149129 34.89142605244361
-0.19746739264611052 22.622161197624322 36.06480595500624
-0.17533279734900953 23.23544560162919 37.20215353612667
-0.15613374469432648 23.829038394876754 38.30343951758129
-0.13998404755873647 24.402966671856632 39.368648256359215
-0.12578653595324127 24.95730197337419 40.397738448357224
-0.11250427274737486 25.492097033171643 41.39067964773504
-0.10008179164308317 26.007362218114114 42.3474658691803
-0.08845752889585208 26.503105062622865 43.26809276269285
-0.07764231497362577 26.979329508396983 44.15255805253168
-0.06766212708627829 27.436039350348423 45.00085954770333
-0.0584684819534103 27.87324023030842 45.81299399089504
-0.050013688763705585 28.290937246865095 46.58895843843557
-0.042252254921319045 28.68913496019674 47.32875025750475
-0.03513536582041269 29.067552243717827 48.03253175661243
-0.028615518964613278 29.425284377947055 48.70082527579466
-0.022687693716904638 29.75989936200364 49.33503493141465
-0.017408965386693863 30.070139263244858 49.93588699122229
-0.013252482528008399 30.358051436200242 50.50219941452883
-0.010166684094042405 30.62353127818756 51.03403259372101
-0.00760098697125575 30.854492635659728 51.53836447280271
-0.005464879873870877 31.0508960510899 52.01521783258767
-0.0039015967321000085 31.22184989228394 52.45933395447131
-0.002883995165670249 31.373382866071253 52.867232162942784
-0.0022477517166190047 31.506562323094247 53.23829622282141
-0.00179874084072329 31.61910081468228 53.57384679321291
-0.0014595970466816986 31.711912447682913 53.87335611428278
-0.0012027506489664258 31.787414001100085 54.13542885802255
-0.0010073243559101815 31.847697595743185 54.35885713791972
-0.603592196400244 2.0046546367229023 1.865828060885074
-0.6506064733449719 3.166990406346131 3.753368208106547
-0.6917594768153456 4.301967541744003 5.609273313725369
-0.7393720571114861 5.419653610873849 7.427730864671291
-0.7761172248991705 6.513627548999767 9.212448064398068
-0.7652471076868961 7.574529077235627 10.9688290724403
-0.712312139124323 8.593249778243065 12.702132636000178
-0.6548605234921042 9.571944683266347 14.41111454720872
-0.607188028594223 10.522916480180662 16.08867184590942
-0.564561779702275 11.451400181891783 17.731782095991928
-0.5238449845988737 12.359208352207515 19.339398813253883
-0.48398817126106725 13.2460725442546 20.91167698556982
-0.4446468478122555 14.110567364293711 22.449439564398837
-0.4061716015506322 14.952632163191105 23.95272156553464
-0.369146268698154 15.773609669750897 25.42074776414071
-0.3347055625871267 16.57494106731417 26.852686092627135
-0.3034153983993225 17.356502597832005 28.248608002736756
-0.27461484611217185 18.117885662718678 29.608749398973043
-0.24777531506198255 18.858955988013037 30.933187804443616
-0.22259898270470088 19.579761059499614 32.22189580321798
-0.19901662859040753 20.280326919473342 33.47485835977015
-0.1773837648981315 20.960649844323832 34.6920776239276
-0.15760020702669117 21.62075918674504 35.873536648904555
-0.13980007124817 22.26067249144988 37.019225305256285
-0.124299953266251 22.880397071063946 38.12913937103646
-0.11104417209489861 23.479962058946523 39.20326202609223
-0.09966396881699166 24.059404400911514 40.24157193974801
-0.08935905326273105 24.618770486024466 41.244042329264325
-0.07971977414642176 25.158081389874873 42.21066102664389
-0.07070224520210072 25.6773409446618 43.14142581936555
-0.06228744145105419 26.176553309811307 44.036334305983544
-0.05448916577246402 26.655722058207658 44.895384423692185
-0.04729897838988322 27.114851373358633 45.71857375714214
-0.04068081401891846 27.55394590072453 46.50589962427563
-0.03459972888188424 27.97300985321977 47.2573595927654
-0.029020357778149403 28.37198576415125 47.97298684102217
-0.023906581794384738 28.750620222440116 48.652927676000544
-0.019238704755569217 29.10803789148185 49.297687473524775
-0.015036247163849435 29.443205621494087 49.90786272289983
-0.011498042968013347 29.7564553547316 50.48326177717553
-0.00878218748326905 30.04845907056131 51.02349666888351
-0.006662876649486808 30.315947602714097 51.53045485204928
-0.004899700066922485 30.555619769397595 52.006042264869286
-0.0035124287272390825 30.769882217059084 52.44886942936939
-0.0025445969616638467 30.962788300869004 52.85659613985076
-0.0019244050808584702 31.136174688521812 53.22816199572562
-0.0015174347090033604 31.289576516416023 53.563835386119415
-0.0012218767077768707 31.422498431455114 53.86390230327579
-0.0009983803858680466 31.535773401401876 54.127881833032646
-0.0008287781268287279 31.630576347565295 54.355095634255974

CELLS 100 350
4 0 51 52 1
4 1 52 53 2
4 2 53 54 3
4 3 54 55 4
4 4 55 56 5
4 5 56 57 6
4 6 57 58 7
4 7 58 59 8
4 8 59 60 9
4 9 60 61 10
4 10 61 62 11
4 11 62 63 12
4 12 63 64 13
4 13 64 65 14
4 14 65 66 15
4 15 66 67 16
4 16 67 68 17
4 17 68 69 18
4 18 69 70 19
4 19 70 71 20
4 20 71 72 21
4 21 72 73 22
4 22 73 74 23
4 23 74 75 24
4 24 75 76 25
4 25 76 77 26
4 26 77 78 27
4 27 78 79 28
4 28 79 80 29
4 29 80 81 30
4 30 81 82 31
4 31 82 83 32
4 32 83 84 33
4 33 84 85 34
4 34 85 86 35
4 35 86 87 36
4 36 87 88 37
4 37 88 89 38
4 38 89 90 39
4 39 90 91 40
4 40 91 92 41
4 41 92 93 42
4 42 93 94 43
4 43 94 95 44
4 44 95 96 45
4 45 96 97 46
4 46 97 98 47
4 47 98 99 48
4 48 99 100 49
4 49 100 101 50
1 102
1 103
1 104
1 105
1 106
1 107
1 108
1 109
1 110
1 111
1 112
1 113
1 114
1 115
1 116
1 117
1 118
1 119
1 120
1 121
1 122
1 123
1 124
1 125
1 126
1 127
1 128
1 129
1 130
1 131
1 132
1 133
1 134
1 135
1 136
1 137
1 138
1 139
1 140
1 141
1 142
1 143
1 144
1 145
1 146
1 147
1 148
1 149
1 150
1 151

CELL_TYPES 100
9
9
9
9
9
9
9
9
9
9
9
9
9
9
9
9
9
9
9
9
9
9
9
9
9
9
9
9
9
9
9
9
9
9
9
9
9
9
9
9
9
9
9
9
9
9
9
9
9
9
1
1
1
1
1
1
1
1
1
1
1
1
1
1
1
1
1
1
1
1
1
1
1
1
1
1
1
1
1
1
1
1
1
1
1
1
1
1
1
1
1
1
1
1
1
1
1
1
1
1

CELL_DATA 100

VECTORS S float
1.48746221953785e-17 -2.250239652219629e-15 -2.7491771017395763e-15
-0.0 0.0 0.0
5.206021822697112e-17 -4.5235987237660194e-15 -5.479182626465864e-15
-1.4303429220377e-19 -5.607661511037985e-16 -6.887686175621207e-16
-3.7964371419315577e-17 -8.962169397728284e-15 -1.1028439152006252e-14
-8.89030747604014e-17 -1.793731144501875e-14 -2.204628134888089e-14
0.0 0.0 0.0
0.0 0.0 0.0
0.0 0.0 0.0
8.157320010446753e-17 1.799137960308176e-14 2.200220836046133e-14
0.0 0.0 0.0
-3.5306428985861466e-16 -7.200021541790897e-14 -8.798034664925451e-14
0.0 0.0 0.0
0.0 0.0 0.0
-7.611509134705726e-17 -1.8015708848925587e-14 -2.1982311254959742e-14
0.0 0.0 0.0
0.0 0.0 0.0
-6.257458384944776e-17 -1.803020757134223e-14 -2.1970463497661708e-14
-5.796213865335888e-17 -1.8034708667183173e-14 -2.1966781526355356e-14
5.526693278113714e-17 1.8038385044801476e-14 2.1963769655683866e-14
5.328014143386828e-17 1.8041535300655338e-14 2.196118694806936e-14
4.9372043088840906e-17 1.804463629836289e-14 2.1958648187160376e-14
0.0 0.0 0.0
0.0 0.0 0.0
-4.562852168459608e-17 -1.804916691621288e-14 -2.195493244387264e-14
0.0 0.0 0.0
4.0936772751932475e-17 1.805362192944854e-14 2.195127846744894e-14
-3.966674347544561e-17 -1.8055721495874325e-14 -2.194955386241825e-14
0.0 0.0 0.0
0.0 0.0 0.0
3.627483699374512e-17 1.8062134888252102e-14 2.194428249820676e-14
3.536383438913861e-17 1.8064156181781643e-14 2.1942620121255653e-14
0.0 0.0 0.0
-3.375756731904422e-17 -1.8068380129053564e-14 -2.1939144625189634e-14
0.0 0.0 0.0
-3.257009259851196e-17 -1.8072696407251528e-14 -2.193559095868406e-14
3.17983273963407e-17 1.8074866808021734e-14 2.1933803721310283e-14
-9.42414879980795e-17 -5.423091668430037e-14 -6.579620731196636e-14
0.0 0.0 0.0
-3.023312264667506e-17 -1.8081119663145167e-14 -2.1928651682938385e-14
2.999444201041072e-17 1.8083072302108016e-14 2.1927041829587923e-14
-2.921867557658211e-17 -1.808501693595423e-14 -2.1925439006814946e-14
-5.674818698802433e-17 -3.6173783616853615e-14 -4.3847787016787873e-14
-5.578342407865308e-17 -3.617727018920523e-14 -4.3844911650636324e-14
2.744491849233367e-17 1.8090413881563664e-14 2.192098855700841e-14
2.736085696500303e-17 1.8091908587388155e-14 2.1919755062395496e-14
-2.6978070804789818e-17 -1.8093308244208815e-14 -2.1918600226977477e-14
0.0 0.0 0.0
-1.320058935875766e-17 -9.047839251534651e-15 -1.095832205948559e-14
-1.306314934691545e-17 -9.04832271250982e-15 -1.0957923032262412e-14
1.48746221953785e-17 -2.250239652219629e-15 -2.7491771017395763e-15
-0.0 0.0 0.0
5.206021822697112e-17 -4.5235987237660194e-15 -5.479182626465864e-15
-1.4303429220377e-19 -5.607661511037985e-16 -6.887686175621207e-16
-3.7964371419315577e-17 -8.962169397728284e-15 -1.1028439152006252e-14
-8.89030747604014e-17 -1.793731144501875e-14 -2.204628134888089e-14
0.0 0.0 0.0
0.0 0.0 0.0
0.0 0.0 0.0
8.157320010446753e-17 1.799137960308176e-14 2.200220836046133e-14
0.0 0.0 0.0
-3.5306428985861466e-16 -7.200021541790897e-14 -8.798034664925451e-14
0.0 0.0 0.0
0.0 0.0 0.0
-7.611509134705726e-17 -1.8015708848925587e-14 -2.1982311254959742e-14
0.0 0.0 0.0
0.0 0.0 0.0
-6.257458384944776e-17 -1.803020757134223e-14 -2.1970463497661708e-14
-5.796213865335888e-17 -1.8034708667183173e-14 -2.1966781526355356e-14
5.526693278113714e-17 1.8038385044801476e-14 2.1963769655683866e-14
5.328014143386828e-17 1.8041535300655338e-14 2.196118694806936e-14
4.9372043088840906e-17 1.804463629836289e-14 2.1958648187160376e-14
0.0 0.0 0.0
0.0 0.0 0.0
-4.562852168459608e-17 -1.804916691621288e-14 -2.195493244387264e-14
0.0 0.0 0.0
4.0936772751932475e-17 1.805362192944854e-14 2.195127846744894e-14
-3.966674347544561e-17 -1.8055721495874325e-14 -2.194955386241825e-14
0.0 0.0 0.0
0.0 0.0 0.0
3.627483699374512e-17 1.8062134888252102e-14 2.194428249820676e-14
3.536383438913861e-17 1.8064156181781643e-14 2.1942620121255653e-14
0.0 0.0 0.0
-3.375756731904422e-17 -1.8068380129053564e-14 -2.1939144625189634e-14
0.0 0.0 0.0
-3.257009259851196e-17 -1.8072696407251528e-14 -2.193559095868406e-14
3.17983273963407e-17 1.8074866808021734e-14 2.1933803721310283e-14
-9.42414879980795e-17 -5.423091668430037e-14 -6.579620731196636e-14
0.0 0.0 0.0
-3.023312264667506e-17 -1.8081119663145167e-14 -2.1928651682938385e-14
2.999444201041072e-17 1.8083072302108016e-14 2.1927041829587923e-14
-2.921867557658211e-17 -1.808501693595423e-14 -2.1925439006814946e-14
-5.674818698802433e-17 -3.6173783616853615e-14 -4.3847787016787873e-14
-5.578342407865308e-17 -3.617727018920523e-14 -4.3844911650636324e-14
2.744491849233367e-17 1.8090413881563664e-14 2.192098855700841e-14
2.736085696500303e-17 1.8091908587388155e-14 2.1919755062395496e-14
-2.6978070804789818e-17 -1.8093308244208815e-14 -2.1918600226977477e-14
0.0 0.0 0.0
-1.320058935875766e-17 -9.047839251534651e-15 -1.095832205948559e-14
-1.306314934691545e-17 -9.04832271250982e-15 -1.0957923032262412e-14

SCALARS Gamma float
LOOKUP_TABLE default
-0.0
-0.0
-0.0
50.96158306633992
54.51466021872729
54.52423432629275
52.444582493560134
47.79624647122304
44.7941822931282
47.3391531872657
53.848012874606795
54.479024776298495
50.43188942581504
45.52393490420685
44.48286469866645
43.653294099532765
40.02298564307449
37.943896075370766
33.24134040837985
33.585561065204715
33.11490193194398
34.754809976482065
36.407034664655946
34.37291588614206
36.47339844316296
37.71999187812565
37.83778454819457
37.95603399650173
38.177046845006664
38.453031976876765
38.79634418429234
39.10155641006385
37.14927125166281
37.469137590770174
37.7923177683451
38.105202993420946
38.362464209681086
40.684060944179244
40.61610144930338
40.254379503678024
39.53871049722923
38.318274137498214
36.29140856342876
33.68399504403678
31.0307911371334
28.416482382534653
25.59727824886552
22.883974724401362
20.134069849322326
17.58905027754064
-0.0
-0.0
-0.0
50.96158306633992
54.51466021872729
54.52423432629275
52.444582493560134
47.79624647122304
44.7941822931282
47.3391531872657
53.848012874606795
54.479024776298495
50.43188942581504
45.52393490420685
44.48286469866645
43.653294099532765
40.02298564307449
37.943896075370766
33.24134040837985
33.585561065204715
33.11490193194398
34.754809976482065
36.407034664655946
34.37291588614206
36.47339844316296
37.71999187812565
37.83778454819457
37.95603399650173
38.177046845006664
38.453031976876765
38.79634418429234
39.10155641006385
37.14927125166281
37.469137590770174
37.7923177683451
38.105202993420946
38.362464209681086
40.684060944179244
40.61610144930338
40.254379503678024
39.53871049722923
38.318274137498214
36.29140856342876
33.68399504403678
31.0307911371334
28.416482382534653
25.59727824886552
22.883974724401362
20.134069849322326
17.58905027754064

VECTORS Ftot float
114.82479083910772 -30.179528119714234 25.323630914356503
138.434418449759 -67.2000497136206 56.3875369297938
141.876665133903 -99.83766760694513 83.77375006658735
1262.4919575026433 10.511441301757278 -8.820146519446139
1291.639238448191 168.05339741249924 -141.01354378691664
1384.3925379511554 219.10885517903588 -183.85415956840464
1468.167488610113 214.8667163276108 -180.29458242277107
1459.3441242397425 210.763092137972 -176.85123287875498
1475.5616251211604 226.11599470529853 -189.73384776049937
1666.0000553523505 288.74223551982317 -242.2835033299864
2023.0898590868535 376.9856171172078 -316.32849228218765
2178.8968311466265 421.7461256473939 -353.8870184811742
2140.977407901939 421.0477523920558 -353.30101374019597
2050.494060650763 386.89125302476634 -324.6403077187964
2119.385800370702 375.4703636131556 -315.05704362579735
2188.174273218665 373.47443100448885 -313.3822573100104
2105.7537857462216 338.5212067759433 -284.05301975138116
2087.4394504786023 322.3607490484048 -270.49278563254757
1907.3277210834333 278.0435661526016 -233.3062538098631
2002.564955659291 282.7642666628003 -237.26739186686925
2046.416393202178 282.4050334258519 -236.96595939023928
2224.182994951224 288.32967002189923 -241.9373197728419
2404.6184109676847 305.3333130247885 -256.20507034523644
2339.0806127040155 290.6844763349047 -243.91323688157874
2552.232667414757 312.0360602989698 -261.82934311087644
2712.918766805388 312.7423169275726 -262.42196278745354
2790.6256246618836 312.3955102764318 -262.13095745439153
2865.984773335009 313.9226590538893 -263.4123874303089
2947.5008758436675 315.412000491081 -264.6620932809535
3031.5044492556917 318.20679041057156 -267.007200471616
3119.282861216405 322.08949621954997 -270.2651774838997
3202.889980253357 325.5828980525046 -273.1964896734859
3095.724700919689 313.8347286061371 -263.3386050240308
3174.600028397789 314.50445310300876 -263.9005706023462
3251.444410336446 319.3088466642074 -267.9319354675785
3325.6973963994537 324.841243031878 -272.5741672192174
3393.9265207605813 327.2522606929897 -274.59725124941815
3644.601287778561 350.96339932114074 -294.493258927093
3681.700344023146 351.54502309652634 -294.98129922250297
3689.2137016098636 349.4207264340819 -293.19880267653474
3660.102328965692 347.5232181253438 -291.6066041545168
3581.240083228435 334.726362830019 -280.8687675959807
3422.0645048383394 313.7869875012312 -263.29854548051225
3201.584518042225 291.35638446161926 -244.47703474288997
2970.80756354187 268.6625058069454 -225.43460953377118
2737.8466112634383 248.91137752176746 -208.86144507434332
2480.7040625769314 224.14213383451678 -188.07758183183114
2229.282043781099 200.14402274313636 -167.9407756661025
1970.14575737363 176.57690743341982 -148.16561790180697
1727.7505308211971 154.09577632448114 -129.30170907984848
114.82479083910772 -30.179528119714234 25.323630914356503
138.434418449759 -67.2000497136206 56.3875369297938
141.876665133903 -99.83766760694513 83.77375006658735
1262.4919575026433 10.511441301757278 -8.820146519446139
1291.639238448191 168.05339741249924 -141.01354378691664
1384.3925379511554 219.10885517903588 -183.85415956840464
1468.167488610113 214.8667163276108 -180.29458242277107
1459.3441242397425 210.763092137972 -176.85123287875498
1475.5616251211604 226.11599470529853 -189.73384776049937
1666.0000553523505 288.74223551982317 -242.2835033299864
2023.0898590868535 376.9856171172078 -316.32849228218765
2178.8968311466265 421.7461256473939 -353.8870184811742
2140.977407901939 421.0477523920558 -353.30101374019597
2050.494060650763 386.89125302476634 -324.6403077187964
2119.385800370702 375.4703636131556 -315.05704362579735
2188.174273218665 373.47443100448885 -313.3822573100104
2105.7537857462216 338.5212067759433 -284.05301975138116
2087.4394504786023 322.3607490484048 -270.49278563254757
1907.3277210834333 278.0435661526016 -233.3062538098631
2002.564955659291 282.7642666628003 -237.26739186686925
2046.416393202178 282.4050334258519 -236.96595939023928
2224.182994951224 288.32967002189923 -241.9373197728419
2404.6184109676847 305.3333130247885 -256.20507034523644
2339.0806127040155 290.6844763349047 -243.91323688157874
2552.232667414757 312.0360602989698 -261.82934311087644
2712.918766805388 312.7423169275726 -262.42196278745354
2790.6256246618836 312.3955102764318 -262.13095745439153
2865.984773335009 313.9226590538893 -263.4123874303089
2947.5008758436675 315.412000491081 -264.6620932809535
3031.5044492556917 318.20679041057156 -267.007200471616
3119.282861216405 322.08949621954997 -270.2651774838997
3202.889980253357 325.5828980525046 -273.1964896734859
3095.724700919689 313.8347286061371 -263.3386050240308
3174.600028397789 314.50445310300876 -263.9005706023462
3251.444410336446 319.3088466642074 -267.9319354675785
3325.6973963994537 324.841243031878 -272.5741672192174
3393.9265207605813 327.2522606929897 -274.59725124941815
3644.601287778561 350.96339932114074 -294.493258927093
3681.700344023146 351.54502309652634 -294.98129922250297
3689.2137016098636 349.4207264340819 -293.19880267653474
3660.102328965692 347.5232181253438 -291.6066041545168
3581.240083228435 334.726362830019 -280.8687675959807
3422.0645048383394 313.7869875012312 -263.29854548051225
3201.584518042225 291.35638446161926 -244.47703474288997
2970.80756354187 268.6625058069454 -225.43460953377118
2737.8466112634383 248.91137752176746 -208.86144507434332
2480.7040625769314 224.14213383451678 -188.07758183183114
2229.282043781099 200.14402274313636 -167.9407756661025
1970.14575737363 176.57690743341982 -148.16561790180697
1727.7505308211971 154.09577632448114 -129.30170907984848

VECTORS D float
90.63228523929038 24.308852799243862 -19.406761184439844
59.104236212024716 29.13020173830176 -23.550977661433606
12.014718270744114 8.567852982336778 -6.959439493222117
525.520795217934 487.90248956661355 -397.3386151823773
510.6443605079423 581.6855271643759 -474.45975361505555
468.32445754289364 630.0370641461916 -514.4997628514951
406.8366412027423 628.7760045419207 -514.0088049049989
343.13669519852186 597.0461121957213 -488.6780900947268
306.4390956421533 591.0952103725426 -484.13176638272824
318.68171087327585 673.1296001212517 -551.6049046527753
356.24232058504913 815.8672538445437 -668.7995447791827
353.06278828846786 869.1711461913225 -712.7178513334486
319.35681718571664 839.2960756193899 -688.4299312605953
276.2744085026535 770.5894459457414 -632.262213486524
256.901326731703 756.6812602767774 -621.0313004032147
242.8381551617249 752.0442471229574 -617.4000297317133
212.71880588588354 690.0321445835536 -566.646132200904
194.80322136733537 659.1224368545161 -541.4680524692409
163.6983202054233 576.1354142958922 -473.4386164822882
160.56752447758285 586.2320548968028 -481.86416868913983
154.458997741524 583.5533792964432 -479.7750009848701
155.63590578392575 607.0746434204711 -499.2167603257577
159.52265131677515 641.0632839573007 -527.2638182003301
147.41810192727195 609.340936823206 -501.1580398867943
153.64848687321384 651.7950745497144 -536.1605588685636
153.34547679138979 666.4616066058759 -548.3140646855153
150.49136698480677 669.0043116172126 -550.4969361998108
148.29690323412572 673.2795564999313 -554.1083291479422
146.54410300432758 678.4994523981217 -558.5006917855115
145.37537049059011 685.4864333504167 -564.3516974858894
144.73898491905248 694.1692974198864 -571.603554109859
144.0968787737218 702.1155025201947 -578.2454348303128
136.0671301992518 672.8031874274782 -554.2018976611853
135.27466171576503 678.0489809808868 -558.6276715596231
135.39383529823996 687.2768368181006 -566.3373850653211
135.72355684243135 697.0780387958848 -574.52294400782
135.45003468911264 703.2803498234306 -579.744667084433
143.17375799896263 750.9108675435863 -619.1250114150482
142.05498712095618 752.0207576973584 -620.1551203897496
139.98193491650483 747.4542970621875 -616.5013186578464
137.37998715084098 739.4051092783977 -609.9699536140616
131.9816875847335 715.5506025357415 -590.3918772836994
123.75086537105366 675.4239474590739 -557.3750472952379
114.31452491930973 627.7337060749185 -518.100456631567
104.88753081750959 579.1481339439281 -478.07643547920753
96.1666101821318 533.6506746659192 -440.57930378463
86.3009383494082 481.04112292265916 -397.19477785310454
76.86655053876247 430.14056936585854 -355.20632720702423
67.5264498408395 379.16662182343464 -313.1437472008515
58.82429163816491 331.2657411819292 -273.6073023594447
90.63228523929038 24.308852799243862 -19.406761184439844
59.104236212024716 29.13020173830176 -23.550977661433606
12.014718270744114 8.567852982336778 -6.959439493222117
525.520795217934 487.90248956661355 -397.3386151823773
510.6443605079423 581.6855271643759 -474.45975361505555
468.32445754289364 630.0370641461916 -514.4997628514951
406.8366412027423 628.7760045419207 -514.0088049049989
343.13669519852186 597.0461121957213 -488.6780900947268
306.4390956421533 591.0952103725426 -484.13176638272824
318.68171087327585 673.1296001212517 -551.6049046527753
356.24232058504913 815.8672538445437 -668.7995447791827
353.06278828846786 869.1711461913225 -712.7178513334486
319.35681718571664 839.2960756193899 -688.4299312605953
276.2744085026535 770.5894459457414 -632.262213486524
256.901326731703 756.6812602767774 -621.0313004032147
242.8381551617249 752.0442471229574 -617.4000297317133
212.71880588588354 690.0321445835536 -566.646132200904
194.80322136733537 659.1224368545161 -541.4680524692409
163.6983202054233 576.1354142958922 -473.4386164822882
160.56752447758285 586.2320548968028 -481.86416868913983
154.458997741524 583.5533792964432 -479.7750009848701
155.63590578392575 607.0746434204711 -499.2167603257577
159.52265131677515 641.0632839573007 -527.2638182003301
147.41810192727195 609.340936823206 -501.1580398867943
153.64848687321384 651.7950745497144 -536.1605588685636
153.34547679138979 666.4616066058759 -548.3140646855153
150.49136698480677 669.0043116172126 -550.4969361998108
148.29690323412572 673.2795564999313 -554.1083291479422
146.54410300432758 678.4994523981217 -558.5006917855115
145.37537049059011 685.4864333504167 -564.3516974858894
144.73898491905248 694.1692974198864 -571.603554109859
144.0968787737218 702.1155025201947 -578.2454348303128
136.0671301992518 672.8031874274782 -554.2018976611853
135.27466171576503 678.0489809808868 -558.6276715596231
135.39383529823996 687.2768368181006 -566.3373850653211
135.72355684243135 697.0780387958848 -574.52294400782
135.45003468911264 703.2803498234306 -579.744667084433
143.17375799896263 750.9108675435863 -619.1250114150482
142.05498712095618 752.0207576973584 -620.1551203897496
139.98193491650483 747.4542970621875 -616.5013186578464
137.37998715084098 739.4051092783977 -609.9699536140616
131.9816875847335 715.5506025357415 -590.3918772836994
123.75086537105366 675.4239474590739 -557.3750472952379
114.31452491930973 627.7337060749185 -518.100456631567
104.88753081750959 579.1481339439281 -478.07643547920753
96.1666101821318 533.6506746659192 -440.57930378463
86.3009383494082 481.04112292265916 -397.19477785310454
76.86655053876247 430.14056936585854 -355.20632720702423
67.5264498408395 379.16662182343464 -313.1437472008515
58.82429163816491 331.2657411819292 -273.6073023594447

VECTORS L float
24.192505599817355 -54.48838091895811 44.730392098796344
79.33018223773429 -96.33025145192238 79.9385145912274
129.86194686315892 -108.40552058928192 90.73318955980947
736.9711622847093 -477.3910482648563 388.51846866293107
780.9948779402487 -413.63212975187673 333.4462098281388
916.0680804082617 -410.92820896715574 330.64560328309045
1061.3308474073706 -413.90928821430987 333.71422248222785
1116.2074290412206 -386.2830200577492 311.8268572159716
1169.122529479007 -364.9792156672442 294.3979186222288
1347.3183444790745 -384.38736460142854 309.3214013227889
1666.8475385018044 -438.88163672733583 352.471052496995
1825.834042858159 -447.4250205439287 358.83083285227457
1821.6205907162225 -418.24832322733397 335.1289175203994
1774.2196521481094 -383.698192920975 307.6219057677276
1862.4844736389994 -381.210896663622 305.97425677741734
1945.3361180569404 -378.5698161184687 304.017772421703
1893.034979860338 -351.5109378076102 282.5931124495229
1892.6362291112675 -336.7616878061113 270.97526683669327
1743.62940087801 -298.09184814329075 240.13236267242505
1841.997431181708 -303.46778823400257 244.59677682227073
1891.9573954606542 -301.1483458705911 242.80904159463077
2068.5470891672985 -318.7449733985719 257.27944055291573
2245.0957596509097 -335.7299709325121 271.05874785509354
2191.6625107767436 -318.6564604883012 257.2448030052155
2398.584180541543 -339.7590142507446 274.3312157576872
2559.5732900139988 -353.71928967830314 285.89210189806164
2640.134257677077 -356.6088013407808 288.3659787454192
2717.6878701008836 -359.35689744604224 290.6959417176333
2800.95677283934 -363.08745190704053 293.838598504558
2886.129078765102 -367.2796429398452 297.3444970142734
2974.543876297352 -372.0798012003367 301.3383766259594
3058.793101479635 -376.53260446769013 305.04894515682685
2959.6575707204374 -358.96845882134085 290.86329263715425
3039.3253666820237 -363.5445278778779 294.7271009572768
3116.0505750382054 -367.9679901538932 298.40544959774263
3189.973839557022 -372.23679576400696 301.94877678860274
3258.4764860714695 -376.028089130441 305.1474158350149
3501.427529779599 -399.9474682224455 324.63175248795505
3539.64535690219 -400.4757346008321 325.1738211672468
3549.2317666933586 -398.0335706281055 323.30251598131167
3522.722341814851 -391.8818911530539 318.3633494595447
3449.2583956437015 -380.8242397057227 309.52310968771883
3298.313639467286 -361.63695995784286 294.07650181472565
3087.269993122915 -336.3773216132993 273.6234218886771
2865.9200327243598 -310.48562813698265 252.64182594543624
2641.6800010813067 -284.7392971441517 231.7178587102867
2394.403124227523 -256.8989890881425 209.11719602127351
2152.4154932423376 -229.9965466227222 187.26555154092176
1902.6193075327906 -202.58971439001476 164.97812929904453
1668.9262391830323 -177.16996485744815 144.30559327959637