# vtk DataFile Version 4.0
[MyVLM domain - lattices] 
ASCII
DATASET UNSTRUCTURED_GRID
POINTS 152 float
0.0 1.6729685287983536 -1.49999999999997
0.0 1.8259104159976918 -3.736363636363565
0.0 1.9429672071329247 -5.931651205936808
0.0 2.067065350398439 -8.085862708719699
0.0 2.1985488133541047 -10.198998144712238
0.0 2.3005016111658985 -12.271057513914426
0.0 2.3423443515690847 -14.302040816326263
0.0 2.3161839107284212 -16.291948051947745
0.0 2.270154608511041 -18.24077922077888
0.0 2.223965402213701 -20.14853432281966
0.0 2.177368088906123 -22.015213358070092
0.0 2.1299994259601145 -23.840816326530167
0.0 2.0814599417501745 -25.625343228199892
0.0 2.0284620667261195 -27.368794063079267
0.0 1.9731991232096264 -29.07116883116829
0.0 1.9204789393856379 -30.732467532466963
0.0 1.8710171880491278 -32.35269016697528
0.0 1.8236345039710025 -33.93183673469325
0.0 1.77748121849818 -35.469907235620866
0.0 1.7325575766433987 -36.96690166975813
0.0 1.6888638168760308 -38.42282003710504
0.0 1.646400171122082 -39.837662337661605
0.0 1.605166864764191 -41.21142857142781
0.0 1.5651641166416284 -42.54411873840367
0.0 1.5263921390502995 -43.835732838589166
0.0 1.4888511377427422 -45.08627087198432
0.0 1.4525413119281267 -46.29573283858912
0.0 1.417462854272257 -47.46411873840357
0.0 1.3836175479386412 -48.59142857142767
0.0 1.3510275087233876 -49.67766233766142
0.0 1.3196972323667233 -50.72282003710481
0.0 1.2896235544434775 -51.72690166975786
0.0 1.2608034348945347 -52.689907235620545
0.0 1.2332339580268346 -53.611836734692886
0.0 1.2069123325133708 -54.492690166974874
0.0 1.1818358913931917 -55.3324675324665
0.0 1.1575801020609007 -56.131168831167784
0.0 1.1328025171200031 -56.88879406307871
0.0 1.105372858759367 -57.6053432281993
0.0 1.074182928991051 -58.28081632652953
0.0 1.0400092122336302 -58.9152133580694
0.0 1.0025976343865508 -59.50853432281894
0.0 0.9501715156147423 -60.06077922077811
0.0 0.8829981979908457 -60.57194805194693
0.0 0.8099943186004736 -61.042040816325404
0.0 0.737236313870169 -61.47105751391352
0.0 0.6662628021176118 -61.85899814471128
0.0 0.5956028474822558 -62.2058627087187
0.0 0.5265458660949899 -62.511651205935756
0.0 0.46164634228987766 -62.77636363636247
0.0 0.4031156207143205 -62.99999999999884
-0.7686761955390344 -1.5799568380957834 -1.4999999999999747
-0.8409029948616161 -1.7281169722329306 -3.7363636363635706
-0.8940476007249757 -1.8375356791681625 -5.931651205936813
-0.9506443374492793 -1.9550792281255562 -8.085862708719706
-1.0210144815146838 -2.079304891507116 -10.198998144712245
-1.048631451549771 -2.17969297273276 -12.271057513914434
-0.9920275022819518 -2.2354425251651118 -14.30204081632627
-0.9074715353829097 -2.226483671663194 -16.291948051947752
-0.8388231939293685 -2.192935796679884 -18.240779220778887
-0.7803448823218929 -2.155176395651585 -20.148534322819668
-0.7251531968841737 -2.115434550519296 -22.0152133580701
-0.671766762046156 -2.0768586132351188 -23.840816326530174
-0.6188683613166902 -2.0352193917648407 -25.6253432281999
-0.5668565661826578 -1.9891279899689105 -27.368794063079275
-0.5162677046190278 -1.9394218040110032 -29.071168831168293
-0.4681223452427161 -1.8917316870243615 -30.73246753246697
-0.42442582165628834 -1.8467056466819756 -32.35269016697528
-0.3846819074085718 -1.8031600352042367 -33.93183673469325
-0.3476243488905531 -1.7603439983915874 -35.469907235620866
-0.3131098246080671 -1.7183117926561897 -36.96690166975813
-0.28048746260446866 -1.6771555410424832 -38.42282003710504
-0.2502235469699514 -1.6368634667764326 -39.837662337661605
-0.2227998260917326 -1.5974360333218416 -41.21142857142781
-0.19746739264611052 -1.5589633081462324 -42.54411873840367
-0.17533279734900953 -1.521409391199034 -43.835732838589166
-0.15613374469432648 -1.4848328389274823 -45.08627087198432
-0.13998404755873647 -1.4492649373533313 -46.29573283858912
-0.12578653595324127 -1.4147882946830417 -47.46411873840357
-0.11250427274737486 -1.3814638025971466 -48.59142857142767
-0.10008179164308317 -1.3493034317203865 -49.67766233766142
-0.08845752889585208 -1.3183158820530485 -50.72282003710481
-0.07764231497362577 -1.2885057050771898 -51.72690166975786
-0.06766212708627829 -1.2598772827796911 -52.689907235620545
-0.0584684819534103 -1.2324371297861032 -53.611836734692886
-0.050013688763705585 -1.206191133438898 -54.492690166974874
-0.042252254921319045 -1.1811445593783882 -55.3324675324665
-0.03513536582041269 -1.1569727905849103 -56.131168831167784
-0.028615518964613278 -1.132631146986331 -56.88879406307871
-0.022687693716904638 -1.1053113958562608 -57.6053432281993
-0.017408965386693863 -1.073561001694914 -58.28081632652953
-0.013252482528008399 -1.0397440458797864 -58.9152133580694
-0.010166684094042405 -1.0037397436373972 -59.50853432281894
-0.00760098697125575 -0.9515922069599775 -60.06077922077811
-0.005464879873870877 -0.8832558742200649 -60.57194805194693
-0.0039015967321000085 -0.8092481826268155 -61.042040816325404
-0.002883995165670249 -0.7365304832018924 -61.47105751391352
-0.0022477517166190047 -0.6663352463067114 -61.85899814471128
-0.00179874084072329 -0.5960211537297823 -62.2058627087187
-0.0014595970466816986 -0.5266437251401107 -62.511651205935756
-0.0012027506489664258 -0.46099361655469 -62.77636363636247
-0.0010073243559101815 -0.40148660099847067 -62.99999999999884
-0.603592196400244 -0.8031678107737625 -2.618181818181771
-0.6506064733449719 -0.8660100413840833 -4.83400742115019
-0.6917594768153456 -0.9209765205437243 -7.008756957328257
-0.7393720571114861 -0.979692274393184 -9.142430426715974
-0.7761172248991705 -1.0347428960249532 -11.235027829313337
-0.7652471076868961 -1.0753200663698295 -13.28654916512035
-0.712312139124323 -1.0909062910234266 -15.296994434137009
-0.6548605234921042 -1.0839899857237212 -17.266363636363316
-0.607188028594223 -1.068777070783708 -19.194656771799274
-0.564561779702275 -1.0513124184241023 -21.08187384044488
-0.5238449845988737 -1.0336889970496257 -22.928014842300133
-0.48398817126106725 -1.0155968309111991 -24.733079777365035
-0.4446468478122555 -0.9953900170906199 -26.497068645639583
-0.4061716015506322 -0.9729985240004991 -28.219981447123782
-0.369146268698154 -0.9499728013138538 -29.901818181817628
-0.3347055625871267 -0.9279769842105308 -31.542578849721117
-0.3034153983993225 -0.9068681692048135 -33.142263450834264
-0.27461484611217185 -0.8861745472897861 -34.70087198515706
-0.24777531506198255 -0.8657410722502192 -36.2184044526895
-0.22259898270470088 -0.8456225759470734 -37.694860853431585
-0.19901662859040753 -0.8258491294323295 -39.13024118738333
-0.1773837648981315 -0.8064164330510685 -40.52454545454471
-0.15760020702669117 -0.7873583803748001 -41.877773654915735
-0.13980007124817 -0.7686952302929837 -43.18992578849642
-0.124299953266251 -0.7504354266983136 -44.461001855286746
-0.11104417209489861 -0.7326126098964466 -45.691001855286714
-0.09966396881699166 -0.7152694412385917 -46.87992578849634
-0.08935905326273105 -0.698459486203708 -48.02777365491561
-0.07971977414642176 -0.6822070807863213 -49.13454545454454
-0.07070224520210072 -0.666516650028774 -50.200241187383114
-0.06228744145105419 -0.6513929968225644 -51.22486085343133
-0.05448916577246402 -0.636840246779079 -52.208404452689194
-0.04729897838988322 -0.6228632305970017 -53.15087198515671
-0.04068081401891846 -0.6094673123918497 -54.05226345083388
-0.03459972888188424 -0.596657356818162 -54.91257884972069
-0.029020357778149403 -0.5843670070544755 -55.73181818181715
-0.023906581794384738 -0.5723036491916027 -56.509981447123245
-0.019238704755569217 -0.5594565315810507 -57.24706864563901
-0.015036247163849435 -0.5446326756128883 -57.94307977736442
-0.011498042968013347 -0.5282153751874276 -58.59801484229947
-0.00878218748326905 -0.5109805652414209 -59.21187384044418
-0.006662876649486808 -0.48915333772385383 -59.784656771798524
-0.004899700066922485 -0.45892181624181755 -60.31636363636253
-0.0035124287272390825 -0.42306495674366534 -60.806994434136165
-0.0025445969616638467 -0.3862631706269351 -61.25654916511946
-0.0019244050808584702 -0.3506372590672537 -61.6650278293124
-0.0015174347090033604 -0.3156504438137018 -62.03243042671499
-0.0012218767077768707 -0.28073074037905416 -62.358756957327216
-0.0009983803858680466 -0.2468399770874417 -62.64400742114912
-0.0008287781268287279 -0.2153348362069105 -62.88818181818065

CELLS 100 350
4 0 51 52 1
4 1 52 53 2
4 2 53 54 3
4 3 54 55 4
4 4 55 56 5
4 5 56 57 6
4 6 57 58 7
4 7 58 59 8
4 8 59 60 9
4 9 60 61 10
4 10 61 62 11
4 11 62 63 12
4 12 63 64 13
4 13 64 65 14
4 14 65 66 15
4 15 66 67 16
4 16 67 68 17
4 17 68 69 18
4 18 69 70 19
4 19 70 71 20
4 20 71 72 21
4 21 72 73 22
4 22 73 74 23
4 23 74 75 24
4 24 75 76 25
4 25 76 77 26
4 26 77 78 27
4 27 78 79 28
4 28 79 80 29
4 29 80 81 30
4 30 81 82 31
4 31 82 83 32
4 32 83 84 33
4 33 84 85 34
4 34 85 86 35
4 35 86 87 36
4 36 87 88 37
4 37 88 89 38
4 38 89 90 39
4 39 90 91 40
4 40 91 92 41
4 41 92 93 42
4 42 93 94 43
4 43 94 95 44
4 44 95 96 45
4 45 96 97 46
4 46 97 98 47
4 47 98 99 48
4 48 99 100 49
4 49 100 101 50
1 102
1 103
1 104
1 105
1 106
1 107
1 108
1 109
1 110
1 111
1 112
1 113
1 114
1 115
1 116
1 117
1 118
1 119
1 120
1 121
1 122
1 123
1 124
1 125
1 126
1 127
1 128
1 129
1 130
1 131
1 132
1 133
1 134
1 135
1 136
1 137
1 138
1 139
1 140
1 141
1 142
1 143
1 144
1 145
1 146
1 147
1 148
1 149
1 150
1 151

CELL_TYPES 100
9
9
9
9
9
9
9
9
9
9
9
9
9
9
9
9
9
9
9
9
9
9
9
9
9
9
9
9
9
9
9
9
9
9
9
9
9
9
9
9
9
9
9
9
9
9
9
9
9
9
1
1
1
1
1
1
1
1
1
1
1
1
1
1
1
1
1
1
1
1
1
1
1
1
1
1
1
1
1
1
1
1
1
1
1
1
1
1
1
1
1
1
1
1
1
1
1
1
1
1

CELL_DATA 100

VECTORS S float
-3.30286040271287e-18 -1.4472360077766308e-16 -8.763019318203741e-16
-0.0 -0.0 -0.0
-2.543553900505133e-17 -5.896024435258226e-16 -3.5033550313207037e-15
-6.999161863075999e-20 7.075257217087617e-17 4.38416805035609e-16
1.862207308477824e-17 -1.1257120856993048e-15 -7.01566272369541e-15
0.0 -0.0 -0.0
-1.895812720874489e-17 1.1359985362033888e-15 7.01400355355636e-15
0.0 -0.0 -0.0
-3.709995427929966e-17 2.2848068704776217e-15 1.4025928592952046e-14
-4.127721785006868e-17 2.2878018846965188e-15 1.4025428708750571e-14
4.359646151234887e-17 -2.290978831163059e-15 -1.4024903104131786e-14
0.0 -0.0 -0.0
4.4323655967594655e-17 -2.2974529341408356e-15 -1.4023841740604047e-14
0.0 -0.0 -0.0
0.0 -0.0 -0.0
-3.57695757743616e-17 2.3094892383653833e-15 1.4021889021522829e-14
0.0 -0.0 -0.0
-3.1346121080093396e-17 2.3145036791000483e-15 1.402107277909592e-14
0.0 -0.0 -0.0
0.0 -0.0 -0.0
0.0 -0.0 -0.0
1.259566861883231e-17 -1.1604828420975123e-15 -7.0100084776321125e-15
-2.4381996716334738e-17 2.3227110663425545e-15 1.4019729332519405e-14
-1.179830608077692e-17 1.1621878587986627e-15 7.00972739234411e-15
-2.2957960068529378e-17 2.3259521837072797e-15 1.4019194381552596e-14
-2.1389626501717778e-17 2.3276450026603837e-15 1.401891589824432e-14
0.0 -0.0 -0.0
1.988755401326022e-17 -2.3306421191504504e-15 -1.4018420151151707e-14
1.922295073751627e-17 -2.3320989961919893e-15 -1.401817878637251e-14
1.865678068852106e-17 -2.3335317867768303e-15 -1.401794111348794e-14
0.0 -0.0 -0.0
1.7688507132109e-17 -2.3363641583922352e-15 -1.401747057684355e-14
-1.7456502979779378e-17 2.3377405382403845e-15 1.401724138990801e-14
0.0 -0.0 -0.0
1.6497235915632568e-17 -2.3408219643323946e-15 -1.4016728295471991e-14
-1.623805814062187e-17 2.3421356899392126e-15 1.4016509140009142e-14
0.0 -0.0 -0.0
0.0 -0.0 -0.0
-1.5374379814872518e-17 2.3460840402954463e-15 1.4015849779478064e-14
1.508933008981092e-17 -2.3473664909989318e-15 -1.4015635362181473e-14
1.497291372154924e-17 -2.3485925130445555e-15 -1.4015430095295141e-14
-1.458644071066194e-17 2.3498173787112534e-15 1.4015225194731371e-14
-1.413844018440083e-17 2.351253400577973e-15 1.4014984812241455e-14
-6.9509448888899e-18 1.176165289768982e-15 7.007402145563828e-15
6.8468319305520696e-18 -1.176669559251526e-15 -7.007317589732042e-15
-1.3656722157419649e-17 2.3542524274196197e-15 1.4014481821976429e-14
0.0 -0.0 -0.0
-1.3292447276400479e-17 2.3558840986874175e-15 1.4014207974801007e-14
-6.5946450508365995e-18 1.1782814688957983e-15 7.007046968934786e-15
0.0 -0.0 -0.0
-3.30286040271287e-18 -1.4472360077766308e-16 -8.763019318203741e-16
-0.0 -0.0 -0.0
-2.543553900505133e-17 -5.896024435258226e-16 -3.5033550313207037e-15
-6.999161863075999e-20 7.075257217087617e-17 4.38416805035609e-16
1.862207308477824e-17 -1.1257120856993048e-15 -7.01566272369541e-15
0.0 -0.0 -0.0
-1.895812720874489e-17 1.1359985362033888e-15 7.01400355355636e-15
0.0 -0.0 -0.0
-3.709995427929966e-17 2.2848068704776217e-15 1.4025928592952046e-14
-4.127721785006868e-17 2.2878018846965188e-15 1.4025428708750571e-14
4.359646151234887e-17 -2.290978831163059e-15 -1.4024903104131786e-14
0.0 -0.0 -0.0
4.4323655967594655e-17 -2.2974529341408356e-15 -1.4023841740604047e-14
0.0 -0.0 -0.0
0.0 -0.0 -0.0
-3.57695757743616e-17 2.3094892383653833e-15 1.4021889021522829e-14
0.0 -0.0 -0.0
-3.1346121080093396e-17 2.3145036791000483e-15 1.402107277909592e-14
0.0 -0.0 -0.0
0.0 -0.0 -0.0
0.0 -0.0 -0.0
1.259566861883231e-17 -1.1604828420975123e-15 -7.0100084776321125e-15
-2.4381996716334738e-17 2.3227110663425545e-15 1.4019729332519405e-14
-1.179830608077692e-17 1.1621878587986627e-15 7.00972739234411e-15
-2.2957960068529378e-17 2.3259521837072797e-15 1.4019194381552596e-14
-2.1389626501717778e-17 2.3276450026603837e-15 1.401891589824432e-14
0.0 -0.0 -0.0
1.988755401326022e-17 -2.3306421191504504e-15 -1.4018420151151707e-14
1.922295073751627e-17 -2.3320989961919893e-15 -1.401817878637251e-14
1.865678068852106e-17 -2.3335317867768303e-15 -1.401794111348794e-14
0.0 -0.0 -0.0
1.7688507132109e-17 -2.3363641583922352e-15 -1.401747057684355e-14
-1.7456502979779378e-17 2.3377405382403845e-15 1.401724138990801e-14
0.0 -0.0 -0.0
1.6497235915632568e-17 -2.3408219643323946e-15 -1.4016728295471991e-14
-1.623805814062187e-17 2.3421356899392126e-15 1.4016509140009142e-14
0.0 -0.0 -0.0
0.0 -0.0 -0.0
-1.5374379814872518e-17 2.3460840402954463e-15 1.4015849779478064e-14
1.508933008981092e-17 -2.3473664909989318e-15 -1.4015635362181473e-14
1.497291372154924e-17 -2.3485925130445555e-15 -1.4015430095295141e-14
-1.458644071066194e-17 2.3498173787112534e-15 1.4015225194731371e-14
-1.413844018440083e-17 2.351253400577973e-15 1.4014984812241455e-14
-6.9509448888899e-18 1.176165289768982e-15 7.007402145563828e-15
6.8468319305520696e-18 -1.176669559251526e-15 -7.007317589732042e-15
-1.3656722157419649e-17 2.3542524274196197e-15 1.4014481821976429e-14
0.0 -0.0 -0.0
-1.3292447276400479e-17 2.3558840986874175e-15 1.4014207974801007e-14
-6.5946450508365995e-18 1.1782814688957983e-15 7.007046968934786e-15
0.0 -0.0 -0.0

SCALARS Gamma float
LOOKUP_TABLE default
-0.0
-0.0
-0.0
50.939556783484505
54.478932177853146
54.47788821879017
52.42681970676959
47.78481398999798
44.786994433736815
47.33820677529645
53.838006401100664
54.453772739721025
50.38776527554439
45.501693122196
44.50335678322108
43.72458405416741
40.15315028024373
38.00864890234746
33.29500665877839
33.62835219421863
33.14189955814899
34.76530844502482
36.41532919391146
34.401122942967305
36.49626676730823
37.74094555205991
37.85642890229583
37.97338000237715
38.19394968586354
38.470234989256234
38.81448256738912
39.121889777010644
37.17348801687164
37.45667141765703
37.77853842085245
38.09020118128644
38.34634550098678
40.66596303162367
40.59725206003385
40.234981464976464
39.518966757911535
38.298501813334035
36.28123458386236
33.6740296309794
31.02016472043751
28.407248012946564
25.58914595655247
22.877036633879634
20.12803484608354
17.583818629258673
-0.0
-0.0
-0.0
50.939556783484505
54.478932177853146
54.47788821879017
52.42681970676959
47.78481398999798
44.786994433736815
47.33820677529645
53.838006401100664
54.453772739721025
50.38776527554439
45.501693122196
44.50335678322108
43.72458405416741
40.15315028024373
38.00864890234746
33.29500665877839
33.62835219421863
33.14189955814899
34.76530844502482
36.41532919391146
34.401122942967305
36.49626676730823
37.74094555205991
37.85642890229583
37.97338000237715
38.19394968586354
38.470234989256234
38.81448256738912
39.121889777010644
37.17348801687164
37.45667141765703
37.77853842085245
38.09020118128644
38.34634550098678
40.66596303162367
40.59725206003385
40.234981464976464
39.518966757911535
38.298501813334035
36.28123458386236
33.6740296309794
31.02016472043751
28.407248012946564
25.58914595655247
22.877036633879634
20.12803484608354
17.583818629258673

VECTORS Ftot float
114.76671493278953 38.71074453751671 -6.82574870527696
138.32657096366665 86.27014516885988 -15.21175422290589
141.8021814099976 128.20323636018267 -22.605689584444494
1261.3501929277536 -13.474063494102605 2.37584093378924
1290.1218356687125 -215.78101440627967 38.048014764468725
1382.8640250010717 -281.3552705725553 49.610525366471435
1467.3328272118174 -276.0818906883896 48.68068621336775
1458.5109066876892 -270.7780732429614 47.745480096986526
1474.9135390360661 -290.52999952507093 51.22827762148704
1665.5430589513064 -371.0953655584182 65.43412536381936
2021.3693318419892 -484.2274637545423 85.38236665995531
2176.8439213247584 -541.6722607925697 95.51143427908114
2138.367907079484 -540.5861273721188 95.31991965240648
2050.029345028248 -497.17539986994666 87.66543714159063
2120.7816538141255 -483.04575977579873 85.17400036529227
2192.0504079258067 -481.1882137066871 84.84646487539895
2112.7751762177936 -437.0336521622984 77.06082435377085
2090.447193280658 -415.2830630280263 73.22560864309435
1909.9862878406375 -358.12198695066746 63.14656868432689
2004.73419492835 -364.0773897751442 64.19666688326953
2047.7475431115295 -363.4109895681786 64.0791625468318
2224.697815815458 -370.79878866599466 65.3818308558304
2404.9589581696923 -392.63125014743775 69.2314828702871
2340.5280272253485 -374.0948884788488 65.96302218394472
2553.365508708619 -401.47969260230036 70.7917020123256
2713.978460710331 -402.3826569432799 70.95091898825794
2791.5998402348528 -401.89816145030744 70.86548936081523
2866.943654160484 -403.84651396153146 71.20903647647512
2948.507408438942 -405.76554318172543 71.54741310476324
3032.6190071460283 -409.3707743196458 72.18311262606889
3120.5595347918256 -414.3860727026426 73.06744504729474
3204.130401539797 -418.9116976805331 73.865434835465
3097.4141354890758 -403.8773822772493 71.2144793933852
3173.465070487267 -404.0784763265552 71.24993769993775
3250.181568569316 -410.2279307511118 72.33425243162412
3324.314581788087 -417.3107228307922 73.58313977401997
3392.431675515589 -420.38857567296816 74.12584827274584
3642.9121797701246 -450.8419537345135 79.49560047871147
3679.932060122597 -451.5713993498732 79.62422142165889
3687.3855210991346 -448.8262994919251 79.14018625196367
3658.2325672380266 -446.38745382661176 78.71015195938504
3579.364115107288 -429.9081724142511 75.80441002369838
3421.106706185584 -403.188306196924 71.09297668866301
3200.6416393191066 -374.3554251236343 66.00896182388365
2969.7961567605557 -345.1678020464477 60.86239637262667
2736.9648978273462 -319.8009978720506 56.389544382332375
2479.9253381238364 -287.9810357402271 50.778826533370314
2228.616350984271 -257.1532397586265 45.34305434603818
1969.5657349992937 -226.8750123071007 40.004185918306526
1727.2470472968112 -197.9908184253705 34.91112322094317
114.76671493278953 38.71074453751671 -6.82574870527696
138.32657096366665 86.27014516885988 -15.21175422290589
141.8021814099976 128.20323636018267 -22.605689584444494
1261.3501929277536 -13.474063494102605 2.37584093378924
1290.1218356687125 -215.78101440627967 38.048014764468725
1382.8640250010717 -281.3552705725553 49.610525366471435
1467.3328272118174 -276.0818906883896 48.68068621336775
1458.5109066876892 -270.7780732429614 47.745480096986526
1474.9135390360661 -290.52999952507093 51.22827762148704
1665.5430589513064 -371.0953655584182 65.43412536381936
2021.3693318419892 -484.2274637545423 85.38236665995531
2176.8439213247584 -541.6722607925697 95.51143427908114
2138.367907079484 -540.5861273721188 95.31991965240648
2050.029345028248 -497.17539986994666 87.66543714159063
2120.7816538141255 -483.04575977579873 85.17400036529227
2192.0504079258067 -481.1882137066871 84.84646487539895
2112.7751762177936 -437.0336521622984 77.06082435377085
2090.447193280658 -415.2830630280263 73.22560864309435
1909.9862878406375 -358.12198695066746 63.14656868432689
2004.73419492835 -364.0773897751442 64.19666688326953
2047.7475431115295 -363.4109895681786 64.0791625468318
2224.697815815458 -370.79878866599466 65.3818308558304
2404.9589581696923 -392.63125014743775 69.2314828702871
2340.5280272253485 -374.0948884788488 65.96302218394472
2553.365508708619 -401.47969260230036 70.7917020123256
2713.978460710331 -402.3826569432799 70.95091898825794
2791.5998402348528 -401.89816145030744 70.86548936081523
2866.943654160484 -403.84651396153146 71.20903647647512
2948.507408438942 -405.76554318172543 71.54741310476324
3032.6190071460283 -409.3707743196458 72.18311262606889
3120.5595347918256 -414.3860727026426 73.06744504729474
3204.130401539797 -418.9116976805331 73.865434835465
3097.4141354890758 -403.8773822772493 71.2144793933852
3173.465070487267 -404.0784763265552 71.24993769993775
3250.181568569316 -410.2279307511118 72.33425243162412
3324.314581788087 -417.3107228307922 73.58313977401997
3392.431675515589 -420.38857567296816 74.12584827274584
3642.9121797701246 -450.8419537345135 79.49560047871147
3679.932060122597 -451.5713993498732 79.62422142165889
3687.3855210991346 -448.8262994919251 79.14018625196367
3658.2325672380266 -446.38745382661176 78.71015195938504
3579.364115107288 -429.9081724142511 75.80441002369838
3421.106706185584 -403.188306196924 71.09297668866301
3200.6416393191066 -374.3554251236343 66.00896182388365
2969.7961567605557 -345.1678020464477 60.86239637262667
2736.9648978273462 -319.8009978720506 56.389544382332375
2479.9253381238364 -287.9810357402271 50.778826533370314
2228.616350984271 -257.1532397586265 45.34305434603818
1969.5657349992937 -226.8750123071007 40.004185918306526
1727.2470472968112 -197.9908184253705 34.91112322094317

VECTORS D float
90.66310475243357 -30.69770917496851 4.728091173034654
59.128828393885335 -36.9863707114969 5.881446836159866
12.094322029657707 -10.964540363591883 1.7574850780867501
525.0856954989366 -620.6080927298445 100.23879094889293
509.98725171158316 -740.0646599147934 120.10223195206284
467.5696462863384 -801.8649193318946 130.63882279734037
406.5608598479084 -801.0450961696166 130.83735732003953
342.9770642803017 -760.9800528612515 124.56286731535626
306.357252933231 -753.6694370076121 123.58218825468353
318.67162763772546 -858.58941075151 140.98936947721813
356.07216331219774 -1040.1978472418184 171.02397904690093
352.73395719473234 -1108.053984266926 182.3833859662275
318.86742032980567 -1069.6525166329009 176.24340950248776
276.09720729909407 -983.0709594316496 162.27765286743983
257.10797910308327 -966.5061187556328 159.68366822800598
243.47236198736883 -962.0524057542327 159.07689595247925
213.78367779713835 -884.5336751176202 146.36889965003567
195.2904253316987 -843.2115838867445 139.6282539380781
164.06566971284502 -737.0094431804487 122.12092163206722
160.85308029850944 -749.7190514403434 124.30114913984605
154.63472132334317 -745.9523354424423 123.74507751457752
155.70180300435027 -775.6312042047929 128.68285045124483
159.574956373153 -819.0294338118141 135.96977804811257
147.61034809543017 -779.0549106147679 129.41297995586135
153.80832790406382 -833.1900204353517 138.48807713799116
153.49213091526875 -851.9371976099326 141.68645524132415
150.62013278174834 -855.1654905990395 142.3047040621122
148.41659880822024 -860.6472687865406 143.2980603970509
146.66181934994447 -867.3703630037996 144.49900066800683
145.49570130967294 -876.3735438277605 146.0813671868301
144.8665335712329 -887.5681543050212 148.0312387399737
144.23955186662135 -897.8220475357188 149.82664834611182
136.23645160553 -860.5625377913858 143.690907952793
135.18522093020377 -866.0569111378625 144.71234140396325
135.29490717586307 -877.8522507143525 146.76233843936242
135.61510149505727 -890.3808176453626 148.9382838262055
135.33369227616663 -898.3197668644615 150.34893507412735
143.04460545861042 -959.1922893170077 160.62518350934573
141.9196938558979 -960.6342553215972 160.9542523458509
139.84204807792074 -954.82628763698 160.06676095479241
137.23850687824185 -944.5819104580476 158.43201728980512
131.83646629292176 -914.1053459331401 153.3977244585293
123.67641912477876 -863.221028707532 144.94485709885902
114.24155041548161 -802.2897171333062 134.77454051208008
104.81041741750289 -740.1777395652922 124.39313941928012
96.09875968395983 -682.077144692785 114.67382012804697
86.2413838620682 -614.8674475139976 103.4113679694562
76.81517575277772 -549.8370215276303 92.50421856813671
67.48189455883993 -484.69743879365444 81.56860255507607
58.78578437307669 -423.4782333859384 71.2838862169417
90.66310475243357 -30.69770917496851 4.728091173034654
59.128828393885335 -36.9863707114969 5.881446836159866
12.094322029657707 -10.964540363591883 1.7574850780867501
525.0856954989366 -620.6080927298445 100.23879094889293
509.98725171158316 -740.0646599147934 120.10223195206284
467.5696462863384 -801.8649193318946 130.63882279734037
406.5608598479084 -801.0450961696166 130.83735732003953
342.9770642803017 -760.9800528612515 124.56286731535626
306.357252933231 -753.6694370076121 123.58218825468353
318.67162763772546 -858.58941075151 140.98936947721813
356.07216331219774 -1040.1978472418184 171.02397904690093
352.73395719473234 -1108.053984266926 182.3833859662275
318.86742032980567 -1069.6525166329009 176.24340950248776
276.09720729909407 -983.0709594316496 162.27765286743983
257.10797910308327 -966.5061187556328 159.68366822800598
243.47236198736883 -962.0524057542327 159.07689595247925
213.78367779713835 -884.5336751176202 146.36889965003567
195.2904253316987 -843.2115838867445 139.6282539380781
164.06566971284502 -737.0094431804487 122.12092163206722
160.85308029850944 -749.7190514403434 124.30114913984605
154.63472132334317 -745.9523354424423 123.74507751457752
155.70180300435027 -775.6312042047929 128.68285045124483
159.574956373153 -819.0294338118141 135.96977804811257
147.61034809543017 -779.0549106147679 129.41297995586135
153.80832790406382 -833.1900204353517 138.48807713799116
153.49213091526875 -851.9371976099326 141.68645524132415
150.62013278174834 -855.1654905990395 142.3047040621122
148.41659880822024 -860.6472687865406 143.2980603970509
146.66181934994447 -867.3703630037996 144.49900066800683
145.49570130967294 -876.3735438277605 146.0813671868301
144.8665335712329 -887.5681543050212 148.0312387399737
144.23955186662135 -897.8220475357188 149.82664834611182
136.23645160553 -860.5625377913858 143.690907952793
135.18522093020377 -866.0569111378625 144.71234140396325
135.29490717586307 -877.8522507143525 146.76233843936242
135.61510149505727 -890.3808176453626 148.9382838262055
135.33369227616663 -898.3197668644615 150.34893507412735
143.04460545861042 -959.1922893170077 160.62518350934573
141.9196938558979 -960.6342553215972 160.9542523458509
139.84204807792074 -954.82628763698 160.06676095479241
137.23850687824185 -944.5819104580476 158.43201728980512
131.83646629292176 -914.1053459331401 153.3977244585293
123.67641912477876 -863.221028707532 144.94485709885902
114.24155041548161 -802.2897171333062 134.77454051208008
104.81041741750289 -740.1777395652922 124.39313941928012
96.09875968395983 -682.077144692785 114.67382012804697
86.2413838620682 -614.8674475139976 103.4113679694562
76.81517575277772 -549.8370215276303 92.50421856813671
67.48189455883993 -484.69743879365444 81.56860255507607
58.78578437307669 -423.4782333859384 71.2838862169417

VECTORS L float
24.10361018035595 69.40845371248523 -11.553839878311615
79.19774256978133 123.25651588035677 -21.093201059065752
129.70785938033995 139.1677767237746 -24.36317466253125
736.2644974288169 607.1340292357419 -97.86295001510366
780.1345839571295 524.2836455085139 -82.05421718759415
915.2943787147334 520.5096487593391 -81.02829743086893
1060.7719673639092 524.963205481227 -82.15667110667178
1115.5338424073877 490.20197961829007 -76.81738721836973
1168.5562861028352 463.1394374825413 -72.35391063319649
1346.8714313135813 487.4940451930918 -75.55524411339877
1665.2971685297919 555.970383487276 -85.64161238694561
1824.1099641300261 566.3817234743567 -86.8719516871464
1819.5004867496787 529.066389260782 -80.92348985008125
1773.932137729154 485.8955595617029 -74.61221572584915
1863.6736747110424 483.46035897983427 -74.50966786271374
1948.5780459384375 480.8641920475457 -74.23043107708031
1898.9914984206557 447.500022955322 -69.30807529626485
1895.1567679489597 427.9285208587184 -66.40264529498378
1745.9206181277925 378.8874562297813 -58.97435294774035
1843.8811146298406 385.6416616651991 -60.10448225657651
1893.1128217881862 382.5413458742638 -59.665914967745756
2068.996012811108 404.83241553879833 -63.30101959541445
2245.38400179654 426.39818366437646 -66.73829517782549
2192.9176791299187 404.960022135919 -63.44995777191662
2399.5571808045547 431.71032783305134 -67.69637512566553
2560.4863297950624 449.55454066665277 -70.73553625306626
2640.9797074531048 453.26732914873213 -71.43921470129698
2718.527055352264 456.80075482500905 -72.08902392057578
2801.8455890889977 461.6048198220742 -72.95158756324362
2887.123305836355 467.0027695081148 -73.89825456076125
2975.693001220593 473.1820816023783 -74.9637936926789
3059.8908496731756 478.91034985518604 -75.96121351064689
2961.1776838835467 456.68515551413674 -72.47642855940782
3038.279849557063 461.9784348113073 -73.46240370402553
3114.886661393453 467.62431996324085 -74.42808600773832
3188.69948029303 473.07009481457067 -75.35514405218554
3257.0979832394232 477.93119119149316 -76.22308680138154
3499.8675743115145 508.3503355824945 -81.12958303063432
3538.0123662666997 509.06285597172405 -81.33003092419203
3547.5434730212146 505.9999881450549 -80.92657470282874
3520.994060359785 498.19445663143574 -79.72186533042009
3447.5276488143663 484.19717351888914 -77.59331443483092