# vtk DataFile Version 4.0
[MyVLM domain - lattices] 
ASCII
DATASET UNSTRUCTURED_GRID
POINTS 152 float
0.0 1.981727867177816 1.0590459663304015
0.0 4.135531479843079 0.43788291770329524
0.0 6.238462789955438 -0.20295224864055283
0.0 8.305203507478799 -0.8231218660963306
0.0 10.335871276247289 -1.4223027108862367
0.0 12.317840085836965 -2.035184461547848
0.0 14.24065116812263 -2.6905023473404555
0.0 16.101604915758873 -3.395673478486984
0.0 17.917164235725526 -4.1054663898017445
0.0 19.69406998842203 -4.801360719549583
0.0 21.432237283446597 -5.483589702192543
0.0 23.13154188450347 -6.152494674147889
0.0 24.791847164250044 -6.808451015954321
0.0 26.412028707677567 -7.454548032458467
0.0 27.992836675200856 -8.08872467485964
0.0 29.535915440904827 -8.706463062490444
0.0 31.041509779301368 -9.307090682906543
0.0 32.50921632372581 -9.89171577691093
0.0 33.93874447038363 -10.461136771867018
0.0 35.33009430307414 -11.015353437538147
0.0 36.68326590335865 -11.554365549836405
0.0 37.99825935056053 -12.078172890822637
0.0 39.275074721765186 -12.586775248706438
0.0 40.51371209182007 -13.080172417846164
0.0 41.71417153333463 -13.55836419874892
0.0 42.876453116680395 -14.021350398070556
0.0 44.000556909990905 -14.469130828615695
0.0 45.08648297916177 -14.901705309337702
0.0 46.1342319340708 -15.319072164610983
0.0 47.14381133876577 -15.721210612385132
0.0 48.115222730880376 -16.10811642804623
0.0 49.04846502811749 -16.47979258518127
0.0 49.94353719071564 -16.836241940511353
0.0 50.80043822144908 -17.177467233891743
0.0 51.619167165627736 -17.503471088311834
0.0 52.39972311109724 -17.81425600989514
0.0 53.14196085915506 -18.11022092879825
0.0 53.84542126575023 -18.392627332933426
0.0 54.509375732960486 -18.663477028640024
0.0 55.13344523475113 -18.923811381389687
0.0 55.71789534443432 -19.172900734504115
0.0 56.26263916354972 -19.41098383954073
0.0 56.76364883037229 -19.649127155637913
0.0 57.22101578127601 -19.887079463422776
0.0 57.637789685754896 -20.11646186482374
0.0 58.01604880746645 -20.331564377370107
0.0 58.3563193848682 -20.53094117278255
0.0 58.65809832826633 -20.715974478634877
0.0 58.92182664395071 -20.88545264010376
0.0 59.14837801701941 -21.036975227110577
0.0 59.338508771885664 -21.168464255408143
-0.7686761955390344 0.8691618669649612 -1.9977039969073704
-0.8409029948616161 2.9199825231370697 -2.9018103930880983
-0.8940476007249757 4.945454650939614 -3.755462913757579
-0.9506443374492793 6.929549042255437 -4.602701446269448
-1.0210144815146838 8.872759138984387 -5.442170270146061
-1.048631451549771 10.785523292125035 -6.245190251722489
-0.9920275022819518 12.674955844427611 -6.9922148949382334
-0.9074715353829097 14.547921098148395 -7.664384684343828
-0.8388231939293685 16.390697415666683 -8.299399509460125
-0.7803448823218929 18.196315283072693 -8.916407952378805
-0.7251531968841737 19.964012309441483 -9.517504664950955
-0.671766762046156 21.692711694987153 -10.1056481302736
-0.6188683613166902 23.383859908575396 -10.676864207800307
-0.5668565661826578 25.03793198066293 -11.229847762077698
-0.5162677046190278 26.65464150489383 -11.765385688101453
-0.4681223452427161 28.23206261607242 -12.288769257009612
-0.42442582165628834 29.769973682521503 -12.800607396830696
-0.3846819074085718 31.26877953562432 -13.299787842480596
-0.3476243488905531 32.728736982641806 -13.785605021808701
-0.3131098246080671 34.14982746678812 -14.258109919165154
-0.28048746260446866 35.532019480126365 -14.717389101895014
-0.2502235469699514 36.87531705055051 -15.163431503450624
-0.2227998260917326 38.179720019546586 -15.596237559345505
-0.19746739264611052 39.44519758222645 -16.015891905314255
-0.17533279734900953 40.67176201713054 -16.42236080634427
-0.15613374469432648 41.859393296774385 -16.815699287496916
-0.13998404755873647 43.00808072070832 -17.195936748015967
-0.12578653595324127 44.11779603526177 -17.563150814223455
-0.11250427274737486 45.1885184142534 -17.917398705582244
-0.10008179164308317 46.22024376348843 -18.258691670800065
-0.08845752889585208 47.212969107391515 -18.58703788520299
-0.07764231497362577 48.16669288926412 -18.902441625785123
-0.06766212708627829 49.08141361037843 -19.204907010267195
-0.0584684819534103 49.95712904260132 -19.494440160394767
-0.050013688763705585 50.79383717234305 -19.771046608460125
-0.042252254921319045 51.591536198648576 -20.034731302546597
-0.03513536582041269 52.35033714707749 -20.285189202436236
-0.028615518964613278 53.07059731925778 -20.52143862997417
-0.022687693716904638 53.75327718734904 -20.740840709589964
-0.017408965386693863 54.39887354775108 -20.94203050439305
-0.013252482528008399 55.00657783701232 -21.12722952420878
-0.010166684094042405 55.576431365958314 -21.296324268476816
-0.00760098697125575 56.11320732940572 -21.43620049221975
-0.005464879873870877 56.61692131034888 -21.54681538151246
-0.0039015967321000085 57.08397613340612 -21.638052094489968
-0.002883995165670249 57.511990876303244 -21.716452161338033
-0.0022477517166190047 57.900544009350604 -21.783173725360616
-0.00179874084072329 58.25053891658146 -21.835734759325227
-0.0014595970466816986 58.56161458900736 -21.87512712727593
-0.0012027506489664258 58.8328165660574 -21.903973188079046
-0.0010073243559101815 59.063318604695304 -21.924543025819617
-0.603592196400244 2.185586564665873 -1.6502017857440892
-0.6506064733449719 4.246288224003571 -2.4671111564342865
-0.6917594768153456 6.271084672127424 -3.262570899352246
-0.7393720571114861 8.255999915930694 -4.047504965778636
-0.7761172248991705 10.203569831926565 -4.814946092254966
-0.7652471076868961 12.117491082952192 -5.554737781108809
-0.712312139124323 14.001360863951186 -6.256996820459203
-0.6548605234921042 15.854328086616201 -6.924061556212574
-0.607188028594223 17.67153404004571 -7.569281186858515
-0.564561779702275 19.450911256176393 -8.198336034216426
-0.5238449845988737 21.191743897654497 -8.813192845251761
-0.48398817126106725 22.894137982430145 -9.413560338040492
-0.4446468478122555 24.55865644245532 -9.997891869755849
-0.4061716015506322 26.185323229943588 -10.566121632231946
-0.369146268698154 27.773608059875553 -11.119706571585409
-0.3347055625871267 29.322941764498495 -11.66021046336474
-0.3034153983993225 30.83337321968308 -12.187499022218919
-0.27461484611217185 32.30506379361348 -12.70112889270573
-0.24777531506198255 33.73806651521844 -13.200954379040839
-0.22259898270470088 35.13236263089703 -13.687027006319381
-0.19901662859040753 36.48794185574373 -14.159375032086997
-0.1773837648981315 37.804805660327126 -14.617994415989683
-0.15760020702669117 39.08294245236305 -15.062917007566485
-0.13980007124817 40.32234530290321 -15.49416184394633
-0.124299953266251 41.523011323966216 -15.91173685979288
-0.11104417209489861 42.68492900988992 -16.31567366665311
-0.09966396881699166 43.808083769632866 -16.706012353083956
-0.08935905326273105 44.892457282722255 -17.08280325417072
-0.07971977414642176 45.93804122575775 -17.44606923826788
-0.07070224520210072 46.94483408528574 -17.795814463555065
-0.06228744145105419 47.912834218620596 -18.13204344327398
-0.05448916577246402 48.8420402147201 -18.454760054231194
-0.04729897838988322 49.732450421387995 -18.76396883579862
-0.04068081401891846 50.58406300398874 -19.05967482859603
-0.03459972888188424 51.39687629871248 -19.34188260390339
-0.029020357778149403 52.170913000928806 -19.610529806705234
-0.023906581794384738 52.906273190488896 -19.86534146987036
-0.019238704755569217 53.603302564816396 -20.105367797533233
-0.015036247163849435 54.26240914662649 -20.329487756497343
-0.011498042968013347 54.88346184168446 -20.53806152521241
-0.00878218748326905 55.46619526461199 -20.731818244012704
-0.006662876649486808 56.011900510001766 -20.907210659658542
-0.004899700066922485 56.521881316364016 -21.060656780032165
-0.0035124287272390825 56.99518722478699 -21.19476796953172
-0.0025445969616638467 57.430217440293674 -21.31394237620973
-0.0019244050808584702 57.82624660616202 -21.420172901281074
-0.0015174347090033604 58.183458311366344 -21.512955138184367
-0.0012218767077768707 58.50204818612294 -21.591751597317764
-0.0009983803858680466 58.78168726577054 -21.657466101659907
-0.0008287781268287279 59.02191153764538 -21.711373515526837

CELLS 100 350
4 0 51 52 1
4 1 52 53 2
4 2 53 54 3
4 3 54 55 4
4 4 55 56 5
4 5 56 57 6
4 6 57 58 7
4 7 58 59 8
4 8 59 60 9
4 9 60 61 10
4 10 61 62 11
4 11 62 63 12
4 12 63 64 13
4 13 64 65 14
4 14 65 66 15
4 15 66 67 16
4 16 67 68 17
4 17 68 69 18
4 18 69 70 19
4 19 70 71 20
4 20 71 72 21
4 21 72 73 22
4 22 73 74 23
4 23 74 75 24
4 24 75 76 25
4 25 76 77 26
4 26 77 78 27
4 27 78 79 28
4 28 79 80 29
4 29 80 81 30
4 30 81 82 31
4 31 82 83 32
4 32 83 84 33
4 33 84 85 34
4 34 85 86 35
4 35 86 87 36
4 36 87 88 37
4 37 88 89 38
4 38 89 90 39
4 39 90 91 40
4 40 91 92 41
4 41 92 93 42
4 42 93 94 43
4 43 94 95 44
4 44 95 96 45
4 45 96 97 46
4 46 97 98 47
4 47 98 99 48
4 48 99 100 49
4 49 100 101 50
1 102
1 103
1 104
1 105
1 106
1 107
1 108
1 109
1 110
1 111
1 112
1 113
1 114
1 115
1 116
1 117
1 118
1 119
1 120
1 121
1 122
1 123
1 124
1 125
1 126
1 127
1 128
1 129
1 130
1 131
1 132
1 133
1 134
1 135
1 136
1 137
1 138
1 139
1 140
1 141
1 142
1 143
1 144
1 145
1 146
1 147
1 148
1 149
1 150
1 151

CELL_TYPES 100
9
9
9
9
9
9
9
9
9
9
9
9
9
9
9
9
9
9
9
9
9
9
9
9
9
9
9
9
9
9
9
9
9
9
9
9
9
9
9
9
9
9
9
9
9
9
9
9
9
9
1
1
1
1
1
1
1
1
1
1
1
1
1
1
1
1
1
1
1
1
1
1
1
1
1
1
1
1
1
1
1
1
1
1
1
1
1
1
1
1
1
1
1
1
1
1
1
1
1
1

CELL_DATA 100

VECTORS S float
-1.3718768275491159e-17 3.0970906452268534e-15 -1.7405791605616521e-15
-3.638045546088119e-17 6.182749404613288e-15 -3.5013403428343344e-15
-0.0 0.0 -0.0
0.0 0.0 -0.0
0.0 0.0 -0.0
0.0 0.0 -0.0
0.0 0.0 -0.0
-6.062982663179697e-17 -2.477638056073748e-14 1.3925546929293249e-14
6.323585188408203e-17 2.477383431353861e-14 -1.3930064665273077e-14
7.043584838657934e-17 2.4768274193952008e-14 -1.3939913887495474e-14
0.0 0.0 -0.0
7.272921448993216e-17 2.4757963908671677e-14 -1.3958205490126102e-14
1.4635002230051749e-16 4.950750722479817e-14 -2.7931336843101406e-14
-6.891714023595104e-17 -2.4749369627468697e-14 1.3973457711569748e-14
-6.306263657994222e-17 -2.4745230799500988e-14 1.398081337868478e-14
-1.182036919355526e-16 -4.9483442310734816e-14 2.7974081446093225e-14
0.0 0.0 -0.0
5.1669746045404745e-17 2.473659737734352e-14 -1.3996129728423539e-14
0.0 0.0 -0.0
0.0 0.0 -0.0
0.0 0.0 -0.0
0.0 0.0 -0.0
0.0 0.0 -0.0
-7.591108804084169e-17 -4.9451205678921297e-14 2.8031174827199058e-14
0.0 0.0 -0.0
-3.457794467479886e-17 -2.4722640166514993e-14 1.4020821463419237e-14
0.0 0.0 -0.0
0.0 0.0 -0.0
0.0 0.0 -0.0
-2.961432884244873e-17 -2.471624661478681e-14 1.4032100456271067e-14
-5.74131078441782e-17 -4.9429658697858784e-14 2.8069196862993894e-14
0.0 0.0 -0.0
0.0 0.0 -0.0
-2.6413477513205297e-17 -2.4710549715719756e-14 1.4042136661543493e-14
-2.575481487412066e-17 -2.4709124227399335e-14 1.4044646081364028e-14
0.0 0.0 -0.0
-2.458169975361596e-17 -2.4706595545843633e-14 1.404909602858679e-14
-4.8044090045252596e-17 -4.941019821629282e-14 2.8103456580593953e-14
-2.342547885018132e-17 -2.4703650911465876e-14 1.4054275144513432e-14
2.286257826297771e-17 2.470226064299866e-14 -1.4056719509693257e-14
-4.49805146998623e-17 -4.940188867519286e-14 2.8118066076144217e-14
2.1951017404030458e-17 2.4699678962366743e-14 -1.4061256851902267e-14
0.0 0.0 -0.0
-2.077599297104968e-17 -2.4697346181206367e-14 1.4065355555764792e-14
-2.0382400511656108e-17 -2.4696307852084996e-14 1.4067179176334908e-14
2.024763633221077e-17 2.4695370023758968e-14 -1.4068825692614356e-14
1.99080987873768e-17 2.469450306007135e-14 -1.4070347871678414e-14
0.0 0.0 -0.0
-2.90647914641468e-17 -3.703956750904358e-14 2.1109360947459108e-14
0.0 0.0 -0.0
-1.3718768275491159e-17 3.0970906452268534e-15 -1.7405791605616521e-15
-3.638045546088119e-17 6.182749404613288e-15 -3.5013403428343344e-15
-0.0 0.0 -0.0
0.0 0.0 -0.0
0.0 0.0 -0.0
0.0 0.0 -0.0
0.0 0.0 -0.0
-6.062982663179697e-17 -2.477638056073748e-14 1.3925546929293249e-14
6.323585188408203e-17 2.477383431353861e-14 -1.3930064665273077e-14
7.043584838657934e-17 2.4768274193952008e-14 -1.3939913887495474e-14
0.0 0.0 -0.0
7.272921448993216e-17 2.4757963908671677e-14 -1.3958205490126102e-14
1.4635002230051749e-16 4.950750722479817e-14 -2.7931336843101406e-14
-6.891714023595104e-17 -2.4749369627468697e-14 1.3973457711569748e-14
-6.306263657994222e-17 -2.4745230799500988e-14 1.398081337868478e-14
-1.182036919355526e-16 -4.9483442310734816e-14 2.7974081446093225e-14
0.0 0.0 -0.0
5.1669746045404745e-17 2.473659737734352e-14 -1.3996129728423539e-14
0.0 0.0 -0.0
0.0 0.0 -0.0
0.0 0.0 -0.0
0.0 0.0 -0.0
0.0 0.0 -0.0
-7.591108804084169e-17 -4.9451205678921297e-14 2.8031174827199058e-14
0.0 0.0 -0.0
-3.457794467479886e-17 -2.4722640166514993e-14 1.4020821463419237e-14
0.0 0.0 -0.0
0.0 0.0 -0.0
0.0 0.0 -0.0
-2.961432884244873e-17 -2.471624661478681e-14 1.4032100456271067e-14
-5.74131078441782e-17 -4.9429658697858784e-14 2.8069196862993894e-14
0.0 0.0 -0.0
0.0 0.0 -0.0
-2.6413477513205297e-17 -2.4710549715719756e-14 1.4042136661543493e-14
-2.575481487412066e-17 -2.4709124227399335e-14 1.4044646081364028e-14
0.0 0.0 -0.0
-2.458169975361596e-17 -2.4706595545843633e-14 1.404909602858679e-14
-4.8044090045252596e-17 -4.941019821629282e-14 2.8103456580593953e-14
-2.342547885018132e-17 -2.4703650911465876e-14 1.4054275144513432e-14
2.286257826297771e-17 2.470226064299866e-14 -1.4056719509693257e-14
-4.49805146998623e-17 -4.940188867519286e-14 2.8118066076144217e-14
2.1951017404030458e-17 2.4699678962366743e-14 -1.4061256851902267e-14
0.0 0.0 -0.0
-2.077599297104968e-17 -2.4697346181206367e-14 1.4065355555764792e-14
-2.0382400511656108e-17 -2.4696307852084996e-14 1.4067179176334908e-14
2.024763633221077e-17 2.4695370023758968e-14 -1.4068825692614356e-14
1.99080987873768e-17 2.469450306007135e-14 -1.4070347871678414e-14
0.0 0.0 -0.0
-2.90647914641468e-17 -3.703956750904358e-14 2.1109360947459108e-14
0.0 0.0 -0.0

SCALARS Gamma float
LOOKUP_TABLE default
-0.0
-0.0
-0.0
53.406105845790584
57.9812498554481
57.814037506946846
55.080224651046464
49.97017465410665
46.41069721671052
49.61634792225106
57.08927801219458
57.802445198926065
54.64886525892779
50.003395510882534
49.01926240599631
48.24743177861099
44.6874611548391
42.310460502935115
37.612845286681875
38.126470667074585
37.463275460136856
38.82522457964024
40.15502591049255
37.62200886115157
39.594272460107256
40.91856769655744
40.974366049016716
40.99543986089315
41.18894714266623
41.3788950876731
41.637455436194166
41.86808868042085
39.711836427053804
39.964803128885805
40.2250010290101
40.50532734589232
40.701145429785996
43.07180310045209
42.91808248841134
42.46583597300405
41.65676630981211
40.32938334662143
38.159618158065854
35.387038277563455
32.60370737505032
29.81797429096767
26.85459738967976
23.9708463573293
21.08826913743233
18.42136301131555
-0.0
-0.0
-0.0
53.406105845790584
57.9812498554481
57.814037506946846
55.080224651046464
49.97017465410665
46.41069721671052
49.61634792225106
57.08927801219458
57.802445198926065
54.64886525892779
50.003395510882534
49.01926240599631
48.24743177861099
44.6874611548391
42.310460502935115
37.612845286681875
38.126470667074585
37.463275460136856
38.82522457964024
40.15502591049255
37.62200886115157
39.594272460107256
40.91856769655744
40.974366049016716
40.99543986089315
41.18894714266623
41.3788950876731
41.637455436194166
41.86808868042085
39.711836427053804
39.964803128885805
40.2250010290101
40.50532734589232
40.701145429785996
43.07180310045209
42.91808248841134
42.46583597300405
41.65676630981211
40.32938334662143
38.159618158065854
35.387038277563455
32.60370737505032
29.81797429096767
26.85459738967976
23.9708463573293
21.08826913743233
18.42136301131555

VECTORS Ftot float
122.74007270951441 20.45506477577927 35.429211463762236
147.16565884424506 45.276550160023525 78.42128526860164
150.03221435570944 66.90082290633762 115.8756243419447
1372.4544953420905 -1.610791413399245 -2.7899725684031793
1400.2740047377433 -120.82293058752894 -209.27145449696823
1491.9136642086346 -154.39012101515857 -267.4115337849625
1565.4265296155263 -147.45889236100294 -255.40629359708768
1546.211434088708 -142.77010964904494 -247.28508371432582
1547.0137036831743 -151.37491539421694 -262.1890444542243
1761.4835909163573 -198.94902258918802 -344.5898152406424
2159.625976735882 -263.2039528323319 -455.8826190585618
2328.1981619129865 -291.12028630013924 -504.23512698583966
2331.570205804485 -302.2334070032854 -523.4836166743344
2260.6116961522457 -285.0092986006347 -493.65058580586924
2342.955088240069 -278.90977270014054 -483.0858970441311
2425.6412077405216 -278.1224388553064 -481.7221948223599
2357.4270632645794 -255.37112217986072 -442.31575840139885
2332.4441040146803 -243.67030723162273 -422.0493524210893
2162.5633199747404 -212.8794045469814 -368.7179445603814
2276.009889469093 -218.37241202727571 -378.23211260260706
2317.4847722370446 -217.6360832034983 -376.9567536687471
2487.748230896783 -218.05933501795067 -377.68984731577433
2654.981798299134 -228.4549518743139 -395.6955838870149
2562.297746687601 -216.16991410013307 -374.4172742892308
2772.751605058836 -230.13738691624718 -398.60964686007765
2944.5860236124918 -232.53223276343837 -402.7576415437082
3023.860194697629 -231.56558344527562 -401.0833558115485
3097.394016903192 -231.94715112968237 -401.7442504274673
3181.7186067403472 -233.29833929111024 -404.084576973646
3263.8491861557964 -234.6402751619476 -406.40887808243554
3349.404468585904 -236.7104889120514 -409.994593480143
3430.8717096827054 -238.58989178677743 -413.2498147470595
3310.7717664625816 -228.68966373932983 -396.1021167623618
3387.111293846513 -230.07356623817708 -398.4991062030867
3461.8561996384597 -232.7415117668594 -403.1201234105907
3535.850426044283 -236.52357801603821 -409.67085431175997
3601.615592587544 -237.45325150644877 -411.2810960316009
3859.6646776600496 -252.7784016113084 -437.8250346468373
3891.531746804595 -252.57089828666847 -437.46562834582164
3893.0427503826027 -250.50077204283735 -433.8800645134243
3857.493426736012 -247.88510050541262 -429.34958851469287
3770.0515736906764 -239.96585741239642 -415.6330571200999
3599.064216927595 -224.68776140326727 -389.17061858937285
3364.224673334309 -208.37108714845527 -360.9093097694874
3122.087058053427 -192.11405471203176 -332.7513036093066
2873.471590446803 -177.67953549450658 -307.74998294172354
2603.070590902679 -159.97184678896315 -277.07936641910874
2335.6222344324024 -142.57447795835768 -246.94623968648483
2063.9109268680363 -125.73763361773992 -217.78396984940636
1809.8424905450643 -109.72763448448586 -190.0538379214766
122.74007270951441 20.45506477577927 35.429211463762236
147.16565884424506 45.276550160023525 78.42128526860164
150.03221435570944 66.90082290633762 115.8756243419447
1372.4544953420905 -1.610791413399245 -2.7899725684031793
1400.2740047377433 -120.82293058752894 -209.27145449696823
1491.9136642086346 -154.39012101515857 -267.4115337849625
1565.4265296155263 -147.45889236100294 -255.40629359708768
1546.211434088708 -142.77010964904494 -247.28508371432582
1547.0137036831743 -151.37491539421694 -262.1890444542243
1761.4835909163573 -198.94902258918802 -344.5898152406424
2159.625976735882 -263.2039528323319 -455.8826190585618
2328.1981619129865 -291.12028630013924 -504.23512698583966
2331.570205804485 -302.2334070032854 -523.4836166743344
2260.6116961522457 -285.0092986006347 -493.65058580586924
2342.955088240069 -278.90977270014054 -483.0858970441311
2425.6412077405216 -278.1224388553064 -481.7221948223599
2357.4270632645794 -255.37112217986072 -442.31575840139885
2332.4441040146803 -243.67030723162273 -422.0493524210893
2162.5633199747404 -212.8794045469814 -368.7179445603814
2276.009889469093 -218.37241202727571 -378.23211260260706
2317.4847722370446 -217.6360832034983 -376.9567536687471
2487.748230896783 -218.05933501795067 -377.68984731577433
2654.981798299134 -228.4549518743139 -395.6955838870149
2562.297746687601 -216.16991410013307 -374.4172742892308
2772.751605058836 -230.13738691624718 -398.60964686007765
2944.5860236124918 -232.53223276343837 -402.7576415437082
3023.860194697629 -231.56558344527562 -401.0833558115485
3097.394016903192 -231.94715112968237 -401.7442504274673
3181.7186067403472 -233.29833929111024 -404.084576973646
3263.8491861557964 -234.6402751619476 -406.40887808243554
3349.404468585904 -236.7104889120514 -409.994593480143
3430.8717096827054 -238.58989178677743 -413.2498147470595
3310.7717664625816 -228.68966373932983 -396.1021167623618
3387.111293846513 -230.07356623817708 -398.4991062030867
3461.8561996384597 -232.7415117668594 -403.1201234105907
3535.850426044283 -236.52357801603821 -409.67085431175997
3601.615592587544 -237.45325150644877 -411.2810960316009
3859.6646776600496 -252.7784016113084 -437.8250346468373
3891.531746804595 -252.57089828666847 -437.46562834582164
3893.0427503826027 -250.50077204283735 -433.8800645134243
3857.493426736012 -247.88510050541262 -429.34958851469287
3770.0515736906764 -239.96585741239642 -415.6330571200999
3599.064216927595 -224.68776140326727 -389.17061858937285
3364.224673334309 -208.37108714845527 -360.9093097694874
3122.087058053427 -192.11405471203176 -332.7513036093066
2873.471590446803 -177.67953549450658 -307.74998294172354
2603.070590902679 -159.97184678896315 -277.07936641910874
2335.6222344324024 -142.57447795835768 -246.94623968648483
2063.9109268680363 -125.73763361773992 -217.78396984940636
1809.8424905450643 -109.72763448448586 -190.0538379214766

VECTORS D float
98.19027262384789 -15.706979588432194 -28.722042799251117
66.32768752604593 -19.817940198900263 -35.6841601254153
17.101232509146676 -7.437951159716227 -13.31627919653868
585.0093055474956 -332.4944431948109 -593.5501467479595
574.6072069042593 -401.3821924835432 -715.1856730286098
523.9606510329281 -432.6713394624049 -769.8207058149486
449.6236879931824 -427.12633444462364 -759.0082656001266
376.56247182804844 -403.2556517724942 -715.8343313059723
332.47481359635196 -394.9972320801919 -700.9710211996239
350.9593314500299 -456.9483242721606 -810.127046761039
396.7533792402662 -560.3748090420204 -992.6999897775122
391.4452315450051 -594.7206041983231 -1052.828872642327
364.16938130766704 -590.9577864225662 -1045.5479036981073
321.1754014305608 -553.3494544527239 -978.4919361731763
300.48761586427736 -546.8319630492335 -966.5055406206003
285.0115039311606 -545.4171475386372 -963.5858319583695
252.71014344022527 -506.57776468410884 -894.6104928334855
231.0982212474143 -483.8958777990806 -854.3788138076637
196.83409195548 -428.95516252486397 -757.2672951440151
194.1503743456524 -439.08267102245804 -774.8195964182889
186.23307206347388 -435.99273614979205 -769.1949474808301
184.76172232880518 -446.75432834041516 -788.0074065269176
187.11042016370024 -466.3185898660313 -822.3379543969367
171.72361898032895 -440.2501908686606 -776.2024655120556
177.45306702486272 -467.1426215045601 -823.4449130460335
177.5938511297757 -479.23765071378375 -844.5923937751971
173.89543011741532 -480.0685576574635 -845.9209065223939
170.7953405467847 -481.80215488981156 -848.8060331382314
168.8474180186278 -485.74508954855304 -855.427196535154
166.97928623236044 -489.44410927239113 -861.7581072144176
165.7030818533347 -494.2542541013487 -870.0393417199134
164.49163510465573 -498.6883145866806 -877.6524832562146
154.7502660342989 -476.32162024565645 -838.1033482602616
153.8688826158138 -480.34264626761694 -844.9901118966282
153.52221664020846 -485.6003651653646 -854.0482787522043
153.7351364069606 -492.05478476702194 -865.2687354281684
152.96220788984274 -495.20422186632203 -870.5934051763874
160.89468507735242 -526.4409788651652 -925.2891366439802
159.23027176480863 -526.1488426814027 -924.5633202778366
156.55122804768644 -522.0338728438148 -917.1298906454347
153.12655163681194 -514.9334490229622 -904.4646649520234
147.309785744593 -499.2324352815905 -876.7101980444528
137.92361962946677 -470.7645847845119 -826.5601729047811
127.23347109472974 -437.1125943959161 -767.3377057173999
116.70405548741927 -403.3162549347769 -707.8920059233549
106.8162699957852 -371.1188096902459 -651.2806222269495
95.81799330762772 -334.4969243565249 -586.9313142323304
85.1793867749745 -298.612211056744 -523.9006171141211
74.79871010630487 -263.1828649606186 -461.69116674251615
65.14570818804388 -229.9351915671077 -403.32819226594796
98.19027262384789 -15.706979588432194 -28.722042799251117
66.32768752604593 -19.817940198900263 -35.6841601254153
17.101232509146676 -7.437951159716227 -13.31627919653868
585.0093055474956 -332.4944431948109 -593.5501467479595
574.6072069042593 -401.3821924835432 -715.1856730286098
523.9606510329281 -432.6713394624049 -769.8207058149486
449.6236879931824 -427.12633444462364 -759.0082656001266
376.56247182804844 -403.2556517724942 -715.8343313059723
332.47481359635196 -394.9972320801919 -700.9710211996239
350.9593314500299 -456.9483242721606 -810.127046761039
396.7533792402662 -560.3748090420204 -992.6999897775122
391.4452315450051 -594.7206041983231 -1052.828872642327
364.16938130766704 -590.9577864225662 -1045.5479036981073
321.1754014305608 -553.3494544527239 -978.4919361731763
300.48761586427736 -546.8319630492335 -966.5055406206003
285.0115039311606 -545.4171475386372 -963.5858319583695
252.71014344022527 -506.57776468410884 -894.6104928334855
231.0982212474143 -483.8958777990806 -854.3788138076637
196.83409195548 -428.95516252486397 -757.2672951440151
194.1503743456524 -439.08267102245804 -774.8195964182889
186.23307206347388 -435.99273614979205 -769.1949474808301
184.76172232880518 -446.75432834041516 -788.0074065269176
187.11042016370024 -466.3185898660313 -822.3379543969367
171.72361898032895 -440.2501908686606 -776.2024655120556
177.45306702486272 -467.1426215045601 -823.4449130460335
177.5938511297757 -479.23765071378375 -844.5923937751971
173.89543011741532 -480.0685576574635 -845.9209065223939
170.7953405467847 -481.80215488981156 -848.8060331382314
168.8474180186278 -485.74508954855304 -855.427196535154
166.97928623236044 -489.44410927239113 -861.7581072144176
165.7030818533347 -494.2542541013487 -870.0393417199134
164.49163510465573 -498.6883145866806 -877.6524832562146
154.7502660342989 -476.32162024565645 -838.1033482602616
153.8688826158138 -480.34264626761694 -844.9901118966282
153.52221664020846 -485.6003651653646 -854.0482787522043
153.7351364069606 -492.05478476702194 -865.2687354281684
152.96220788984274 -495.20422186632203 -870.5934051763874
160.89468507735242 -526.4409788651652 -925.2891366439802
159.23027176480863 -526.1488426814027 -924.5633202778366
156.55122804768644 -522.0338728438148 -917.1298906454347
153.12655163681194 -514.9334490229622 -904.4646649520234
147.309785744593 -499.2324352815905 -876.7101980444528
137.92361962946677 -470.7645847845119 -826.5601729047811
127.23347109472974 -437.1125943959161 -767.3377057173999
116.70405548741927 -403.3162549347769 -707.8920059233549
106.8162699957852 -371.1188096902459 -651.2806222269495
95.81799330762772 -334.4969243565249 -586.9313142323304
85.1793867749745 -298.612211056744 -523.9006171141211
74.79871010630487 -263.1828649606186 -461.69116674251615
65.14570818804388 -229.9351915671077 -403.32819226594796

VECTORS L float
24.54980008566652 36.16204436421147 64.15125426301336
80.83797131819911 65.09449035892379 114.10544539401694
132.9309818465628 74.33877406605384 129.19190353848342
787.4451897945946 330.8836517814115 590.7601741795562
825.6667978334845 280.5592618960143 505.9142185316418
967.9530131757069 278.28121844724626 502.40917202998594
1115.8028416223437 279.6674420836206 503.60197200303884
1169.6489622606596 260.4855421234492 468.54924759164646
1214.5388900868227 243.62231668597502 438.78197674539985
1410.5242594663277 257.9993016829726 465.53723152039663
1762.872597495616 297.1708562096885 536.8173707189507
1936.7529303679814 303.6003178981838 548.593745656487
1967.400824496818 288.72437941928087 522.064287023773
1939.4362947216853 268.3401558520894 484.84135036730754
2042.4674723757919 267.9221903490931 483.4196435764694
2140.6297038093617 267.29470868333084 481.86363713600974
2104.716919824354 251.20664250424818 452.29473443208667
2101.3458827672657 240.22557056745782 432.3294613865745
1965.7292280192603 216.07575797788266 388.5493505836338
2081.8595151234413 220.71025899518244 396.5874838156819
2131.251700173572 218.3566529462938 392.2381938120829
2302.9865085679785 228.69499332246448 410.3175592111433
2467.871378135434 237.86363799171755 426.64237050992205
2390.574127707272 224.0802767685275 401.7851912228248
2595.2985380339737 237.00523458831302 424.8352661859562
2766.9921724827163 246.70541795034526 441.8347522314891
2849.964764580214 248.5029742121879 444.83755071084533
2926.598676356408 249.85500376012928 447.06178271076436
3012.87118872172 252.44675025744297 451.34261956150823
3096.869899923436 254.80383411044343 455.3492291319819
3183.7013867325704 257.5437651892973 460.04474823977057
3266.38007457805 260.0984227999034 464.4026685091556
3156.0215004282827 247.6319565063266 442.00123149789965
3233.2424112307 250.26908002944012 446.49100569354204
3308.3339829982506 252.85885339850523 450.92815534161366
3382.115289637323 255.5312067509838 455.597881116409
3448.6533846977036 257.75097035987335 459.3123091447867
3698.7699925826973 273.66257725385697 487.46410199714336
3732.3014750397865 273.5779443947343 487.0976919320152
3736.4915223349167 271.53310080097754 483.2498261320107
3704.3668750992 267.04834851754975 475.1150764373308
3622.7417879460836 259.266577869194 461.077140924353
3461.140597298129 246.0768233812448 437.3895543154084
3236.991202239579 228.74150724746082 406.42839594791246
3005.3830025660086 211.20220022274512 375.14070231404816
2766.655320451018 193.4392741957393 343.5306392852259
2507.252597595052 174.52507756756174 309.8519478132215
2250.4428476574276 156.03773309838627 276.9543774276362
1989.1122167617314 137.44523134287854 243.9071968931096
1744.6967823570208 120.20755708262182 213.27435434447142
24.54980008566652 36.16204436421147 64.15125426301336