# vtk DataFile Version 4.0
[MyVLM domain - lattices] 
ASCII
DATASET UNSTRUCTURED_GRID
POINTS 152 float
0.0 -1.672968528798375 1.4999999999999882
0.0 -1.825910415997719 3.7363636363636075
0.0 -1.9429672071329582 5.931651205936873
0.0 -2.067065350398478 8.08586270871979
0.0 -2.1985488133541495 10.19899814471235
0.0 -2.3005016111659486 12.27105751391456
0.0 -2.3423443515691393 14.302040816326416
0.0 -2.3161839107284794 16.291948051947923
0.0 -2.270154608511102 18.24077922077908
0.0 -2.2239654022137656 20.14853432281988
0.0 -2.177368088906191 22.01521335807033
0.0 -2.129999425960186 23.840816326530426
0.0 -2.0814599417502486 25.62534322820017
0.0 -2.0284620667261963 27.368794063079562
0.0 -1.9731991232097064 29.0711688311686
0.0 -1.9204789393857202 30.73246753246729
0.0 -1.871017188049213 32.35269016697563
0.0 -1.8236345039710908 33.93183673469361
0.0 -1.777481218498271 35.46990723562124
0.0 -1.7325575766434915 36.96690166975853
0.0 -1.6888638168761263 38.42282003710545
0.0 -1.6464001711221798 39.837662337662024
0.0 -1.6051668647642914 41.21142857142825
0.0 -1.5651641166417307 42.544118738404116
0.0 -1.526392139050404 43.835732838589635
0.0 -1.4888511377428488 45.0862708719848
0.0 -1.4525413119282355 46.29573283858961
0.0 -1.4174628542723673 47.464118738404075
0.0 -1.3836175479387538 48.59142857142819
0.0 -1.3510275087235017 49.67766233766195
0.0 -1.3196972323668392 50.72282003710536
0.0 -1.2896235544435952 51.726901669758405
0.0 -1.260803434894654 52.6899072356211
0.0 -1.2332339580269553 53.61183673469346
0.0 -1.206912332513493 54.49269016697545
0.0 -1.1818358913933154 55.33246753246709
0.0 -1.1575801020610255 56.13116883116839
0.0 -1.1328025171201292 56.888794063079324
0.0 -1.1053728587594946 57.605343228199914
0.0 -1.0741829289911795 58.28081632653015
0.0 -1.0400092122337594 58.91521335807004
0.0 -1.002597634386681 59.50853432281957
0.0 -0.9501715156148727 60.06077922077875
0.0 -0.8829981979909765 60.57194805194758
0.0 -0.8099943186006046 61.04204081632604
0.0 -0.7372363138703001 61.47105751391417
0.0 -0.6662628021177428 61.85899814471194
0.0 -0.5956028474823867 62.205862708719366
0.0 -0.5265458660951207 62.511651205936424
0.0 -0.46164634229000817 62.776363636363136
0.0 -0.40311562071445084 62.999999999999496
-0.7686761955390344 1.579956838095798 1.4999999999999887
-0.8409029948616161 1.7281169722329426 3.736363636363608
-0.8940476007249757 1.8375356791681712 5.931651205936873
-0.9506443374492793 1.9550792281255616 8.08586270871979
-1.0210144815146838 2.079304891507119 10.19899814471235
-1.048631451549771 2.1796929727327594 12.27105751391456
-0.9920275022819518 2.235442525165108 14.302040816326416
-0.9074715353829097 2.226483671663186 16.291948051947923
-0.8388231939293685 2.192935796679872 18.24077922077908
-0.7803448823218929 2.155176395651569 20.14853432281988
-0.7251531968841737 2.1154345505192755 22.01521335807033
-0.671766762046156 2.076858613235094 23.840816326530426
-0.6188683613166902 2.0352193917648123 25.62534322820017
-0.5668565661826578 1.9891279899688776 27.368794063079562
-0.5162677046190278 1.9394218040109668 29.0711688311686
-0.4681223452427161 1.8917316870243215 30.73246753246729
-0.42442582165628834 1.8467056466819316 32.35269016697563
-0.3846819074085718 1.8031600352041888 33.93183673469361
-0.3476243488905531 1.7603439983915363 35.46990723562124
-0.3131098246080671 1.718311792656135 36.96690166975853
-0.28048746260446866 1.677155541042425 38.42282003710545
-0.2502235469699514 1.6368634667763708 39.837662337662024
-0.2227998260917326 1.597436033321777 41.21142857142825
-0.19746739264611052 1.5589633081461647 42.544118738404116
-0.17533279734900953 1.5214093911989632 43.835732838589635
-0.15613374469432648 1.4848328389274088 45.0862708719848
-0.13998404755873647 1.4492649373532547 46.29573283858961
-0.12578653595324127 1.4147882946829626 47.464118738404075
-0.11250427274737486 1.3814638025970647 48.59142857142819
-0.10008179164308317 1.349303431720302 49.67766233766195
-0.08845752889585208 1.318315882052962 50.72282003710536
-0.07764231497362577 1.288505705077101 51.726901669758405
-0.06766212708627829 1.2598772827795999 52.6899072356211
-0.0584684819534103 1.2324371297860095 53.61183673469346
-0.050013688763705585 1.2061911334388025 54.49269016697545
-0.042252254921319045 1.1811445593782908 55.33246753246709
-0.03513536582041269 1.1569727905848108 56.13116883116839
-0.028615518964613278 1.1326311469862298 56.888794063079324
-0.022687693716904638 1.105311395856158 57.605343228199914
-0.017408965386693863 1.0735610016948094 58.28081632653015
-0.013252482528008399 1.0397440458796803 58.91521335807004
-0.010166684094042405 1.0037397436372892 59.50853432281957
-0.00760098697125575 0.9515922069598679 60.06077922077875
-0.005464879873870877 0.8832558742199538 60.57194805194758
-0.0039015967321000085 0.8092481826267025 61.04204081632604
-0.002883995165670249 0.7365304832017777 61.47105751391417
-0.0022477517166190047 0.6663352463065952 61.85899814471194
-0.00179874084072329 0.5960211537296647 62.205862708719366
-0.0014595970466816986 0.5266437251399917 62.511651205936424
-0.0012027506489664258 0.4609936165545698 62.776363636363136
-0.0010073243559101815 0.40148660099834926 62.999999999999496
-0.603592196400244 0.8031678107737663 2.6181818181817977
-0.6506064733449719 0.8660100413840831 4.834007421150241
-0.6917594768153456 0.9209765205437205 7.00875695732833
-0.7393720571114861 0.9796922743931766 9.14243042671607
-0.7761172248991705 1.0347428960249423 11.235027829313456
-0.7652471076868961 1.0753200663698148 13.286549165120492
-0.712312139124323 1.090906291023408 15.29699443413717
-0.6548605234921042 1.0839899857236985 17.2663636363635
-0.607188028594223 1.0687770707836814 19.19465677179948
-0.564561779702275 1.051312418424072 21.081873840445105
-0.5238449845988737 1.0336889970495913 22.928014842300378
-0.48398817126106725 1.015596830911161 24.733079777365298
-0.4446468478122555 0.995390017090578 26.497068645639867
-0.4061716015506322 0.9729985240004536 28.219981447124084
-0.369146268698154 0.9499728013138046 29.901818181817944
-0.3347055625871267 0.9279769842104781 31.54257884972146
-0.3034153983993225 0.9068681692047573 33.14226345083462
-0.27461484611217185 0.8861745472897267 34.70087198515743
-0.24777531506198255 0.8657410722501563 36.21840445268988
-0.22259898270470088 0.8456225759470076 37.69486085343199
-0.19901662859040753 0.8258491294322604 39.13024118738374
-0.1773837648981315 0.8064164330509964 40.52454545454514
-0.15760020702669117 0.7873583803747252 41.87777365491618
-0.13980007124817 0.7686952302929059 43.18992578849688
-0.124299953266251 0.750435426698233 44.461001855287215
-0.11104417209489861 0.7326126098963635 45.691001855287205
-0.09966396881699166 0.715269441238506 46.87992578849684
-0.08935905326273105 0.6984594862036199 48.027773654916125
-0.07971977414642176 0.6822070807862307 49.13454545454506
-0.07070224520210072 0.6665166500286812 50.20024118738365
-0.06228744145105419 0.6513929968224692 51.22486085343188
-0.05448916577246402 0.6368402467789818 52.20840445268976
-0.04729897838988322 0.6228632305969024 53.15087198515728
-0.04068081401891846 0.6094673123917485 54.05226345083446
-0.03459972888188424 0.596657356818059 54.912578849721264
-0.029020357778149403 0.5843670070543707 55.73181818181773
-0.023906581794384738 0.5723036491914961 56.50998144712384
-0.019238704755569217 0.5594565315809426 57.247068645639615
-0.015036247163849435 0.5446326756127785 57.943079777365035
-0.011498042968013347 0.5282153751873163 58.598014842300095
-0.00878218748326905 0.5109805652413082 59.211873840444795
-0.006662876649486808 0.4891533377237398 59.784656771799156
-0.004899700066922485 0.4589218162417021 60.316363636363164
-0.0035124287272390825 0.4230649567435486 60.80699443413681
-0.0025445969616638467 0.386263170626817 61.256549165120106
-0.0019244050808584702 0.35063725906713433 61.66502782931306
-0.0015174347090033604 0.3156504438135813 62.03243042671564
-0.0012218767077768707 0.28073074037893264 62.358756957327884
-0.0009983803858680466 0.2468399770873193 62.64400742114977
-0.0008287781268287279 0.21533483620678717 62.888181818181316

CELLS 100 350
4 0 51 52 1
4 1 52 53 2
4 2 53 54 3
4 3 54 55 4
4 4 55 56 5
4 5 56 57 6
4 6 57 58 7
4 7 58 59 8
4 8 59 60 9
4 9 60 61 10
4 10 61 62 11
4 11 62 63 12
4 12 63 64 13
4 13 64 65 14
4 14 65 66 15
4 15 66 67 16
4 16 67 68 17
4 17 68 69 18
4 18 69 70 19
4 19 70 71 20
4 20 71 72 21
4 21 72 73 22
4 22 73 74 23
4 23 74 75 24
4 24 75 76 25
4 25 76 77 26
4 26 77 78 27
4 27 78 79 28
4 28 79 80 29
4 29 80 81 30
4 30 81 82 31
4 31 82 83 32
4 32 83 84 33
4 33 84 85 34
4 34 85 86 35
4 35 86 87 36
4 36 87 88 37
4 37 88 89 38
4 38 89 90 39
4 39 90 91 40
4 40 91 92 41
4 41 92 93 42
4 42 93 94 43
4 43 94 95 44
4 44 95 96 45
4 45 96 97 46
4 46 97 98 47
4 47 98 99 48
4 48 99 100 49
4 49 100 101 50
1 102
1 103
1 104
1 105
1 106
1 107
1 108
1 109
1 110
1 111
1 112
1 113
1 114
1 115
1 116
1 117
1 118
1 119
1 120
1 121
1 122
1 123
1 124
1 125
1 126
1 127
1 128
1 129
1 130
1 131
1 132
1 133
1 134
1 135
1 136
1 137
1 138
1 139
1 140
1 141
1 142
1 143
1 144
1 145
1 146
1 147
1 148
1 149
1 150
1 151

CELL_TYPES 100
9
9
9
9
9
9
9
9
9
9
9
9
9
9
9
9
9
9
9
9
9
9
9
9
9
9
9
9
9
9
9
9
9
9
9
9
9
9
9
9
9
9
9
9
9
9
9
9
9
9
1
1
1
1
1
1
1
1
1
1
1
1
1
1
1
1
1
1
1
1
1
1
1
1
1
1
1
1
1
1
1
1
1
1
1
1
1
1
1
1
1
1
1
1
1
1
1
1
1
1

CELL_DATA 100

VECTORS S float
-8.27982509512247e-18 2.843148568901448e-16 1.7534366619675707e-15
-1.0931147865715009e-17 2.9120236064752474e-16 1.7522914472323648e-15
-0.0 0.0 0.0
-2.2476708975e-20 -3.549962184062764e-17 -2.1918846438689062e-16
0.0 0.0 0.0
-2.130172349235292e-17 -1.1323066086850662e-15 -7.0145937811571915e-15
0.0 0.0 0.0
3.34054585210447e-17 2.2913292748639063e-15 1.402487383066499e-14
0.0 0.0 0.0
1.9547623386191628e-17 1.1486118744027743e-15 7.011947417554244e-15
0.0 0.0 0.0
0.0 0.0 0.0
4.224234232205888e-17 2.306226261931912e-15 1.4022408058171381e-14
0.0 0.0 0.0
0.0 0.0 0.0
-3.485899936206502e-17 -2.315347608776564e-15 -1.4020925149121766e-14
0.0 0.0 0.0
0.0 0.0 0.0
1.400389410726656e-17 1.1624303648770012e-15 7.0096831220752416e-15
0.0 0.0 0.0
2.583620959169912e-17 2.3290366777435303e-15 1.4018677269292502e-14
2.382809457103146e-17 2.331116329318038e-15 1.4018335158558412e-14
-2.3114376211514098e-17 -2.3325991376037473e-15 -1.4018089696012136e-14
2.2371910325269198e-17 2.334243138980597e-15 1.4017817241009008e-14
-2.175061953875684e-17 -2.3358114206005966e-15 -1.401755697882197e-14
2.0337276314177858e-17 2.3374764852905052e-15 1.4017281541457496e-14
-1.950058538643403e-17 -2.33899875594528e-15 -1.401702879655439e-14
0.0 0.0 0.0
1.838342853903202e-17 2.3409302032107916e-15 1.4016707872030067e-14
0.0 0.0 0.0
0.0 0.0 0.0
0.0 0.0 0.0
-1.642890438549154e-17 -2.3478265742831727e-15 -1.401555679253484e-14
0.0 0.0 0.0
0.0 0.0 0.0
-1.523266399049484e-17 -2.3526319619366166e-15 -1.4014752318689082e-14
0.0 0.0 0.0
-1.457021884509774e-17 -2.3557435664131272e-15 -1.4014230328298626e-14
-1.425623261134002e-17 -2.3572013552495477e-15 -1.4013985524012093e-14
-2.791630464921774e-17 -4.717223034906699e-15 -2.8027497113820143e-14
0.0 0.0 0.0
-1.3458405899981299e-17 -2.36125786693401e-15 -1.4013303389769738e-14
0.0 0.0 0.0
1.2802936720466379e-17 2.363680078632742e-15 1.401289564320184e-14
1.258907941614467e-17 2.364764530560197e-15 1.4012712869628884e-14
-6.26689048243092e-18 -1.1828724568007572e-15 -7.006273717973811e-15
6.17291551020726e-18 1.1833288743227405e-15 7.006196728928822e-15
0.0 0.0 0.0
6.0283852377777e-18 1.1840996149484731e-15 7.0060666350381695e-15
-5.96158172514057e-18 -1.1844128650030822e-15 -7.0060137424146746e-15
-8.27982509512247e-18 2.843148568901448e-16 1.7534366619675707e-15
-1.0931147865715009e-17 2.9120236064752474e-16 1.7522914472323648e-15
-0.0 0.0 0.0
-2.2476708975e-20 -3.549962184062764e-17 -2.1918846438689062e-16
0.0 0.0 0.0
-2.130172349235292e-17 -1.1323066086850662e-15 -7.0145937811571915e-15
0.0 0.0 0.0
3.34054585210447e-17 2.2913292748639063e-15 1.402487383066499e-14
0.0 0.0 0.0
1.9547623386191628e-17 1.1486118744027743e-15 7.011947417554244e-15
0.0 0.0 0.0
0.0 0.0 0.0
4.224234232205888e-17 2.306226261931912e-15 1.4022408058171381e-14
0.0 0.0 0.0
0.0 0.0 0.0
-3.485899936206502e-17 -2.315347608776564e-15 -1.4020925149121766e-14
0.0 0.0 0.0
0.0 0.0 0.0
1.400389410726656e-17 1.1624303648770012e-15 7.0096831220752416e-15
0.0 0.0 0.0
2.583620959169912e-17 2.3290366777435303e-15 1.4018677269292502e-14
2.382809457103146e-17 2.331116329318038e-15 1.4018335158558412e-14
-2.3114376211514098e-17 -2.3325991376037473e-15 -1.4018089696012136e-14
2.2371910325269198e-17 2.334243138980597e-15 1.4017817241009008e-14
-2.175061953875684e-17 -2.3358114206005966e-15 -1.401755697882197e-14
2.0337276314177858e-17 2.3374764852905052e-15 1.4017281541457496e-14
-1.950058538643403e-17 -2.33899875594528e-15 -1.401702879655439e-14
0.0 0.0 0.0
1.838342853903202e-17 2.3409302032107916e-15 1.4016707872030067e-14
0.0 0.0 0.0
0.0 0.0 0.0
0.0 0.0 0.0
-1.642890438549154e-17 -2.3478265742831727e-15 -1.401555679253484e-14
0.0 0.0 0.0
0.0 0.0 0.0
-1.523266399049484e-17 -2.3526319619366166e-15 -1.4014752318689082e-14
0.0 0.0 0.0
-1.457021884509774e-17 -2.3557435664131272e-15 -1.4014230328298626e-14
-1.425623261134002e-17 -2.3572013552495477e-15 -1.4013985524012093e-14
-2.791630464921774e-17 -4.717223034906699e-15 -2.8027497113820143e-14
0.0 0.0 0.0
-1.3458405899981299e-17 -2.36125786693401e-15 -1.4013303389769738e-14
0.0 0.0 0.0
1.2802936720466379e-17 2.363680078632742e-15 1.401289564320184e-14
1.258907941614467e-17 2.364764530560197e-15 1.4012712869628884e-14
-6.26689048243092e-18 -1.1828724568007572e-15 -7.006273717973811e-15
6.17291551020726e-18 1.1833288743227405e-15 7.006196728928822e-15
0.0 0.0 0.0
6.0283852377777e-18 1.1840996149484731e-15 7.0060666350381695e-15
-5.96158172514057e-18 -1.1844128650030822e-15 -7.0060137424146746e-15

SCALARS Gamma float
LOOKUP_TABLE default
-0.0
-0.0
-0.0
52.03341941747169
56.00765632582684
55.96956640157906
53.578705102069904
48.69424622722494
45.464338600458916
48.31003441526673
55.231881210625644
55.869954871421434
52.21878349877694
47.42249462062369
46.39062957152085
45.56475345196608
42.03988727117324
39.86784373459074
35.185880694157845
35.60840832177728
35.04337348452461
36.56053729409423
38.093365883101015
35.84322309003819
37.89179116677042
39.17940313695553
39.25585467332371
39.33304450251912
39.561194658551436
39.785551636846265
40.10014922129607
40.379485714156175
38.336479661994794
38.63058176880734
38.92920026920475
39.218695457525435
39.45269875164791
41.82786210945873
41.7229185891261
41.32127110782859
40.56388866002515
39.29466345537674
37.201088704843656
34.51523262296981
31.79997565579504
29.103862871514043
26.215544781703493
23.419691486645995
20.605353915504516
18.00085815057854
-0.0
-0.0
-0.0
52.03341941747169
56.00765632582684
55.96956640157906
53.578705102069904
48.69424622722494
45.464338600458916
48.31003441526673
55.231881210625644
55.869954871421434
52.21878349877694
47.42249462062369
46.39062957152085
45.56475345196608
42.03988727117324
39.86784373459074
35.185880694157845
35.60840832177728
35.04337348452461
36.56053729409423
38.093365883101015
35.84322309003819
37.89179116677042
39.17940313695553
39.25585467332371
39.33304450251912
39.561194658551436
39.785551636846265
40.10014922129607
40.379485714156175
38.336479661994794
38.63058176880734
38.92920026920475
39.218695457525435
39.45269875164791
41.82786210945873
41.7229185891261
41.32127110782859
40.56388866002515
39.29466345537674
37.201088704843656
34.51523262296981
31.79997565579504
29.103862871514043
26.215544781703493
23.419691486645995
20.605353915504516
18.00085815057854

VECTORS Ftot float
118.25598303045538 -39.38083258649189 6.943903307761635
142.18350518761946 -87.44445267373555 15.418816319664026
145.19572359294628 -129.59045590320954 22.850293818046378
1308.9428492995248 9.342231872021097 -1.6472875390718682
1337.2618099496972 225.24453051057253 -39.716687986024915
1429.9615028243804 291.3345996774534 -51.37015033703462
1508.5921274186362 282.051641546542 -49.73331435776792
1494.4847875776013 274.85957719373226 -48.465159365376
1504.0900939695796 293.4708843081975 -51.74683495590763
1705.1033710219417 379.6916775843376 -66.9498871085781
2078.9677973602275 498.1469507285652 -87.83674777109623
2239.8103842562887 554.2994749959165 -97.73795283431708
2219.9071716568646 563.8761583382002 -99.42658049326303
2137.97446443466 523.7596206488324 -92.35295252601948
2212.0592528505217 509.38994040706166 -89.81919019524196
2285.505157130242 507.7143110150131 -89.52373152375567
2212.7107853321286 463.74779574231667 -81.77124863344851
2192.991427252153 442.55436274317276 -78.03427458186232
2018.7679226226553 384.2896483876793 -67.76063341771702
2122.802459827125 392.5969856295352 -69.22544111130046
2165.1632543090814 391.6397438027879 -69.05665355018225
2339.660967810634 396.2465403327692 -69.86895607305209
2515.8907464548515 417.86274470311616 -73.68047612405249
2438.69253928019 396.8555318011325 -69.9763376999458
2651.0392095595344 424.4138314041006 -74.83560946239643
2817.220472792018 427.0984317872702 -75.30897694236953
2894.678997117938 425.75991377046165 -75.0729601018418
2969.489138471455 427.25254252139064 -75.33615082281175
3053.6435222851533 429.856042541256 -75.79521812058903
3135.874735247428 432.81383661651404 -76.31675701943666
3223.4971012302385 437.590611453474 -77.159031303962
3306.7009348784823 441.8870144118299 -77.9166030655158
3193.9925591367455 424.90888042649107 -74.92289996181724
3272.184876027383 426.74827977547227 -75.24723569534021
3348.5020210201474 432.6044284132056 -76.27983270321171
3422.1394500414744 439.72686328070125 -77.53571013868992
3489.7140434844987 442.3525891413184 -77.99869645186068
3746.5121451322793 473.26091891520673 -83.44866891963194
3781.5039127904706 473.5493933081975 -83.49953473835973
3786.495743900924 470.2577709364569 -82.91913290391825
3754.6286165539354 466.5969228337851 -82.27362661114184
3671.948503518488 450.62963324028027 -79.45816264702144
3507.361781636642 422.2342678694031 -74.45129360506095
3280.15975560616 391.8548993603662 -69.09459128003267
3044.0555017494303 361.34006919785287 -63.714003410645105
2803.7082706836 334.5325885273353 -58.987121283612225
2540.293381619212 301.25304062977233 -53.11903908349221
2281.1847100140303 268.7682182831071 -47.39108844025386
2016.012276416801 237.09607652031394 -41.80643531065008
1767.9839333298394 206.9243961366154 -36.486354005691695
118.25598303045538 -39.38083258649189 6.943903307761635
142.18350518761946 -87.44445267373555 15.418816319664026
145.19572359294628 -129.59045590320954 22.850293818046378
1308.9428492995248 9.342231872021097 -1.6472875390718682
1337.2618099496972 225.24453051057253 -39.716687986024915
1429.9615028243804 291.3345996774534 -51.37015033703462
1508.5921274186362 282.051641546542 -49.73331435776792
1494.4847875776013 274.85957719373226 -48.465159365376
1504.0900939695796 293.4708843081975 -51.74683495590763
1705.1033710219417 379.6916775843376 -66.9498871085781
2078.9677973602275 498.1469507285652 -87.83674777109623
2239.8103842562887 554.2994749959165 -97.73795283431708
2219.9071716568646 563.8761583382002 -99.42658049326303
2137.97446443466 523.7596206488324 -92.35295252601948
2212.0592528505217 509.38994040706166 -89.81919019524196
2285.505157130242 507.7143110150131 -89.52373152375567
2212.7107853321286 463.74779574231667 -81.77124863344851
2192.991427252153 442.55436274317276 -78.03427458186232
2018.7679226226553 384.2896483876793 -67.76063341771702
2122.802459827125 392.5969856295352 -69.22544111130046
2165.1632543090814 391.6397438027879 -69.05665355018225
2339.660967810634 396.2465403327692 -69.86895607305209
2515.8907464548515 417.86274470311616 -73.68047612405249
2438.69253928019 396.8555318011325 -69.9763376999458
2651.0392095595344 424.4138314041006 -74.83560946239643
2817.220472792018 427.0984317872702 -75.30897694236953
2894.678997117938 425.75991377046165 -75.0729601018418
2969.489138471455 427.25254252139064 -75.33615082281175
3053.6435222851533 429.856042541256 -75.79521812058903
3135.874735247428 432.81383661651404 -76.31675701943666
3223.4971012302385 437.590611453474 -77.159031303962
3306.7009348784823 441.8870144118299 -77.9166030655158
3193.9925591367455 424.90888042649107 -74.92289996181724
3272.184876027383 426.74827977547227 -75.24723569534021
3348.5020210201474 432.6044284132056 -76.27983270321171
3422.1394500414744 439.72686328070125 -77.53571013868992
3489.7140434844987 442.3525891413184 -77.99869645186068
3746.5121451322793 473.26091891520673 -83.44866891963194
3781.5039127904706 473.5493933081975 -83.49953473835973
3786.495743900924 470.2577709364569 -82.91913290391825
3754.6286165539354 466.5969228337851 -82.27362661114184
3671.948503518488 450.62963324028027 -79.45816264702144
3507.361781636642 422.2342678694031 -74.45129360506095
3280.15975560616 391.8548993603662 -69.09459128003267
3044.0555017494303 361.34006919785287 -63.714003410645105
2803.7082706836 334.5325885273353 -58.987121283612225
2540.293381619212 301.25304062977233 -53.11903908349221
2281.1847100140303 268.7682182831071 -47.39108844025386
2016.012276416801 237.09607652031394 -41.80643531065008
1767.9839333298394 206.9243961366154 -36.486354005691695

VECTORS D float
93.97954955840166 31.44860328042737 -4.655526535556528
62.39046710791728 38.50418505586213 -6.0095654626065835
14.239110854590589 12.742387884125138 -2.0499932990447474
550.7874031372776 642.584098627671 -104.12898531906214
537.6580344794857 769.8018795587237 -125.24561686337347
492.2320015659209 832.2001017796014 -135.8298277434522
424.9656187896094 825.7499746954554 -135.1548051184243
356.80916133740845 781.2755019776034 -128.49162315557285
317.20396356470405 770.0319822732079 -126.80473895992078
332.19013226033275 883.1423683099338 -145.59169911503616
372.9967264703799 1075.1868422402954 -177.4277355747282
368.5855370590601 1142.7828843882912 -188.818339111082
337.84066691474055 1118.3065141014195 -184.9424879132021
294.6718441029945 1035.3206445378426 -171.36417677657235
274.4799481421139 1018.4919846473699 -168.71261357085862
259.8354053378323 1013.8462873007608 -168.067667014493
229.4545091916406 937.1057793699763 -155.56878589865082
210.2793657957721 896.0654272022088 -148.88153609982916
177.9805722673735 788.9879617874572 -131.195086764361
175.09682251263732 805.3047483326642 -134.00883581878034
168.1715003432904 800.4840073054892 -133.3008450936494
168.1971389842813 826.7199885156089 -137.76160011109664
171.5970610087606 868.9405690050316 -144.87397533864623
158.14953633062441 823.5505315057424 -137.38981268650403
164.2022059486826 877.6954821139306 -146.50931212500578
164.13328559066863 898.9875553266274 -150.15039035217637
160.80639071258238 901.0458277507557 -150.57976405315773
158.24036184401442 905.6981955656738 -151.4421625921896
156.5464093325114 913.4736685317116 -152.76454212943025
154.98052397011412 921.2518884401754 -154.1848021602868
154.13784833034669 931.9963554420518 -156.08891321575172
153.3069595182943 941.8031800651677 -157.83789274081983
144.55272676959166 901.2374761030779 -151.14091936681055
143.7639218542996 908.7173883579776 -152.49699414837497
143.71021313058353 920.0512554192339 -154.50100019515958
143.92797996744915 932.4398382223363 -156.68348056456773
143.4693023403558 939.7573478912631 -158.0143503170144
151.502937102469 1002.3201689743653 -168.6440614383469
150.1615681739422 1002.8951909337651 -168.84323431283823
147.8327696005029 996.0231157765824 -167.78487606570238
144.86908969915885 983.9714748176028 -165.848533479103
139.29626268880946 953.1784431164218 -160.74545311626153
130.53379434628857 899.3266563027204 -151.74209268871587
120.51424193700667 835.4766818178343 -141.03741121823245
110.56975766152583 770.8748773634474 -130.19103123873276
101.30504878037277 709.884287735056 -119.9407092771231
90.90537914313866 639.9094620891211 -108.1591802208959
80.89867596278009 571.7570360243369 -96.67305671395599
71.06149894085615 503.98604939712914 -85.24013604653342
61.90275173277592 440.33629346574384 -74.49443127158153
93.97954955840166 31.44860328042737 -4.655526535556528
62.39046710791728 38.50418505586213 -6.0095654626065835
14.239110854590589 12.742387884125138 -2.0499932990447474
550.7874031372776 642.584098627671 -104.12898531906214
537.6580344794857 769.8018795587237 -125.24561686337347
492.2320015659209 832.2001017796014 -135.8298277434522
424.9656187896094 825.7499746954554 -135.1548051184243
356.80916133740845 781.2755019776034 -128.49162315557285
317.20396356470405 770.0319822732079 -126.80473895992078
332.19013226033275 883.1423683099338 -145.59169911503616
372.9967264703799 1075.1868422402954 -177.4277355747282
368.5855370590601 1142.7828843882912 -188.818339111082
337.84066691474055 1118.3065141014195 -184.9424879132021
294.6718441029945 1035.3206445378426 -171.36417677657235
274.4799481421139 1018.4919846473699 -168.71261357085862
259.8354053378323 1013.8462873007608 -168.067667014493
229.4545091916406 937.1057793699763 -155.56878589865082
210.2793657957721 896.0654272022088 -148.88153609982916
177.9805722673735 788.9879617874572 -131.195086764361
175.09682251263732 805.3047483326642 -134.00883581878034
168.1715003432904 800.4840073054892 -133.3008450936494
168.1971389842813 826.7199885156089 -137.76160011109664
171.5970610087606 868.9405690050316 -144.87397533864623
158.14953633062441 823.5505315057424 -137.38981268650403
164.2022059486826 877.6954821139306 -146.50931212500578
164.13328559066863 898.9875553266274 -150.15039035217637
160.80639071258238 901.0458277507557 -150.57976405315773
158.24036184401442 905.6981955656738 -151.4421625921896
156.5464093325114 913.4736685317116 -152.76454212943025
154.98052397011412 921.2518884401754 -154.1848021602868
154.13784833034669 931.9963554420518 -156.08891321575172
153.3069595182943 941.8031800651677 -157.83789274081983
144.55272676959166 901.2374761030779 -151.14091936681055
143.7639218542996 908.7173883579776 -152.49699414837497
143.71021313058353 920.0512554192339 -154.50100019515958
143.92797996744915 932.4398382223363 -156.68348056456773
143.4693023403558 939.7573478912631 -158.0143503170144
151.502937102469 1002.3201689743653 -168.6440614383469
150.1615681739422 1002.8951909337651 -168.84323431283823
147.8327696005029 996.0231157765824 -167.78487606570238
144.86908969915885 983.9714748176028 -165.848533479103
139.29626268880946 953.1784431164218 -160.74545311626153
130.53379434628857 899.3266563027204 -151.74209268871587
120.51424193700667 835.4766818178343 -141.03741121823245
110.56975766152583 770.8748773634474 -130.19103123873276
101.30504878037277 709.884287735056 -119.9407092771231
90.90537914313866 639.9094620891211 -108.1591802208959
80.89867596278009 571.7570360243369 -96.67305671395599
71.06149894085615 503.98604939712914 -85.24013604653342
61.90275173277592 440.33629346574384 -74.49443127158153

VECTORS L float
24.2764334720537 -70.82943586691928 11.599429843318163
79.79303807970221 -125.94863772959769 21.428381782270613
130.95661273835572 -142.3328437873347 24.900287117091132
758.1554461622477 -633.2418667556501 102.48169777999031
799.6037754702116 -544.5573490481512 85.52892887734858
937.7295012584594 -540.8655021021482 84.45967740641757
1083.6265086290273 -543.6983331489134 85.42149076065637
1137.675626240193 -506.41592478387105 80.02646379019687
1186.886130404876 -476.5610979650102 75.05790400401312
1372.9132387616094 -503.45069072559636 78.64181200645808
1705.9710708898479 -577.0398915117304 89.59098780363199
1871.2248471972284 -588.4834093923746 91.08038627676488
1882.0665047421244 -554.4303557632192 85.51590741993907
1843.3026203316663 -511.56102388901047 79.01122425055291
1937.5793047084076 -509.102044240308 78.8934233756166
2025.6697517924101 -506.1319762857475 78.54393549073731
1983.2562761404881 -473.3579836276597 73.79753726520231
1982.7120614563805 -453.51106445903594 70.84726151796684
1840.787350355282 -404.69831339977804 63.43445334664399
1947.7056373144876 -412.70776270312894 64.78339470747986
1996.991753965791 -408.8442635027013 64.24419154346718
2171.4638288263523 -430.47344818283926 67.8926440380445
2344.2936854460913 -451.07782430191554 71.19349921459377
2280.5430029495656 -426.69499970460987 67.41347498655823
2486.837003610852 -453.28165070983016 71.67370266260934
2653.0871872013495 -471.8891235393573 74.84141340980685
2733.8726064053553 -475.2859139802939 75.50680395131592
2811.2487766274403 -478.44565304428335 76.10601176937787
2897.097112952642 -483.61762599045574 76.9693240088412
2980.8942112773143 -488.43805182366094 77.8680451408501
3069.359252899892 -494.4057439885781 78.92988191178976
3153.3939753601885 -499.9161656533381 79.9212896753041
3049.4398323671544 -476.3285956765868 76.2180194049933
3128.4209541730834 -481.96910858250527 77.2497584530347
3204.791807889564 -487.4468270060282 78.22116749194782
3278.2114700740253 -492.71297494163525 79.14777042587784
3346.2447411441435 -497.4047587499445 80.01565386515374
3595.00920802981 -529.0592500591587 85.19539251871495
3631.3423446165298 -529.3457976255677 85.34369957447852
3638.662974300421 -525.7653448401255 84.86574316178408
3609.759526854776 -517.3745519838179 83.5749068679612
3532.652240829679 -502.5488098761416 81.28729046924008
3376.827987290354 -477.09238843331724 77.29079908365486
3159.6455136691543 -443.62178245746856 71.94281993819983
2933.4857440879045 -409.53480816559465 66.4770278280877
2702.4032219032274 -375.3516992077207 60.95358799351089
2449.3880024760733 -338.6564214593487 55.040141137403694
2200.286034051251 -302.98881774123 49.28196827370215
1944.9507774759447 -266.8899728768153 43.43370073588336
1706.0811815970635 -233.4118973291285 38.00807726588985
24.2764334720537 -70.82943586691928 11.599429843318163
79.79303807970221 -125.94863772959769 21.428381782270613
130.95661273835572 -142.3328437873347 24.900287117091132
758.1554461622477 -633.2418667556501 102.48169777999031
799.6037754702116 -544.5573490481512 85.52892887734858