# vtk DataFile Version 4.0
[MyVLM domain - lattices] 
ASCII
DATASET UNSTRUCTURED_GRID
POINTS 152 float
0.0 -0.07370322297134368 -2.245749659528711
0.0 -1.6885480093072207 -3.8004167785459555
0.0 -3.2949931980555816 -5.301191132345007
0.0 -4.865446200189226 -6.78095628802801
0.0 -6.399685917622534 -8.239975740032815
0.0 -7.92144148800619 -9.649970203315055
0.0 -9.450368965799715 -10.987514504356373
0.0 -10.99154195320612 -12.246562159503933
0.0 -12.514020305814128 -13.46398619701526
0.0 -14.005135350073537 -14.654884554107213
0.0 -15.46504662775262 -15.819067096304272
0.0 -16.893987626712093 -16.95625556360962
0.0 -18.29221512236324 -18.066143943004352
0.0 -19.66184232367891 -19.14621381010318
0.0 -21.00145939024668 -20.1981453472826
0.0 -22.30797590967976 -21.225621564607156
0.0 -23.580931856372956 -22.229190699244523
0.0 -24.82108531168283 -23.20794930501456
0.0 -26.02898243209191 -24.161246497967067
0.0 -27.204623060109054 -25.089082465792696
0.0 -28.348007042449098 -25.991457391169586
0.0 -29.45913423003288 -26.86837145176336
0.0 -30.53800447798724 -27.719824820227142
0.0 -31.584617645644993 -28.545817664201536
0.0 -32.598973596544965 -29.34635014631464
0.0 -33.58107219843199 -30.12142242418205
0.0 -34.530913323256854 -30.871034650406827
0.0 -35.44849684717639 -31.595186972579555
0.0 -36.33382162399519 -32.293880756682725
0.0 -37.186873437953516 -32.967132944399054
0.0 -38.00764939924527 -33.614946979665355
0.0 -38.79615154192373 -34.23732043839132
0.0 -39.55238182010123 -34.83425099175655
0.0 -40.27634210794916 -35.405736406210565
0.0 -40.968034199697925 -35.951774543472844
0.0 -41.62745980963697 -36.47236336053275
0.0 -42.25489182206496 -36.96717764654703
0.0 -42.85119314553503 -37.43518902714738
0.0 -43.41773309622935 -37.87476561485432
0.0 -43.95522401008365 -38.28505848075728
0.0 -44.46316677253456 -38.66666244643029
0.0 -44.94172469926585 -39.01938287982049
0.0 -45.39846769415876 -39.334198320781816
0.0 -45.83322391304144 -39.61131356522343
0.0 -46.24026185207518 -39.857559153436085
0.0 -46.61567565321398 -40.0775899057783
0.0 -46.95847631166716 -40.272584472262395
0.0 -47.26960932678055 -40.441416050646225
0.0 -47.54824587784147 -40.58507239099174
0.0 -47.79274397397085 -40.70551034182807
0.0 -48.00168219022861 -40.804423891434176
-0.7686761955390344 -2.164643344045946 0.24613574166131005
-0.8409029948616161 -3.9730327789484887 -1.0778738470992282
-0.8940476007249757 -5.725053611754133 -2.4051579040987967
-0.9506443374492793 -7.450830899632352 -3.699814784228574
-1.0210144815146838 -9.149437275158999 -4.962949680947938
-1.048631451549771 -10.801255055521004 -6.217942038227739
-0.9920275022819518 -12.392913649950113 -7.480726305651153
-0.9074715353829097 -13.911512390092172 -8.766676901076107
-0.8388231939293685 -15.382839519181749 -10.04506059298112
-0.7803448823218929 -16.819993438801795 -11.300267314222452
-0.7251531968841737 -18.224406975204968 -12.530589488965944
-0.671766762046156 -19.59810385001701 -13.733615339693706
-0.6188683613166902 -20.938365590999343 -14.912584615462427
-0.5668565661826578 -22.24429943292233 -16.06856127244189
-0.5162677046190278 -23.51644364366437 -17.200903827954207
-0.4681223452427161 -24.758417665851482 -18.305298798246653
-0.42442582165628834 -25.97063803078684 -19.38124978064222
-0.3846819074085718 -27.152343904343482 -20.429663501945104
-0.3476243488905531 -28.30305264674526 -21.45111514984246
-0.3131098246080671 -29.422799133341645 -22.44556316151125
-0.28048746260446866 -30.51164257968417 -23.41293696660519
-0.2502235469699514 -31.569575415808416 -24.3532455866566
-0.2227998260917326 -32.59659793962315 -25.2664886666316
-0.19746739264611052 -33.59276804538055 -26.152597210847183
-0.17533279734900953 -34.55806265697292 -27.011598720337616
-0.15613374469432648 -35.49251941375901 -27.843448338261872
-0.13998404755873647 -36.396158426005954 -28.648122098136838
-0.12578653595324127 -37.26903279324533 -29.425556718405005
-0.11250427274737486 -38.111181655894924 -30.175705553332865
-0.10008179164308317 -38.922612708523985 -30.898559432889854
-0.08845752889585208 -39.703331543384905 -31.5941116924891
-0.07764231497362577 -40.45334108611395 -32.26235884549306
-0.06766212708627829 -41.17264415339801 -32.90329753510504
-0.0584684819534103 -41.86124493275766 -33.51692277083234
-0.050013688763705585 -42.519147208503696 -34.10323004270896
-0.042252254921319045 -43.14635436532446 -34.662215317020404
-0.03513536582041269 -43.74265774342184 -35.19412726483075
-0.028615518964613278 -44.30738583538936 -35.69976615750406
-0.022687693716904638 -44.8387335440254 -36.1812832261154
-0.017408965386693863 -45.335767197508055 -36.63979117741278
-0.013252482528008399 -45.800006398055075 -37.07347901999391
-0.010166684094042405 -46.23137350671063 -37.48243928036334
-0.00760098697125575 -46.62089785158114 -37.87736278897819
-0.005464879873870877 -46.96855014621701 -38.25828444807
-0.0039015967321000085 -47.28109086894193 -38.617147433308844
-0.002883995165670249 -47.562994689939316 -38.948619040427985
-0.0022477517166190047 -47.815053825886785 -39.25175514235575
-0.00179874084072329 -48.03557047016474 -39.528579106230545
-0.0014595970466816986 -48.22522309773822 -39.77828235707534
-0.0012027506489664258 -48.38580550771784 -39.99872712835566
-0.0010073243559101815 -48.518870529071854 -40.188062830569905
-0.603592196400244 -2.521909950157734 -1.0676725942985523
-0.6506064733449719 -4.259725047433833 -2.4438378955606295
-0.6917594768153456 -5.9610116165505325 -3.799633185669391
-0.7393720571114861 -7.6332420802732255 -5.126153177948796
-0.7761172248991705 -9.27165054970859 -6.429077637609364
-0.7652471076868961 -10.869289571277408 -7.716686217413513
-0.712312139124323 -12.419398629891587 -8.99703578550526
-0.6548605234921042 -13.923577248355251 -10.26822010483636
-0.607188028594223 -15.390956816229783 -11.519356809091649
-0.564561779702275 -16.825422902480806 -12.745815257497084
-0.5238449845988737 -18.22832084126633 -13.945992143236603
-0.48398817126106725 -19.59945138401555 -15.120124921510296
-0.4446468478122555 -20.937756564725895 -16.26947442710256
-0.4061716015506322 -22.243191367960712 -17.394094307321758
-0.369146268698154 -23.51675240355925 -18.492796848811544
-0.3347055625871267 -24.75950935699596 -19.564307250064786
-0.3034153983993225 -25.971370371680845 -20.608734981502632
-0.27461484611217185 -27.152032174630122 -21.62644146979304
-0.24777531506198255 -28.301395104057715 -22.617545487227613
-0.22259898270470088 -29.419494405204446 -23.582005030163952
-0.19901662859040753 -30.506349407369967 -24.51979706283979
-0.1773837648981315 -31.561957346789352 -25.430924878981887
-0.15760020702669117 -32.58634000983042 -26.315362514608132
-0.13980007124817 -33.5795104186563 -27.173094450508827
-0.124299953266251 -34.5414740008966 -28.004114218286894
-0.11104417209489861 -35.47225238012297 -28.808396047973122
-0.09966396881699166 -36.371872978523385 -29.585907259076485
-0.08935905326273105 -37.24037022732404 -30.33660681805948
-0.07971977414642176 -38.07775976940067 -31.060476082468735
-0.07070224520210072 -38.88404444911567 -31.75751166252516
-0.06228744145105419 -39.6592273537082 -32.427709879000396
-0.05448916577246402 -40.403311135070105 -33.07106757149277
-0.04729897838988322 -41.116298898314675 -33.687581039472406
-0.04068081401891846 -41.7981940914289 -34.277246173788406
-0.03459972888188424 -42.44899984135242 -34.84005924789921
-0.029020357778149403 -43.068673494742605 -35.37607109407915
-0.023906581794384738 -43.6570269630042 -35.88550586758735
-0.019238704755569217 -44.213410547501084 -36.36913784910751
-0.015036247163849435 -44.73705741636417 -36.82788091327451
-0.011498042968013347 -45.22821394616346 -37.26144143992595
-0.00878218748326905 -45.68737889826219 -37.66922502841532
-0.006662876649486808 -46.112125808537485 -38.054123426078355
-0.004899700066922485 -46.50000445007433 -38.419056699643725
-0.0035124287272390825 -46.85280110132418 -38.7618960453495
-0.0025445969616638467 -47.17352427274161 -39.079056060053105
-0.0019244050808584702 -47.46353718904493 -39.368912115798985
-0.0015174347090033604 -47.722494815825286 -39.63187540858343
-0.0012218767077768707 -47.95002948854136 -39.86838410394445
-0.0009983803858680466 -48.14675945852256 -40.0777013986391
-0.0008287781268287279 -48.313556784321065 -40.25878801375487

CELLS 100 350
4 0 51 52 1
4 1 52 53 2
4 2 53 54 3
4 3 54 55 4
4 4 55 56 5
4 5 56 57 6
4 6 57 58 7
4 7 58 59 8
4 8 59 60 9
4 9 60 61 10
4 10 61 62 11
4 11 62 63 12
4 12 63 64 13
4 13 64 65 14
4 14 65 66 15
4 15 66 67 16
4 16 67 68 17
4 17 68 69 18
4 18 69 70 19
4 19 70 71 20
4 20 71 72 21
4 21 72 73 22
4 22 73 74 23
4 23 74 75 24
4 24 75 76 25
4 25 76 77 26
4 26 77 78 27
4 27 78 79 28
4 28 79 80 29
4 29 80 81 30
4 30 81 82 31
4 31 82 83 32
4 32 83 84 33
4 33 84 85 34
4 34 85 86 35
4 35 86 87 36
4 36 87 88 37
4 37 88 89 38
4 38 89 90 39
4 39 90 91 40
4 40 91 92 41
4 41 92 93 42
4 42 93 94 43
4 43 94 95 44
4 44 95 96 45
4 45 96 97 46
4 46 97 98 47
4 47 98 99 48
4 48 99 100 49
4 49 100 101 50
1 102
1 103
1 104
1 105
1 106
1 107
1 108
1 109
1 110
1 111
1 112
1 113
1 114
1 115
1 116
1 117
1 118
1 119
1 120
1 121
1 122
1 123
1 124
1 125
1 126
1 127
1 128
1 129
1 130
1 131
1 132
1 133
1 134
1 135
1 136
1 137
1 138
1 139
1 140
1 141
1 142
1 143
1 144
1 145
1 146
1 147
1 148
1 149
1 150
1 151

CELL_TYPES 100
9
9
9
9
9
9
9
9
9
9
9
9
9
9
9
9
9
9
9
9
9
9
9
9
9
9
9
9
9
9
9
9
9
9
9
9
9
9
9
9
9
9
9
9
9
9
9
9
9
9
1
1
1
1
1
1
1
1
1
1
1
1
1
1
1
1
1
1
1
1
1
1
1
1
1
1
1
1
1
1
1
1
1
1
1
1
1
1
1
1
1
1
1
1
1
1
1
1
1
1

CELL_DATA 100

VECTORS S float
-0.0 -0.0 -0.0
-3.9452666896776616e-17 -6.122000333062835e-15 -3.606473810136159e-15
1.014408758135564e-16 1.2251014504117647e-14 7.200746149198169e-15
0.0 -0.0 -0.0
-7.588689093175908e-17 2.438750883175578e-14 1.4595794637741884e-14
-8.804076843048994e-17 2.439799936446724e-14 1.4578183795688214e-14
-3.8313725325118596e-17 1.2205366442078852e-14 7.278458202779359e-15
-3.622091753188329e-17 1.2209642871439828e-14 7.271292920355414e-15
0.0 -0.0 -0.0
-8.328734872880783e-17 2.4427675280128204e-14 1.4528431111874102e-14
1.7633194002414606e-16 -4.8861144355725985e-14 -2.904706090263003e-14
-2.703994296445717e-16 7.330002429461556e-14 4.355657728832765e-14
-8.808370366586899e-17 2.4440531056485486e-14 1.4506765658975568e-14
0.0 -0.0 -0.0
1.5209246857104823e-16 -4.889599674508111e-14 -2.898849147457118e-14
-7.20489391522457e-17 2.4450870645179576e-14 1.4489420298596456e-14
6.676838643770427e-17 -2.4453612595205738e-14 -1.4484817567801253e-14
0.0 -0.0 -0.0
0.0 -0.0 -0.0
-5.640123179786205e-17 2.4459865768191042e-14 1.447429972224715e-14
0.0 -0.0 -0.0
0.0 -0.0 -0.0
0.0 -0.0 -0.0
4.68200170231717e-17 -2.4468741757434632e-14 -1.4459324038152568e-14
4.5589834083963196e-17 -2.4470231455690382e-14 -1.4456806736561336e-14
-4.253949442249124e-17 2.447182669637425e-14 1.4454115520513698e-14
4.089354759875194e-17 -2.447324041975764e-14 -1.4451726471976347e-14
-3.963082458244554e-17 2.4474583638495737e-14 1.4449455078525825e-14
-3.821370147711612e-17 2.4476343919181322e-14 1.4446476906474167e-14
-3.710422348204494e-17 2.447776733579737e-14 1.4444067864610976e-14
3.6119111616240387e-17 -2.4479211850761398e-14 -1.444162212224218e-14
0.0 -0.0 -0.0
0.0 -0.0 -0.0
0.0 -0.0 -0.0
-3.286076367623462e-17 2.4485164859044375e-14 1.4431534531779533e-14
0.0 -0.0 -0.0
0.0 -0.0 -0.0
-3.110338826817848e-17 2.4489627474772515e-14 1.442396428421887e-14
3.048270476476808e-17 -2.4491083866737155e-14 -1.442149259901601e-14
-2.988976477795932e-17 2.449250589845976e-14 1.4419078623899363e-14
-2.962448878048104e-17 2.4493862181662616e-14 1.4416775116568143e-14
0.0 -0.0 -0.0
-2.799998431701208e-17 2.4496503382859556e-14 1.4412290066493414e-14
-2.75563052509638e-17 2.4497474245593374e-14 1.4410640623610263e-14
0.0 -0.0 -0.0
2.7040319140533537e-17 -2.4499563361845555e-14 -1.440708960360738e-14
0.0 -0.0 -0.0
-1.3122837638834059e-17 1.2250771440465716e-14 7.201862164827986e-15
0.0 -0.0 -0.0
0.0 -0.0 -0.0
-0.0 -0.0 -0.0
-3.9452666896776616e-17 -6.122000333062835e-15 -3.606473810136159e-15
1.014408758135564e-16 1.2251014504117647e-14 7.200746149198169e-15
0.0 -0.0 -0.0
-7.588689093175908e-17 2.438750883175578e-14 1.4595794637741884e-14
-8.804076843048994e-17 2.439799936446724e-14 1.4578183795688214e-14
-3.8313725325118596e-17 1.2205366442078852e-14 7.278458202779359e-15
-3.622091753188329e-17 1.2209642871439828e-14 7.271292920355414e-15
0.0 -0.0 -0.0
-8.328734872880783e-17 2.4427675280128204e-14 1.4528431111874102e-14
1.7633194002414606e-16 -4.8861144355725985e-14 -2.904706090263003e-14
-2.703994296445717e-16 7.330002429461556e-14 4.355657728832765e-14
-8.808370366586899e-17 2.4440531056485486e-14 1.4506765658975568e-14
0.0 -0.0 -0.0
1.5209246857104823e-16 -4.889599674508111e-14 -2.898849147457118e-14
-7.20489391522457e-17 2.4450870645179576e-14 1.4489420298596456e-14
6.676838643770427e-17 -2.4453612595205738e-14 -1.4484817567801253e-14
0.0 -0.0 -0.0
0.0 -0.0 -0.0
-5.640123179786205e-17 2.4459865768191042e-14 1.447429972224715e-14
0.0 -0.0 -0.0
0.0 -0.0 -0.0
0.0 -0.0 -0.0
4.68200170231717e-17 -2.4468741757434632e-14 -1.4459324038152568e-14
4.5589834083963196e-17 -2.4470231455690382e-14 -1.4456806736561336e-14
-4.253949442249124e-17 2.447182669637425e-14 1.4454115520513698e-14
4.089354759875194e-17 -2.447324041975764e-14 -1.4451726471976347e-14
-3.963082458244554e-17 2.4474583638495737e-14 1.4449455078525825e-14
-3.821370147711612e-17 2.4476343919181322e-14 1.4446476906474167e-14
-3.710422348204494e-17 2.447776733579737e-14 1.4444067864610976e-14
3.6119111616240387e-17 -2.4479211850761398e-14 -1.444162212224218e-14
0.0 -0.0 -0.0
0.0 -0.0 -0.0
0.0 -0.0 -0.0
-3.286076367623462e-17 2.4485164859044375e-14 1.4431534531779533e-14
0.0 -0.0 -0.0
0.0 -0.0 -0.0
-3.110338826817848e-17 2.4489627474772515e-14 1.442396428421887e-14
3.048270476476808e-17 -2.4491083866737155e-14 -1.442149259901601e-14
-2.988976477795932e-17 2.449250589845976e-14 1.4419078623899363e-14
-2.962448878048104e-17 2.4493862181662616e-14 1.4416775116568143e-14
0.0 -0.0 -0.0
-2.799998431701208e-17 2.4496503382859556e-14 1.4412290066493414e-14
-2.75563052509638e-17 2.4497474245593374e-14 1.4410640623610263e-14
0.0 -0.0 -0.0
2.7040319140533537e-17 -2.4499563361845555e-14 -1.440708960360738e-14
0.0 -0.0 -0.0
-1.3122837638834059e-17 1.2250771440465716e-14 7.201862164827986e-15
0.0 -0.0 -0.0
0.0 -0.0 -0.0

SCALARS Gamma float
LOOKUP_TABLE default
-0.0
-0.0
-0.0
51.02497849044872
54.619396264762074
54.61679711432162
52.53216661137361
47.8699512340343
44.88554258696751
47.47674307726563
54.03848851923391
54.665534820503076
50.58394014054659
45.71830341121715
44.718058210850074
43.93612642941745
40.35921478049547
38.20330373699071
33.481912167679724
33.86252311700488
33.38077908517025
35.01310467551426
36.64329134080576
34.59477552461554
36.68223521369261
37.9305164184678
38.03843776099559
38.14759966051096
38.33022305836786
38.611065044748436
38.95723556190408
39.264707000288084
37.30664515918757
37.62578120250628
37.94835717943876
38.260730619153584
38.51740088161712
40.846900866753415
40.77645655393557
40.41159954701565
39.692283135175245
38.46683119055623
36.43183155575007
33.80511460916233
31.143765759159514
28.519342410029154
25.691267291731517
22.96707389335946
20.208039398126854
17.654305172486158
-0.0
-0.0
-0.0
51.02497849044872
54.619396264762074
54.61679711432162
52.53216661137361
47.8699512340343
44.88554258696751
47.47674307726563
54.03848851923391
54.665534820503076
50.58394014054659
45.71830341121715
44.718058210850074
43.93612642941745
40.35921478049547
38.20330373699071
33.481912167679724
33.86252311700488
33.38077908517025
35.01310467551426
36.64329134080576
34.59477552461554
36.68223521369261
37.9305164184678
38.03843776099559
38.14759966051096
38.33022305836786
38.611065044748436
38.95723556190408
39.264707000288084
37.30664515918757
37.62578120250628
37.94835717943876
38.260730619153584
38.51740088161712
40.846900866753415
40.77645655393557
40.41159954701565
39.692283135175245
38.46683119055623
36.43183155575007
33.80511460916233
31.143765759159514
28.519342410029154
25.691267291731517
22.96707389335946
20.208039398126854
17.654305172486158

VECTORS Ftot float
114.9165336591928 19.7005586429693 -34.12236850711285
138.60207337353873 43.88777746655608 -76.01586040335131
142.09637958522933 65.21055603068613 -112.94799623496496
1265.1577397415015 -6.7466369252281675 11.685517934715405
1294.7380477007464 -110.00811585593252 190.5396459073977
1387.2868862270948 -143.32804487924983 248.2514558803719
1471.21289366031 -140.46507537419416 243.29264723709517
1461.96690099676 -137.6832287196968 238.4743474926403
1479.42413975436 -147.77947601658732 255.96156077663454
1671.4405878821508 -189.06533198112365 327.4707609411817
2029.8888964475075 -246.87828693417885 427.60573625556367
2186.3091955714463 -275.9696204323483 477.9934039343234
2147.736524972245 -275.80395929447803 477.7064704266924
2059.461684566074 -253.88379480777104 439.73963182544907
2130.768705919521 -246.71730775954038 427.3269121461294
2202.452884038672 -245.81595096430414 425.7657163810328
2123.4706742821836 -223.33742547576287 386.83176815564735
2101.016795872269 -212.26901909211088 367.66072594034256
1920.6188432775623 -183.11553494296487 317.1654101763679
2018.7661038838764 -186.54810336762432 323.11079308833473
2062.466437718998 -186.29283296979676 322.6686517896291
2240.562151531535 -190.0261632287809 329.1349694796238
2420.0049702962638 -201.0656706317792 348.2559571921496
2353.67721059303 -191.47027347948685 331.6362418055776
2566.333186237809 -205.3717393949038 355.71428707076666
2727.5181056923407 -205.92807332251175 356.67788569935794
2804.9189857472556 -205.60379973120175 356.1162273636562
2879.9720863628113 -206.54050832761268 357.73865424452646
2959.0733836329514 -207.21938500039596 358.9145031338604
3043.739361481458 -209.10431941661312 362.1793053116836
3132.031297881508 -211.68370696786516 366.6469356028629
3215.8004232827993 -213.9976642056193 370.6548271051948
3108.474271148414 -206.26592771126155 357.2630666662327
3187.5168540247582 -206.79710965418042 358.18310077943136
3264.5548318352476 -209.93868090291133 363.6244617978308
3338.9916946302815 -213.57874317648688 369.9292345983784
3407.3986202865335 -215.14620868289882 372.6441644945955
3659.0031440485495 -230.65411463592164 399.5046455242308
3696.0927694741827 -231.02912277214935 400.1541786694289
3703.5216104859715 -229.6288682681785 397.7288667250242
3674.2717123414504 -228.3254841573409 395.47133922327555
3595.085960993616 -220.0332152776192 381.1087082135754
3435.3058618657674 -206.27356067013423 357.27628733881227
3212.9507305953 -191.43664235132462 331.5779909828847
2981.4883803553407 -176.53551403013287 305.7684796404772
2747.631283957238 -163.56011717991413 283.2944330475293
2489.6992277269474 -147.3007158926351 255.13232391731134
2237.3322161733254 -131.53024756542115 227.81707151542105
1977.3434565325254 -116.04997513702425 201.00445315443017
1734.1245213692218 -101.28276216875972 175.42689000720605
114.9165336591928 19.7005586429693 -34.12236850711285
138.60207337353873 43.88777746655608 -76.01586040335131
142.09637958522933 65.21055603068613 -112.94799623496496
1265.1577397415015 -6.7466369252281675 11.685517934715405
1294.7380477007464 -110.00811585593252 190.5396459073977
1387.2868862270948 -143.32804487924983 248.2514558803719
1471.21289366031 -140.46507537419416 243.29264723709517
1461.96690099676 -137.6832287196968 238.4743474926403
1479.42413975436 -147.77947601658732 255.96156077663454
1671.4405878821508 -189.06533198112365 327.4707609411817
2029.8888964475075 -246.87828693417885 427.60573625556367
2186.3091955714463 -275.9696204323483 477.9934039343234
2147.736524972245 -275.80395929447803 477.7064704266924
2059.461684566074 -253.88379480777104 439.73963182544907
2130.768705919521 -246.71730775954038 427.3269121461294
2202.452884038672 -245.81595096430414 425.7657163810328
2123.4706742821836 -223.33742547576287 386.83176815564735
2101.016795872269 -212.26901909211088 367.66072594034256
1920.6188432775623 -183.11553494296487 317.1654101763679
2018.7661038838764 -186.54810336762432 323.11079308833473
2062.466437718998 -186.29283296979676 322.6686517896291
2240.562151531535 -190.0261632287809 329.1349694796238
2420.0049702962638 -201.0656706317792 348.2559571921496
2353.67721059303 -191.47027347948685 331.6362418055776
2566.333186237809 -205.3717393949038 355.71428707076666
2727.5181056923407 -205.92807332251175 356.67788569935794
2804.9189857472556 -205.60379973120175 356.1162273636562
2879.9720863628113 -206.54050832761268 357.73865424452646
2959.0733836329514 -207.21938500039596 358.9145031338604
3043.739361481458 -209.10431941661312 362.1793053116836
3132.031297881508 -211.68370696786516 366.6469356028629
3215.8004232827993 -213.9976642056193 370.6548271051948
3108.474271148414 -206.26592771126155 357.2630666662327
3187.5168540247582 -206.79710965418042 358.18310077943136
3264.5548318352476 -209.93868090291133 363.6244617978308
3338.9916946302815 -213.57874317648688 369.9292345983784
3407.3986202865335 -215.14620868289882 372.6441644945955
3659.0031440485495 -230.65411463592164 399.5046455242308
3696.0927694741827 -231.02912277214935 400.1541786694289
3703.5216104859715 -229.6288682681785 397.7288667250242
3674.2717123414504 -228.3254841573409 395.47133922327555
3595.085960993616 -220.0332152776192 381.1087082135754
3435.3058618657674 -206.27356067013423 357.27628733881227
3212.9507305953 -191.43664235132462 331.5779909828847
2981.4883803553407 -176.53551403013287 305.7684796404772
2747.631283957238 -163.56011717991413 283.2944330475293
2489.6992277269474 -147.3007158926351 255.13232391731134
2237.3322161733254 -131.53024756542115 227.81707151542105
1977.3434565325254 -116.04997513702425 201.00445315443017
1734.1245213692218 -101.28276216875972 175.42689000720605

VECTORS D float
90.73499556272543 -16.170361685753015 26.58683980596282
59.246083473823916 -19.329838762799255 32.16434374808259
12.151811384229688 -5.726933824431637 9.572349521774477
526.9837342056517 -323.1479953529225 541.375547002157
512.5107379389282 -385.34418131953095 646.5202961451783
469.8338410579142 -416.9493197330533 700.6424060371971
408.22145035522067 -415.96647764517024 699.689910956162
344.2578224532416 -394.8068530539927 664.6575878759717
307.8953659947885 -391.13920090130324 658.923180650307
320.56995736001807 -445.824032153979 751.4331057014728
358.4716829584646 -540.3626316766571 911.1402577634485
355.0666377952945 -575.3710580476336 970.4785128050831
320.91045063586154 -555.2958889124924 937.4931476284684
278.1237106567454 -510.5712818792171 862.3009825527806
259.0250427529196 -501.93679618644956 847.9949959557779
245.30563452331864 -499.58195797368546 844.2634411675227
215.45481673059697 -459.39739518917963 776.5587275790327
196.8242456030844 -437.9057625682024 740.4067138189896
165.41123715965446 -382.85463205209 647.4676582448074
162.51117647194067 -390.12318923707494 659.8955981027937
156.30645615197537 -388.25615049142135 656.8748147430696
157.3977128761881 -403.52019974534306 683.0446963541175
161.17941361586998 -425.6910358219612 720.7317905444979
149.00315968696975 -404.6189913052329 685.197586881132
155.17032047019217 -432.4401216999652 732.4566379593676
154.86982049305666 -442.1797161457348 749.0969233412249
151.92144099820172 -443.66741251309304 751.7573682694888
149.65315406399367 -446.33750871635704 756.4199138704347
147.63021400746425 -449.13762863887985 761.3543865223442
146.49418439411892 -453.82093100866047 769.4479712001029
145.87872656455502 -459.5870305725668 779.3859443199389
145.25220998131775 -464.83173555103593 788.4480709102273
137.17474263108662 -445.41247248145305 755.6736626561723
136.40301335721318 -448.92747476213276 761.8058303012336
136.5192343538706 -454.97539615324274 772.2417656540302
136.85393957897955 -461.42186256214467 783.3598401543297
136.5744379829224 -465.46505802445535 790.401725207275
144.34177304123781 -496.8661552107555 843.912001186942
143.2120679554262 -497.542681455152 845.2471161561575
141.12185789380325 -494.47060139154195 840.2091795417703
138.48566318394663 -489.05193968173324 831.1757158120173
133.0781667631713 -473.35192434353996 804.6550901725232
124.78219515067919 -446.7793498892086 759.6312386823731
115.20534357567854 -415.03125156190464 705.7557186739624
105.71059762238818 -382.9054022693864 651.2351540912565
96.9251496965102 -352.8083460463155 600.1400389267545
86.99150709638718 -318.0384588658115 541.0720540100551
77.48318843621554 -284.36542737908104 483.86272549223287
68.07352722060728 -250.67149389442844 426.5783815383291
59.305305644760466 -219.00906784481592 372.73306793460466
90.73499556272543 -16.170361685753015 26.58683980596282
59.246083473823916 -19.329838762799255 32.16434374808259
12.151811384229688 -5.726933824431637 9.572349521774477
526.9837342056517 -323.1479953529225 541.375547002157
512.5107379389282 -385.34418131953095 646.5202961451783
469.8338410579142 -416.9493197330533 700.6424060371971
408.22145035522067 -415.96647764517024 699.689910956162
344.2578224532416 -394.8068530539927 664.6575878759717
307.8953659947885 -391.13920090130324 658.923180650307
320.56995736001807 -445.824032153979 751.4331057014728
358.4716829584646 -540.3626316766571 911.1402577634485
355.0666377952945 -575.3710580476336 970.4785128050831
320.91045063586154 -555.2958889124924 937.4931476284684
278.1237106567454 -510.5712818792171 862.3009825527806
259.0250427529196 -501.93679618644956 847.9949959557779
245.30563452331864 -499.58195797368546 844.2634411675227
215.45481673059697 -459.39739518917963 776.5587275790327
196.8242456030844 -437.9057625682024 740.4067138189896
165.41123715965446 -382.85463205209 647.4676582448074
162.51117647194067 -390.12318923707494 659.8955981027937
156.30645615197537 -388.25615049142135 656.8748147430696
157.3977128761881 -403.52019974534306 683.0446963541175
161.17941361586998 -425.6910358219612 720.7317905444979
149.00315968696975 -404.6189913052329 685.197586881132
155.17032047019217 -432.4401216999652 732.4566379593676
154.86982049305666 -442.1797161457348 749.0969233412249
151.92144099820172 -443.66741251309304 751.7573682694888
149.65315406399367 -446.33750871635704 756.4199138704347
147.63021400746425 -449.13762863887985 761.3543865223442
146.49418439411892 -453.82093100866047 769.4479712001029
145.87872656455502 -459.5870305725668 779.3859443199389
145.25220998131775 -464.83173555103593 788.4480709102273
137.17474263108662 -445.41247248145305 755.6736626561723
136.40301335721318 -448.92747476213276 761.8058303012336
136.5192343538706 -454.97539615324274 772.2417656540302
136.85393957897955 -461.42186256214467 783.3598401543297
136.5744379829224 -465.46505802445535 790.401725207275
144.34177304123781 -496.8661552107555 843.912001186942
143.2120679554262 -497.542681455152 845.2471161561575
141.12185789380325 -494.47060139154195 840.2091795417703
138.48566318394663 -489.05193968173324 831.1757158120173
133.0781667631713 -473.35192434353996 804.6550901725232
124.78219515067919 -446.7793498892086 759.6312386823731
115.20534357567854 -415.03125156190464 705.7557186739624
105.71059762238818 -382.9054022693864 651.2351540912565
96.9251496965102 -352.8083460463155 600.1400389267545
86.99150709638718 -318.0384588658115 541.0720540100551
77.48318843621554 -284.36542737908104 483.86272549223287
68.07352722060728 -250.67149389442844 426.5783815383291
59.305305644760466 -219.00906784481592 372.73306793460466

VECTORS L float
24.181538096467346 35.87092032872232 -60.7092083130757
79.35598989971481 63.21761622935534 -108.1802041514339
129.94456820099964 70.93748985511776 -122.52034575673945
738.1740055358499 316.40135842769433 -529.6900290674416
782.2273097618182 275.3360654635984 -455.98065023778054
917.4530451691803 273.6212748538035 -452.3909501568254
1062.9914433050894 275.5014022709762 -456.3972637190669
1117.7090785435184 257.123624334296 -426.1832403833314
1171.5287737595718 243.35972488471597 -402.9616198736726
1350.8706305221328 256.75870017285536 -423.96234476029093
1671.4172134890428 293.48434474247813 -483.5345215078848
1831.2425577761517 299.40143761528526 -492.48510887075975
1826.8260743363835 279.49192961801447 -459.78667720177606
1781.3379739093289 256.68748707144607 -422.5613507273314
1871.7436631666014 255.21948842690912 -420.66808380964864
1957.1472495153535 253.7660070093814 -418.49772478649
1908.0158575515868 236.05996971341676 -389.72695942338555
1904.192550269185 225.63674347609157 -372.74598787864704
1755.207606117908 199.73909710912508 -330.3022480684394
1856.2549274119358 203.5750858694506 -336.78480501445887
1906.1599815670222 201.96331752162462 -334.2061629534405
2083.1644386553467 213.49403651656218 -353.9097268744936
2258.825556680393 224.62536519018187 -372.47583335234845
2204.6740509060596 213.14871782574602 -353.5613450755543
2411.162865767617 227.06838230506133 -376.7423508886011
2572.6482851992846 236.25164282322316 -392.4190376418671
2652.997544749054 238.06361278189132 -395.64114090583274
2730.3189322988183 239.7970003887445 -398.68125962590864
2811.443169625487 241.91824363848397 -402.43988338848374
2897.2451770873386 244.7166115920473 -407.26866588841915
2986.152571316953 247.90332360470168 -412.73900871707593
3070.5482133014816 250.83407134541682 -417.7932438050327
2971.299528517328 239.14654477019153 -398.4105959899393
3051.1138406675454 242.13036510795246 -403.62272952180234
3128.035597481377 245.03671525033144 -408.6173038561995
3202.137755051301 247.84311938565781 -413.4306055559513
3270.824182303612 250.3188493415566 -417.7575607126797
3514.6613710073116 266.21204057483385 -444.40735566271127
3552.8807015187567 266.51355868300266 -445.0929374867288
3562.3997525921686 264.84173312336355 -442.48031281674605
3535.7860491575034 260.7264555243924 -435.70437658874175
3462.0077942304456 253.3187090659209 -423.5463819589479
3310.5236667150884 240.50578921907433 -402.3549513435608
3097.745387019622 223.59460921058007 -374.1777276910777
2875.777782732953 206.36988823925347 -345.4666744507792