# vtk DataFile Version 4.0
[MyVLM domain - lattices] 
ASCII
DATASET UNSTRUCTURED_GRID
POINTS 152 float
0.0 -0.3173868304691232 2.224430106385559
0.0 1.0029597229297533 4.0358931929090645
0.0 2.324392667971833 5.792823691600219
0.0 3.6140284375549725 7.5228141914862245
0.0 4.871603537241319 9.2260857906527
0.0 6.12539725207524 10.87890935144896
0.0 7.398834755575096 12.461628819415488
0.0 8.697962531393719 13.96917059234927
0.0 9.985907551273582 15.43247481466158
0.0 11.247571877997837 16.864210159902623
0.0 12.483145646041985 18.26421708630413
0.0 13.69290711540286 19.632262106005374
0.0 14.87716229909936 20.96808844359508
0.0 16.038429621516773 22.2695828901004
0.0 17.175028900278605 23.53815528593375
0.0 18.283277125320318 24.776896043481926
0.0 19.362626059474216 25.986265188350114
0.0 20.413979148920465 27.16550463918177
0.0 21.437987277609253 28.31406823949434
0.0 22.434650257849924 29.431956146778994
0.0 23.40396790696435 30.519168514320874
0.0 24.345940047286895 31.575705491199145
0.0 25.260566506164444 32.60156722228699
0.0 26.147847115956388 33.59675384825155
0.0 27.007781714034632 34.56126550555403
0.0 27.84037014278359 35.495102326449604
0.0 28.64561224960018 36.398264438987454
0.0 29.423507886893837 37.27075196701078
0.0 30.174055688682063 38.11256605671499
0.0 30.897238713282135 38.92372092385979
0.0 31.593053516757244 39.70421945825131
0.0 32.26150252319771 40.454059625836244
0.0 32.90258806142392 41.17323947250226
0.0 33.516312364986334 41.861757124078
0.0 34.10267757216551 42.51961078633303
0.0 34.661685725972056 43.146798744977914
0.0 35.193662037249254 43.74304811571398
0.0 35.69963488036537 44.30749598998811
0.0 36.18123614279994 44.83877305161813
0.0 36.63931475346348 45.3361669646683
0.0 37.073275890781986 45.800176843702
0.0 37.483314186808315 46.230639373035444
0.0 37.87845110168852 46.6199846487874
0.0 38.25848183951344 46.96838451512973
0.0 38.61657585999234 47.28157047590111
0.0 38.9480783427667 47.56344838914759
0.0 39.25181063782417 47.8150072596598
0.0 39.52889954740691 48.03530158809195
0.0 39.778357321452994 48.22516019515669
0.0 39.998227111433266 48.38622507173312
0.0 40.186814929068774 48.51991764276131
-0.7686761955390344 2.1744985707209104 0.13348998531095702
-0.8409029948616161 3.725502654376495 1.7514084232677969
-0.8940476007249757 5.2204258962180585 3.362763277901667
-0.9506443374492793 6.695169941354424 4.937429492043099
-1.0210144815146838 8.148629596326213 6.476334433116236
-1.048631451549771 9.557425417162573 7.999095783934146
-0.9920275022819518 10.905622954280332 9.519084135265091
-0.9074715353829097 12.177847789821563 11.049200155463216
-0.8388231939293685 13.404833155307744 12.563655601293963
-0.7803448823218929 14.602189117882613 14.049352071174368
-0.7251531968841737 15.771623253380332 15.504856738851782
-0.671766762046156 16.915547339318792 16.928145882700456
-0.6188683613166902 18.0307216266413 18.321937974958974
-0.5668565661826578 19.116082159178085 19.68712578085698
-0.5162677046190278 20.172270419607013 21.02317103251606
-0.4681223452427161 21.203599891680835 22.326454287310206
-0.42442582165628834 22.210566978076532 23.59655901393623
-0.3846819074085718 23.192264951989934 24.834246046521113
-0.3476243488905531 24.148118625733872 26.039998024840994
-0.3131098246080671 25.078169562131386 27.213780073546403
-0.28048746260446866 25.982488331528756 28.355532977085797
-0.2502235469699514 26.861065912393666 29.465264305423617
-0.2227998260917326 27.713902659760002 30.54297376065107
-0.19746739264611052 28.54106756931075 31.588603448515986
-0.17533279734900953 29.342533140011668 32.60217644512608
-0.15613374469432648 30.118344228703773 33.58365511112258
-0.13998404755873647 30.86852480187018 34.533019336238354
-0.12578653595324127 31.5931381410684 35.450216020941845
-0.11250427274737486 32.29223089203193 36.33520602481526
-0.10008179164308317 32.96581222479135 37.18798165328933
-0.08845752889585208 33.61388880393351 38.00853731411167
-0.07764231497362577 34.23646411609597 38.79687008164602
-0.06766212708627829 34.83354151807543 39.55297713920548
-0.0584684819534103 35.405126000364575 40.2768542992695
-0.050013688763705585 35.951222072929404 40.96849777752726
-0.042252254921319045 36.47183376948441 41.62790418929042
-0.03513536582041269 36.96671241896555 42.25528219435711
-0.028615518964613278 37.43505775000871 42.85130330013378
-0.022687693716904638 37.874718531538875 43.41777260382208
-0.017408965386693863 38.284582056807984 43.95562377724389
-0.013252482528008399 38.66645931721837 44.46333721818148
-0.010166684094042405 39.02025778626547 44.94099056559066
-0.00760098697125575 39.33528663349216 45.39755449136502
-0.005464879873870877 39.61151095666689 45.83305828195415
-0.0039015967321000085 39.856987580119586 46.24074145903436
-0.002883995165670249 40.07704920811701 46.61612935242225
-0.0022477517166190047 40.272639967730825 46.95842974544018
-0.00179874084072329 40.4417364918226 47.26934044470775
-0.0014595970466816986 40.58514735536939 47.548182975259934
-0.0012027506489664258 40.70501032490567 47.79316353798613
-0.0010073243559101815 40.803175989933045 48.00272930391806
-0.603592196400244 2.298197070969106 1.4893773156288606
-0.6506064733449719 3.7706422553356562 3.1464039985022096
-0.6917594768153456 5.210651077280532 4.777027024115093
-0.7393720571114861 6.627128823479776 6.373773969702118
-0.7761172248991705 8.014395728722864 7.941410724156601
-0.7652471076868961 9.364172140247383 9.48688474105777
-0.712312139124323 10.66840118990931 11.016956535493707
-0.6548605234921042 11.9289891147569 12.530026584660298
-0.607188028594223 13.156818281105311 14.01696349899615
-0.564561779702275 14.356519329728583 15.473881709535648
-0.5238449845988737 15.529695567442774 16.899435882120777
-0.48398817126106725 16.67610953904781 18.293825265322344
-0.4446468478122555 17.794500409759284 19.658107825142913
-0.4061716015506322 18.884814532268834 20.992328577019162
-0.369146268698154 19.948239619932806 22.29549091111181
-0.3347055625871267 20.986050474258327 23.566525141946418
-0.3034153983993225 21.998137624824256 24.805523126112988
-0.27461484611217185 22.984139644962642 26.012788136595304
-0.24777531506198255 23.943937762381868 27.18841983517944
-0.22259898270470088 24.87757398072434 28.33238297662456
-0.19901662859040753 25.785071335752317 29.444658231631035
-0.1773837648981315 26.666426533739045 30.525248363963776
-0.15760020702669117 27.521665538666632 31.574131587254968
-0.13980007124817 28.350803869744784 32.591294879341476
-0.124299953266251 29.153847995370572 33.5767328125937
-0.11104417209489861 29.930823685513207 34.530423763439984
-0.09966396881699166 30.681763620663716 35.45234030969235
-0.08935905326273105 31.40670883435961 36.34244802012463
-0.07971977414642176 32.105677969054256 37.200731251861065
-0.07070224520210072 32.77867441452675 38.02718716053926
-0.06228744145105419 33.425701850005424 38.82181265892007
-0.05448916577246402 34.046763435891975 39.58460509511162
-0.04729897838988322 34.64186287271628 40.31556136400065
-0.04068081401891846 35.21100426962922 41.01467801760016
-0.03459972888188424 35.754191353172374 41.6819519289705
-0.029020357778149403 36.27137329107139 42.31742575145431
-0.023906581794384738 36.76232592806717 42.92128757364684
-0.019238704755569217 37.22627498347601 43.49418709418422
-0.015036247163849435 37.662306582663 44.03689114493554
-0.011498042968013347 38.07071434579057 44.549153349330794
-0.00878218748326905 38.45209267350522 45.03047494600673
-0.006662876649486808 38.80354981847121 45.483282399086235
-0.004899700066922485 39.12216571395989 45.91002593548433
-0.0035124287272390825 39.41006916373315 46.30891927674954
-0.0025445969616638467 39.6708455709336 46.676953912427315
-0.0019244050808584702 39.906119563516796 47.01276661779933
-0.0015174347090033604 40.11547994548641 47.31670242727444
-0.0012218767077768707 40.29848855130448 47.589129005393964
-0.0009983803858680466 40.455882184213934 47.829428100828494
-0.0008287781268287279 40.588700123127275 48.03672765502587

CELLS 100 350
4 0 51 52 1
4 1 52 53 2
4 2 53 54 3
4 3 54 55 4
4 4 55 56 5
4 5 56 57 6
4 6 57 58 7
4 7 58 59 8
4 8 59 60 9
4 9 60 61 10
4 10 61 62 11
4 11 62 63 12
4 12 63 64 13
4 13 64 65 14
4 14 65 66 15
4 15 66 67 16
4 16 67 68 17
4 17 68 69 18
4 18 69 70 19
4 19 70 71 20
4 20 71 72 21
4 21 72 73 22
4 22 73 74 23
4 23 74 75 24
4 24 75 76 25
4 25 76 77 26
4 26 77 78 27
4 27 78 79 28
4 28 79 80 29
4 29 80 81 30
4 30 81 82 31
4 31 82 83 32
4 32 83 84 33
4 33 84 85 34
4 34 85 86 35
4 35 86 87 36
4 36 87 88 37
4 37 88 89 38
4 38 89 90 39
4 39 90 91 40
4 40 91 92 41
4 41 92 93 42
4 42 93 94 43
4 43 94 95 44
4 44 95 96 45
4 45 96 97 46
4 46 97 98 47
4 47 98 99 48
4 48 99 100 49
4 49 100 101 50
1 102
1 103
1 104
1 105
1 106
1 107
1 108
1 109
1 110
1 111
1 112
1 113
1 114
1 115
1 116
1 117
1 118
1 119
1 120
1 121
1 122
1 123
1 124
1 125
1 126
1 127
1 128
1 129
1 130
1 131
1 132
1 133
1 134
1 135
1 136
1 137
1 138
1 139
1 140
1 141
1 142
1 143
1 144
1 145
1 146
1 147
1 148
1 149
1 150
1 151

CELL_TYPES 100
9
9
9
9
9
9
9
9
9
9
9
9
9
9
9
9
9
9
9
9
9
9
9
9
9
9
9
9
9
9
9
9
9
9
9
9
9
9
9
9
9
9
9
9
9
9
9
9
9
9
1
1
1
1
1
1
1
1
1
1
1
1
1
1
1
1
1
1
1
1
1
1
1
1
1
1
1
1
1
1
1
1
1
1
1
1
1
1
1
1
1
1
1
1
1
1
1
1
1
1

CELL_DATA 100

VECTORS S float
-1.426717737636387e-17 2.694399682648722e-15 2.315552046775966e-15
-3.995970695850998e-17 5.4019878591079825e-15 4.615628703222833e-15
5.0886656953268274e-17 -5.406956162067338e-15 -4.609699940752208e-15
0.0 0.0 0.0
0.0 0.0 0.0
0.0 0.0 0.0
7.658213572902616e-17 2.151179520336182e-14 1.857499311578399e-14
7.185526147295356e-17 2.1524382423772824e-14 1.8560424699960242e-14
1.4736360917138332e-16 4.3065621346114836e-14 3.710127773844203e-14
0.0 0.0 0.0
-8.691087555821498e-17 -2.1540800269756218e-14 -1.854130354598878e-14
0.0 0.0 0.0
1.7424348393705091e-16 4.310577417183575e-14 3.70545022910883e-14
-8.173831166196581e-17 -2.155817502870503e-14 -1.8521122407306786e-14
0.0 0.0 0.0
-7.092616408218732e-17 -2.156726160276267e-14 -1.851058517128952e-14
-1.3115527003043084e-16 -4.314237856089187e-14 -3.701205530890045e-14
0.0 0.0 0.0
0.0 0.0 0.0
0.0 0.0 0.0
-5.314026953051978e-17 -2.1582772218742537e-14 -1.849255759520423e-14
0.0 0.0 0.0
0.0 0.0 0.0
0.0 0.0 0.0
-4.570031922970286e-17 -2.158836788876911e-14 -1.8486044745328867e-14
0.0 0.0 0.0
0.0 0.0 0.0
3.975251800324565e-17 2.1593958077547794e-14 1.847952816574971e-14
-3.844607145531496e-17 -2.159579793394423e-14 -1.847738077872932e-14
3.709985239824676e-17 2.1598462606685845e-14 1.8474268688499185e-14
-7.210983037469678e-17 -4.320119198379476e-14 -3.694355260579219e-14
0.0 0.0 0.0
6.907788094177588e-17 4.3209488443002017e-14 3.6933854449890606e-14
3.3367371161989906e-17 2.1606903636086645e-14 1.8464402747603925e-14
3.267167431459634e-17 2.1608924700857498e-14 1.8462038695135603e-14
3.210555785807732e-17 2.161091584900726e-14 1.845970889116612e-14
-3.130029572561438e-17 -2.1612905346098705e-14 -1.845738090137335e-14
3.085848105384424e-17 2.161482566470781e-14 1.8455132786971536e-14
6.046266015117362e-17 4.3233442641747075e-14 3.690582676752761e-14
0.0 0.0 0.0
-2.935289764580974e-17 -2.1620309179500302e-14 -1.8448710966800118e-14
0.0 0.0 0.0
0.0 0.0 0.0
2.725996988022349e-17 2.162522742260983e-14 1.8442948862933014e-14
2.6825863388914767e-17 2.162666179988251e-14 1.8441267492037317e-14
-2.672915061224434e-17 -2.1627959081314252e-14 -1.843974616082933e-14
0.0 0.0 0.0
0.0 0.0 0.0
-3.863761543019212e-17 -3.2446830177500216e-14 -2.7653882985872822e-14
-1.274143890894402e-17 -1.0816027483866911e-14 -9.217471391902942e-15
-1.426717737636387e-17 2.694399682648722e-15 2.315552046775966e-15
-3.995970695850998e-17 5.4019878591079825e-15 4.615628703222833e-15
5.0886656953268274e-17 -5.406956162067338e-15 -4.609699940752208e-15
0.0 0.0 0.0
0.0 0.0 0.0
0.0 0.0 0.0
7.658213572902616e-17 2.151179520336182e-14 1.857499311578399e-14
7.185526147295356e-17 2.1524382423772824e-14 1.8560424699960242e-14
1.4736360917138332e-16 4.3065621346114836e-14 3.710127773844203e-14
0.0 0.0 0.0
-8.691087555821498e-17 -2.1540800269756218e-14 -1.854130354598878e-14
0.0 0.0 0.0
1.7424348393705091e-16 4.310577417183575e-14 3.70545022910883e-14
-8.173831166196581e-17 -2.155817502870503e-14 -1.8521122407306786e-14
0.0 0.0 0.0
-7.092616408218732e-17 -2.156726160276267e-14 -1.851058517128952e-14
-1.3115527003043084e-16 -4.314237856089187e-14 -3.701205530890045e-14
0.0 0.0 0.0
0.0 0.0 0.0
0.0 0.0 0.0
-5.314026953051978e-17 -2.1582772218742537e-14 -1.849255759520423e-14
0.0 0.0 0.0
0.0 0.0 0.0
0.0 0.0 0.0
-4.570031922970286e-17 -2.158836788876911e-14 -1.8486044745328867e-14
0.0 0.0 0.0
0.0 0.0 0.0
3.975251800324565e-17 2.1593958077547794e-14 1.847952816574971e-14
-3.844607145531496e-17 -2.159579793394423e-14 -1.847738077872932e-14
3.709985239824676e-17 2.1598462606685845e-14 1.8474268688499185e-14
-7.210983037469678e-17 -4.320119198379476e-14 -3.694355260579219e-14
0.0 0.0 0.0
6.907788094177588e-17 4.3209488443002017e-14 3.6933854449890606e-14
3.3367371161989906e-17 2.1606903636086645e-14 1.8464402747603925e-14
3.267167431459634e-17 2.1608924700857498e-14 1.8462038695135603e-14
3.210555785807732e-17 2.161091584900726e-14 1.845970889116612e-14
-3.130029572561438e-17 -2.1612905346098705e-14 -1.845738090137335e-14
3.085848105384424e-17 2.161482566470781e-14 1.8455132786971536e-14
6.046266015117362e-17 4.3233442641747075e-14 3.690582676752761e-14
0.0 0.0 0.0
-2.935289764580974e-17 -2.1620309179500302e-14 -1.8448710966800118e-14
0.0 0.0 0.0
0.0 0.0 0.0
2.725996988022349e-17 2.162522742260983e-14 1.8442948862933014e-14
2.6825863388914767e-17 2.162666179988251e-14 1.8441267492037317e-14
-2.672915061224434e-17 -2.1627959081314252e-14 -1.843974616082933e-14
0.0 0.0 0.0
0.0 0.0 0.0
-3.863761543019212e-17 -3.2446830177500216e-14 -2.7653882985872822e-14
-1.274143890894402e-17 -1.0816027483866911e-14 -9.217471391902942e-15

SCALARS Gamma float
LOOKUP_TABLE default
-0.0
-0.0
-0.0
51.334443635623636
55.00601118430704
55.0274896474124
52.83482404681139
48.09891807235816
45.01236371782386
47.65956613141137
54.22897256217347
54.973058109594675
51.06706965730497
46.21263177274636
45.20045048874503
44.409711751272795
40.82567175696764
38.65691315163516
33.94110380919123
34.29551774396578
33.77423691938006
35.35780352362996
36.94609087969381
34.90745280291217
36.99137543102061
38.254174857521
38.357053195952666
38.45976100437375
38.66464411839455
38.863163895340726
39.20808161621784
39.51391417795434
37.53979562976227
37.86806342156299
38.19018639088146
38.50096200107139
38.75490098907703
41.09350174257171
41.01602751528713
40.64291540625638
39.9144783453809
38.67808808478352
36.62814078902533
33.99289838801171
31.31707794062816
28.673678522721538
25.829629152784975
23.08616418214852
20.312541640954425
17.74545091379498
-0.0
-0.0
-0.0
51.334443635623636
55.00601118430704
55.0274896474124
52.83482404681139
48.09891807235816
45.01236371782386
47.65956613141137
54.22897256217347
54.973058109594675
51.06706965730497
46.21263177274636
45.20045048874503
44.409711751272795
40.82567175696764
38.65691315163516
33.94110380919123
34.29551774396578
33.77423691938006
35.35780352362996
36.94609087969381
34.90745280291217
36.99137543102061
38.254174857521
38.357053195952666
38.45976100437375
38.66464411839455
38.863163895340726
39.20808161621784
39.51391417795434
37.53979562976227
37.86806342156299
38.19018639088146
38.50096200107139
38.75490098907703
41.09350174257171
41.01602751528713
40.64291540625638
39.9144783453809
38.67808808478352
36.62814078902533
33.99289838801171
31.31707794062816
28.673678522721538
25.829629152784975
23.08616418214852
20.312541640954425
17.74545091379498

VECTORS Ftot float
115.9799490402272 -25.391478788550035 30.260386067534117
139.66999769595685 -56.54440723192877 67.387000459761
143.00135894209427 -83.96025899998561 100.05994029837298
1278.037971022538 7.813084070348616 -9.311271010078537
1305.9213953193805 142.92486571228164 -170.33122218365628
1399.972952698095 186.02890775218754 -221.70061914004586
1481.7153222959123 181.55099216311496 -216.36404714943504
1470.5769729283245 177.5734337338717 -211.62377760163102
1484.3496923243044 190.21460501538138 -226.6889388909689
1678.3267854707308 244.0327241872889 -290.82687576075284
2038.1926719777182 318.6765848753876 -379.783964900896
2200.657666989464 356.69144157338 -425.0883069426825
2169.0772956565224 358.56293564728946 -427.31866672878283
2082.220250499186 330.84023911664946 -394.28004354199356
2154.155802837187 321.54233829745715 -383.19923683713654
2226.491560686852 320.4508517662551 -381.8984538423083
2148.243615978545 291.4074136908205 -347.2858321746217
2126.092746966297 277.20974979697286 -330.3657152226838
1947.0749908207574 239.5350167687827 -285.4667167863105
2044.4386809589073 243.85752960161795 -290.6180869838764
2086.712526619368 243.28330714159213 -289.93375530419246
2262.4356083835464 247.4490214677597 -294.89826031812373
2439.848542082371 261.4263124608873 -311.5557470739182
2375.0072703377305 249.35724244825627 -297.1723895270942
2588.056837131836 267.32301693005286 -318.5831658095126
2750.8795398500943 268.34671066486106 -319.8031564956865
2828.560388140474 267.8474031088595 -319.2081049220122
2903.729829418482 269.015002581593 -320.5995957883535
2984.9075852643714 270.21776693525635 -322.0329945278759
3064.002917508117 271.7437118815214 -323.8515448996883
3152.5942392090456 275.08186829248854 -327.8298047950998
3236.604022956713 278.07287119561516 -331.39434325036063
3128.279438426521 267.919929544854 -319.2945385626667
3208.2985081158267 268.89862205751973 -320.46089888068104
3285.5970302427445 272.95306707187575 -325.2927982925156
3360.1653410603594 277.6772492349384 -330.92285935741495
3428.599370464188 279.65516492090086 -333.28004748200914
3681.2953586938743 299.6192547469431 -357.07232325506845
3717.9783549453673 300.0482680942733 -357.58360145302004
3724.857211717013 298.17347018229265 -355.349304306029
3694.9615332747644 296.3260665446467 -353.14765438389287
3614.8743859381398 285.72581788405995 -340.51476996024667
3453.834327905826 267.8213099194168 -319.1770082697516
3230.9653785136334 248.6455802991499 -296.3242636041834
2998.2346526017423 229.28641893858884 -273.25291350312375
2762.639089865728 212.39108406363044 -253.1178374678099
2503.231236906895 191.27238881317368 -227.94955653217582
2248.988487429518 170.74887962393157 -203.49059072325628
1987.617135934074 150.64567221517638 -179.53252107120582
1743.1189693531892 131.47585969702 -156.68682813333558
115.9799490402272 -25.391478788550035 30.260386067534117
139.66999769595685 -56.54440723192877 67.387000459761
143.00135894209427 -83.96025899998561 100.05994029837298
1278.037971022538 7.813084070348616 -9.311271010078537
1305.9213953193805 142.92486571228164 -170.33122218365628
1399.972952698095 186.02890775218754 -221.70061914004586
1481.7153222959123 181.55099216311496 -216.36404714943504
1470.5769729283245 177.5734337338717 -211.62377760163102
1484.3496923243044 190.21460501538138 -226.6889388909689
1678.3267854707308 244.0327241872889 -290.82687576075284
2038.1926719777182 318.6765848753876 -379.783964900896
2200.657666989464 356.69144157338 -425.0883069426825
2169.0772956565224 358.56293564728946 -427.31866672878283
2082.220250499186 330.84023911664946 -394.28004354199356
2154.155802837187 321.54233829745715 -383.19923683713654
2226.491560686852 320.4508517662551 -381.8984538423083
2148.243615978545 291.4074136908205 -347.2858321746217
2126.092746966297 277.20974979697286 -330.3657152226838
1947.0749908207574 239.5350167687827 -285.4667167863105
2044.4386809589073 243.85752960161795 -290.6180869838764
2086.712526619368 243.28330714159213 -289.93375530419246
2262.4356083835464 247.4490214677597 -294.89826031812373
2439.848542082371 261.4263124608873 -311.5557470739182
2375.0072703377305 249.35724244825627 -297.1723895270942
2588.056837131836 267.32301693005286 -318.5831658095126
2750.8795398500943 268.34671066486106 -319.8031564956865
2828.560388140474 267.8474031088595 -319.2081049220122
2903.729829418482 269.015002581593 -320.5995957883535
2984.9075852643714 270.21776693525635 -322.0329945278759
3064.002917508117 271.7437118815214 -323.8515448996883
3152.5942392090456 275.08186829248854 -327.8298047950998
3236.604022956713 278.07287119561516 -331.39434325036063
3128.279438426521 267.919929544854 -319.2945385626667
3208.2985081158267 268.89862205751973 -320.46089888068104
3285.5970302427445 272.95306707187575 -325.2927982925156
3360.1653410603594 277.6772492349384 -330.92285935741495
3428.599370464188 279.65516492090086 -333.28004748200914
3681.2953586938743 299.6192547469431 -357.07232325506845
3717.9783549453673 300.0482680942733 -357.58360145302004
3724.857211717013 298.17347018229265 -355.349304306029
3694.9615332747644 296.3260665446467 -353.14765438389287
3614.8743859381398 285.72581788405995 -340.51476996024667
3453.834327905826 267.8213099194168 -319.1770082697516
3230.9653785136334 248.6455802991499 -296.3242636041834
2998.2346526017423 229.28641893858884 -273.25291350312375
2762.639089865728 212.39108406363044 -253.1178374678099
2503.231236906895 191.27238881317368 -227.94955653217582
2248.988487429518 170.74887962393157 -203.49059072325628
1987.617135934074 150.64567221517638 -179.53252107120582
1743.1189693531892 131.47585969702 -156.68682813333558

VECTORS D float
91.86325658470271 20.67685949183531 -23.493790326438
60.3276907291168 24.94306213440597 -28.67029617950387
12.914838432671045 7.7243909236873805 -8.917771368739082
534.2837108609729 416.16607425730456 -481.57785158686227
519.417812510265 496.44317316445387 -575.3445595418385
476.5527538896244 537.7891543566586 -623.8545827623062
413.0267303377539 535.3495186885481 -621.6938873347954
347.7383814930944 507.43917318542526 -589.8195666177833
309.9685717106727 501.4222281919427 -583.2612573036703
323.0991573956844 572.3058700418536 -666.1296026735548
360.77384398888347 693.4979284118575 -807.3788068319323
358.5131926418839 740.0223351912088 -862.1091547874581
325.8657542580596 717.9706893682735 -836.7529035649906
282.85965798792114 661.298926210723 -770.985589015558
263.4192074725218 650.1681513206651 -758.2606387286345
249.47623909540127 647.2096433670969 -755.0401002273642
219.29225250221023 595.6652011967032 -695.1025747004051
200.4442265367667 568.1430685425566 -663.1575118402792
168.75593187233707 497.612658721653 -580.9707369776211
165.5874370000199 506.5739862491851 -591.5640797825935
159.07838392192505 503.65499467258377 -588.2758206398497
159.76574859273134 522.3059838415393 -610.1763003459693
163.3206372317994 550.1606648312671 -642.8306948203921
151.2679348593974 523.7879356090157 -611.9595086038045
157.45163136249 559.5400693669815 -653.8311803487559
157.24106231929645 572.5007733511729 -669.0838129138632
154.21860077581354 574.3383803271279 -671.3434104990827
151.88759939088902 577.7108451270044 -675.4015347793994
150.02175427935308 581.93506802619 -680.4600737204275
148.2934791945594 586.199918818625 -685.6303167616802
147.6691089481751 593.6368556806923 -694.4775571284159
147.03058699343296 600.3966125058625 -702.5353838648593
138.82732783053476 575.2125178274035 -673.2096855119943
138.15800369300533 580.1509537100433 -679.1379007486261
138.27259175905036 587.9550983835894 -688.4177449421969
138.60850404768564 596.2837768681459 -698.3148381901556
138.30631442613242 601.4451895663078 -704.5044500619116
146.12051082157492 641.8208777367162 -751.9509936585446
144.95028536608498 642.6102981985927 -753.0252532497191
142.80820046371247 638.5612214816656 -748.4248926614824
140.09444416435187 631.3954296543374 -740.164264381608
134.64647898923997 611.2667047269434 -716.6964993713751
126.23295250081448 576.8988621937029 -676.5168829055741
116.5921827052325 536.0849637123966 -628.7572363667431
106.97857509759014 494.59866752584503 -580.187229891597
98.06775867135015 455.65532742360165 -534.5798124668378
88.0121172523225 410.7477509298631 -481.9554666940893
78.37132265250331 367.1860420740735 -430.89155328915933
68.85030235734988 323.67504651301897 -379.8703235915782
59.98055515659947 282.7938398347877 -331.9207679004196
91.86325658470271 20.67685949183531 -23.493790326438
60.3276907291168 24.94306213440597 -28.67029617950387
12.914838432671045 7.7243909236873805 -8.917771368739082
534.2837108609729 416.16607425730456 -481.57785158686227
519.417812510265 496.44317316445387 -575.3445595418385
476.5527538896244 537.7891543566586 -623.8545827623062
413.0267303377539 535.3495186885481 -621.6938873347954
347.7383814930944 507.43917318542526 -589.8195666177833
309.9685717106727 501.4222281919427 -583.2612573036703
323.0991573956844 572.3058700418536 -666.1296026735548
360.77384398888347 693.4979284118575 -807.3788068319323
358.5131926418839 740.0223351912088 -862.1091547874581
325.8657542580596 717.9706893682735 -836.7529035649906
282.85965798792114 661.298926210723 -770.985589015558
263.4192074725218 650.1681513206651 -758.2606387286345
249.47623909540127 647.2096433670969 -755.0401002273642
219.29225250221023 595.6652011967032 -695.1025747004051
200.4442265367667 568.1430685425566 -663.1575118402792
168.75593187233707 497.612658721653 -580.9707369776211
165.5874370000199 506.5739862491851 -591.5640797825935
159.07838392192505 503.65499467258377 -588.2758206398497
159.76574859273134 522.3059838415393 -610.1763003459693
163.3206372317994 550.1606648312671 -642.8306948203921
151.2679348593974 523.7879356090157 -611.9595086038045
157.45163136249 559.5400693669815 -653.8311803487559
157.24106231929645 572.5007733511729 -669.0838129138632
154.21860077581354 574.3383803271279 -671.3434104990827
151.88759939088902 577.7108451270044 -675.4015347793994
150.02175427935308 581.93506802619 -680.4600737204275
148.2934791945594 586.199918818625 -685.6303167616802
147.6691089481751 593.6368556806923 -694.4775571284159
147.03058699343296 600.3966125058625 -702.5353838648593
138.82732783053476 575.2125178274035 -673.2096855119943
138.15800369300533 580.1509537100433 -679.1379007486261
138.27259175905036 587.9550983835894 -688.4177449421969
138.60850404768564 596.2837768681459 -698.3148381901556
138.30631442613242 601.4451895663078 -704.5044500619116
146.12051082157492 641.8208777367162 -751.9509936585446
144.95028536608498 642.6102981985927 -753.0252532497191
142.80820046371247 638.5612214816656 -748.4248926614824
140.09444416435187 631.3954296543374 -740.164264381608
134.64647898923997 611.2667047269434 -716.6964993713751
126.23295250081448 576.8988621937029 -676.5168829055741
116.5921827052325 536.0849637123966 -628.7572363667431
106.97857509759014 494.59866752584503 -580.187229891597
98.06775867135015 455.65532742360165 -534.5798124668378
88.0121172523225 410.7477509298631 -481.9554666940893
78.37132265250331 367.1860420740735 -430.89155328915933
68.85030235734988 323.67504651301897 -379.8703235915782
59.98055515659947 282.7938398347877 -331.9207679004196

VECTORS L float
24.116692455524483 -46.06833828038535 53.754176393972116
79.34230696684007 -81.48746936633476 96.05729663926488
130.08652050942325 -91.68464992367299 108.97771166711208
743.7542601615651 -408.35299018695605 472.2665805767837
786.5035828091156 -353.5183074521723 405.0133373581823
923.4201988084706 -351.760246604471 402.15396362226033
1068.6885919581587 -353.7985265254334 405.3298401853604
1122.83859143523 -329.86573945155357 378.1957890161522
1174.381120613632 -311.2076231765613 356.5723184127014
1355.2276280750468 -328.27314585456486 375.3027269128022
1677.4188279888347 -374.8213435364698 427.59484193103606
1842.1444743475804 -383.3308936178285 437.0208478447755
1843.211541398463 -359.40775372098426 409.434236836208
1799.3605925112645 -330.45868709407364 376.70554547356454
1890.7365953646654 -328.6258130232082 375.0614018914982
1977.015321591451 -326.75879160084173 373.14164638505565
1928.951363476335 -304.25778750588273 347.8167425257834
1925.6485204295304 -290.9333187455837 332.79179661759537
1778.3190589484202 -258.0776419528704 295.50402019131064
1878.8512439588883 -262.7164566475672 300.94599279871704
1927.6341426974432 -260.37168753099166 298.34206533565737
2102.669859790815 -274.8569623737795 315.2780400278454
2276.5279048505713 -288.73435237037995 331.27494774647397
2223.739335478333 -274.4306931607593 314.7871190767101
2430.6052057693464 -292.21705243692867 335.24801453924334
2593.6384775307984 -304.154062686312 349.2806564181767
2674.341787364661 -306.4909772182685 352.13530557707054
2751.8422300275934 -308.6958425454115 354.8019389910461
2834.885830985018 -311.71730109093363 358.42707919255173
2915.7094383135577 -314.45620693710356 361.7787718619921
3004.925130260871 -318.55498738820376 366.6477523333162
3089.5734359632797 -322.3237413102474 371.1410406144986
2989.4521105959857 -307.2925882825495 353.9151469493275
3070.140504422822 -311.25233165252354 358.677001867945
3147.324438483695 -315.00203131171367 363.12494664968136
3221.556837012673 -318.6065276332074 367.39197883274056
3290.2930560380555 -321.79002464540696 371.22440257990246
3535.1748478722993 -342.20162298977317 394.87867040347624
3573.028069579283 -342.56203010431966 395.4416517966994
3582.0490112533003 -340.3877512993729 393.07558835545336
3554.867089110414 -335.0693631096907 387.01660999771514
3480.227906948899 -325.5408868428835 376.18172941112834
3327.601375405011 -309.0775522742861 357.3398746358225
3114.373195808401 -287.4393834132468 332.43297276255976
2891.256077504153 -265.3122485872562 306.93431638847335
2664.5713311943773 -243.26424335997112 281.4619749990278
2415.2191196545728 -219.4753621166894 254.00591016191342
2170.6171647770148 -196.43716245014193 227.4009625659031
1918.7668335767241 -173.02937429784257 200.33780252037235
1683.1384141965898 -151.31798013776776 175.23393976708408
24.116692455524483 -46.06833828038535 53.754176393972116
79.34230696684007 -81.48746936633476 96.05729663926488
130.08652050942325 -91.68464992367299 108.97771166711208
743.7542601615651 -408.35299018695605 472.2665805767837
786.5035828091156 -353.5183074521723 405.0133373581823
923.4201988084706 -351.760246604471 402.15396362226033