# vtk DataFile Version 4.0
[MyVLM domain - lattices] 
ASCII
DATASET UNSTRUCTURED_GRID
POINTS 152 float
0.0 1.186703693198331 1.908024644206455
0.0 3.362533860842685 2.4469834705358187
0.0 5.504143380985586 2.9434695918997935
0.0 7.604078154124368 3.4397573072894883
0.0 9.662278450919082 3.9361853586246482
0.0 11.685154664862935 4.396398597830646
0.0 13.678016851696858 4.790282202322768
0.0 15.64223563799095 5.110062962552582
0.0 17.56945258681704 5.403143929911209
0.0 19.456245273656826 5.688934638348286
0.0 21.302656798496848 5.96719065569375
0.0 23.10875023775754 6.237554257791135
0.0 24.874594958958703 6.499632041886539
0.0 26.60076184256168 6.750186383998375
0.0 28.286870022142267 6.991377284953884
0.0 29.932084627097634 7.22793953122475
0.0 31.536281382151095 7.46057792292808
0.0 33.09966508192552 7.688131012042632
0.0 34.62238326983412 7.909762038291358
0.0 36.104435903330874 8.125471242964704
0.0 37.54582294100602 8.335258860909155
0.0 38.94654434258602 8.539125120527242
0.0 40.306600068933605 8.73707024377753
0.0 41.62599008204773 8.929094446174636
0.0 42.90471434506359 9.115197936789208
0.0 44.14277282225263 9.295380918247943
0.0 45.340165479022545 9.469643586733575
0.0 46.49689228191728 9.637986131984885
0.0 47.61295292129374 9.800410310075117
0.0 48.68834355678422 9.956937900811742
0.0 49.723063407711614 10.107573331634596
0.0 50.71711302357261 10.25231348619323
0.0 51.670492932267926 10.391155370613864
0.0 52.58320364010233 10.524096113499363
0.0 53.455245631784706 10.65113296592925
0.0 54.28661937042792 10.772263301459704
0.0 55.077398575345306 10.887069037089525
0.0 55.82781636008084 10.994228120214629
0.0 56.53824264349437 11.091642636730551
0.0 57.208869862147 11.178221224666888
0.0 57.839563180934434 11.254728571899149
0.0 58.43036671936125 11.320914464283268
0.0 58.98332547641975 11.365181136212923
0.0 59.49839302864623 11.387791868233961
0.0 59.97402101825985 11.397527833679087
0.0 60.409154283148425 11.400373154251845
0.0 60.803525645044964 11.397843073200415
0.0 61.15739052928114 11.388489001485148
0.0 61.47052503109553 11.373580766108601
0.0 61.74248556893867 11.355634043047909
0.0 61.972888146842344 11.336826581656416
-0.7686761955390344 1.7515682552460408 -1.2954814770809984
-0.8409029948616161 3.9796842401873054 -1.0530502558114554
-0.8940476007249757 6.160620817856355 -0.7795989608145777
-0.9506443374492793 8.302516230497998 -0.5212818573769942
-1.0210144815146838 10.405119951093974 -0.27667813617471393
-1.048631451549771 12.463132289950204 -0.015731763396091836
-0.9920275022819518 14.47294120058936 0.282042194477353
-0.9074715353829097 16.43106158541991 0.6364087080560594
-0.8388231939293685 18.34446010244122 1.0078578964847535
-0.7803448823218929 20.216675266601232 1.3763218442706973
-0.7251531968841737 22.048094153916875 1.7396053342362934
-0.671766762046156 23.839263469967285 2.0946078449699006
-0.6188683613166902 25.589448823262714 2.44549431757579
-0.5668565661826578 27.298409034519565 2.793632547740321
-0.5162677046190278 28.966289516055642 3.1381978612291626
-0.4681223452427161 30.59406805525625 3.473644950220625
-0.42442582165628834 32.1818571774729 3.799335651734335
-0.3846819074085718 33.729451344425684 4.116435631280488
-0.3476243488905531 35.23672017165115 4.42568433589619
-0.3131098246080671 36.70367308067639 4.727028333446094
-0.28048746260446866 38.130326068500196 5.020376900441802
-0.2502235469699514 39.51667709010721 5.3057416347416915
-0.2227998260917326 40.86272622597709 5.583122079923014
-0.19746739264611052 42.16848911616143 5.852429536845461
-0.17533279734900953 43.43395952668188 6.1136993601571685
-0.15613374469432648 44.65914762575878 6.366873883014907
-0.13998404755873647 45.84405884615279 6.611922294701896
-0.12578653595324127 46.98870753262845 6.848763242015951
-0.11250427274737486 48.093104258915105 7.077336758357983
-0.10008179164308317 49.157251103689916 7.297631054963945
-0.08845752889585208 50.18114957769208 7.509637564006102
-0.07764231497362577 51.16480047127818 7.713351803149634
-0.06766212708627829 52.10820454537223 7.90876945697989
-0.0584684819534103 53.0113629312271 8.095884109843118
-0.050013688763705585 53.87427665116908 8.274689963838807
-0.042252254921319045 54.696946619567 8.44518183332355
-0.03513536582041269 55.47931646726697 8.607679403655078
-0.028615518964613278 56.22120478747823 8.763211483867838
-0.022687693716904638 56.92212393570536 8.914543643323048
-0.017408965386693863 57.58182168180582 9.063106350242418
-0.013252482528008399 58.2007085442027 9.20657143895664
-0.010166684094042405 58.77876354884015 9.345057859247083
-0.00760098697125575 59.313563281197936 9.492309477823966
-0.005464879873870877 59.80509982958246 9.648371164131259
-0.0039015967321000085 60.25519952779882 9.802885264463558
-0.002883995165670249 60.665071201766025 9.9489961863633
-0.0022477517166190047 61.03492886771636 10.085490183463193
-0.00179874084072329 61.36431386555577 10.214968446416094
-0.0014595970466816986 61.65340948435128 10.336391491268508
-0.0012027506489664258 61.90270031643472 10.447011058338907
-0.0010073243559101815 62.112605856389536 10.544448075622805
-0.603592196400244 2.7178743800426317 -0.33632338549188623
-0.6506064733449719 4.910949051994906 -0.013436823430311162
-0.6917594768153456 7.0622040850216266 0.31007305557682074
-0.7393720571114861 9.17365814372742 0.6227578356573767
-0.7761172248991705 11.244023729864319 0.9319192822178598
-0.7652471076868961 13.271423998522314 1.2482015116746494
-0.712312139124323 15.25403260596445 1.581962234059448
-0.6548605234921042 17.192281661048924 1.9307508382607788
-0.607188028594223 19.088637995950155 2.2805772238157314
-0.564561779702275 20.9441512917135 2.625488353695376
-0.5238449845988737 22.759184988488357 2.963423056387934
-0.48398817126106725 24.53368525955078 3.2946865984143434
-0.4446468478122555 26.267366296858402 3.620899877729156
-0.4061716015506322 27.960215939553702 3.9421318619825896
-0.369146268698154 29.61250342039695 4.256855656316
-0.3347055625871267 31.224517713429524 4.563432407502214
-0.3034153983993225 32.796234003721544 4.8620028480018975
-0.27461484611217185 34.32757036249876 5.153031618983003
-0.24777531506198255 35.818499866268446 5.436671411160365
-0.22259898270470088 37.26903203648333 5.712868225692193
-0.19901662859040753 38.679172094926784 5.98159244837336
-0.1773837648981315 40.04891929497157 6.242848313537362
-0.15760020702669117 41.378279522174616 6.4966024425321995
-0.13980007124817 42.66725629445516 6.7428348842464665
-0.124299953266251 43.915851078079776 6.981537323069172
-0.11104417209489861 45.12406971462624 7.212676629766491
-0.09966396881699166 46.29191961216044 7.436210791108999
-0.08935905326273105 47.41941007223021 7.6520870553977245
-0.07971977414642176 48.50654532073662 7.860281456356581
-0.07070224520210072 49.55332612608022 8.06078963616956
-0.06228744145105419 50.559753322274375 8.253606864911879
-0.05448916577246402 51.52582762572397 8.438729079649457
-0.04729897838988322 52.451549875271034 8.61615152307278
-0.04068081401891846 53.33692100238445 8.785868912559296
-0.03459972888188424 54.181941851802605 8.947876457359502
-0.029020357778149403 54.986600900784396 9.102239506185638
-0.023906581794384738 55.75084733745772 9.249246227484111
-0.019238704755569217 56.47450564664074 9.38989201731473
-0.015036247163849435 57.15736866977186 9.52535173026173
-0.011498042968013347 57.79950296513838 9.655247895520402
-0.00878218748326905 58.401043272428026 9.778816366349199
-0.006662876649486808 58.961334085736915 9.899774701463668
-0.004899700066922485 59.479713479675894 10.02187686628907
-0.0035124287272390825 59.95666401488124 10.142386123462186
-0.0025445969616638467 60.39299843626286 10.256693167551438
-0.0019244050808584702 60.78908501708006 10.362709417116468
-0.0015174347090033604 61.144830546767814 10.460963495540428
-0.0012218767077768707 61.46013570126223 10.552018697580944
-0.0009983803858680466 61.73516750029901 10.634927807247346
-0.0008287781268287279 61.97016152928172 10.708354753323682

CELLS 100 350
4 0 51 52 1
4 1 52 53 2
4 2 53 54 3
4 3 54 55 4
4 4 55 56 5
4 5 56 57 6
4 6 57 58 7
4 7 58 59 8
4 8 59 60 9
4 9 60 61 10
4 10 61 62 11
4 11 62 63 12
4 12 63 64 13
4 13 64 65 14
4 14 65 66 15
4 15 66 67 16
4 16 67 68 17
4 17 68 69 18
4 18 69 70 19
4 19 70 71 20
4 20 71 72 21
4 21 72 73 22
4 22 73 74 23
4 23 74 75 24
4 24 75 76 25
4 25 76 77 26
4 26 77 78 27
4 27 78 79 28
4 28 79 80 29
4 29 80 81 30
4 30 81 82 31
4 31 82 83 32
4 32 83 84 33
4 33 84 85 34
4 34 85 86 35
4 35 86 87 36
4 36 87 88 37
4 37 88 89 38
4 38 89 90 39
4 39 90 91 40
4 40 91 92 41
4 41 92 93 42
4 42 93 94 43
4 43 94 95 44
4 44 95 96 45
4 45 96 97 46
4 46 97 98 47
4 47 98 99 48
4 48 99 100 49
4 49 100 101 50
1 102
1 103
1 104
1 105
1 106
1 107
1 108
1 109
1 110
1 111
1 112
1 113
1 114
1 115
1 116
1 117
1 118
1 119
1 120
1 121
1 122
1 123
1 124
1 125
1 126
1 127
1 128
1 129
1 130
1 131
1 132
1 133
1 134
1 135
1 136
1 137
1 138
1 139
1 140
1 141
1 142
1 143
1 144
1 145
1 146
1 147
1 148
1 149
1 150
1 151

CELL_TYPES 100
9
9
9
9
9
9
9
9
9
9
9
9
9
9
9
9
9
9
9
9
9
9
9
9
9
9
9
9
9
9
9
9
9
9
9
9
9
9
9
9
9
9
9
9
9
9
9
9
9
9
1
1
1
1
1
1
1
1
1
1
1
1
1
1
1
1
1
1
1
1
1
1
1
1
1
1
1
1
1
1
1
1
1
1
1
1
1
1
1
1
1
1
1
1
1
1
1
1
1
1

CELL_DATA 100

VECTORS S float
-2.6344083313513997e-19 6.179467624819543e-17 7.7092286639718995e-19
-4.2616146168643996e-19 7.29392558899396e-17 6.750251798217199e-19
1.85760886428187e-18 -2.5254740600676865e-16 -2.02954709640218e-18
7.623398476999999e-23 5.2649063346317e-19 7.68917623574e-21
-2.3628162976271598e-18 -8.937834983934791e-16 -1.3885760793986478e-17
1.9660258951508098e-18 6.368894392280865e-16 9.511264905518619e-18
1.7308768006991e-19 6.48524259974205e-17 9.075998513089599e-19
-9.4734603367101e-19 -3.686432328133016e-16 -5.03722374457205e-18
9.2393820633473e-19 3.5193791008472493e-16 4.63044911050252e-18
4.51463199117347e-18 1.5539250863257871e-15 1.995724863088108e-17
1.8005314582247897e-18 5.899470537533453e-16 7.40224203595371e-18
1.71984347479272e-18 5.557020749046334e-16 6.81819181395235e-18
-6.8155636799978e-19 -2.2033826331263672e-16 -2.650914213922e-18
1.8612798447977998e-19 6.420854435958943e-17 7.534225174976499e-19
2.69550993306372e-18 1.0132126974517825e-15 1.161635018917646e-17
-3.2206674682248497e-18 -1.2795515679894781e-15 -1.4398634968058898e-17
2.33652168769724e-18 1.0028998514783614e-15 1.108725539715224e-17
-1.24711226216588e-18 -5.631594854066594e-16 -6.16332017908286e-18
7.6689585525529e-19 3.7274695186027487e-16 4.01466398566104e-18
-7.1524777188632995e-19 -3.6345564069294423e-16 -3.86164661391755e-18
1.2810418655808199e-18 6.740437525681462e-16 7.07395042745367e-18
1.61159260824788e-18 9.151755961081092e-16 9.481189102930709e-18
-3.0670590821975e-19 -1.7964493330649682e-16 -1.84152493607464e-18
-6.1688563902456e-19 -3.7238074288416216e-16 -3.78009157945857e-18
1.1474415698227899e-18 7.114237688239524e-16 7.14715591619418e-18
-7.283504285044399e-19 -4.837260158840026e-16 -4.80487110951109e-18
-5.582811776705299e-19 -3.859065030564053e-16 -3.79383405868171e-18
1.7703561231076998e-19 1.26338481407462e-16 1.2296421571609e-18
-1.8166825659668e-19 -1.3401310496394338e-16 -1.29133657745508e-18
-4.8507677367988e-19 -3.684762190487839e-16 -3.5154984815944894e-18
1.8664600307495998e-19 1.4767658673598904e-16 1.37531840471126e-18
5.043920470562499e-19 4.09856866601468e-16 3.77439212443103e-18
1.4077097535360998e-19 1.1602202813781967e-16 1.0566539190469299e-18
9.7676359227257e-19 8.324321859534618e-16 7.493693506736929e-18
-8.8218920990575e-19 -7.672390480681873e-16 -6.828358398612849e-18
4.4393068854726e-19 3.925862286935573e-16 3.4544064700162997e-18
1.08024512236889e-18 9.790990630924147e-16 8.51640677895536e-18
-7.7490575998202e-19 -7.118105296946837e-16 -6.1221704853707396e-18
3.3659096512486e-19 3.153497952558696e-16 2.68192007871779e-18
6.045394219561999e-20 5.773525891437739e-17 4.8561718345972e-19
3.8722869231387e-19 3.7305781129240605e-16 3.10472430434198e-18
8.020632592260999e-20 7.916973367821325e-17 6.5227058651894e-19
1.0783865956839999e-20 1.096710995230562e-17 8.939125973536999e-20
-2.386767301882e-20 -2.470441006187748e-17 -1.993504847693e-19
-2.4859667018466e-19 -2.6138772777875846e-16 -2.0894499489325397e-18
-4.1325107631036e-19 -4.359403065885555e-16 -3.45499189457304e-18
-9.811921881623999e-20 -1.0498559064275902e-16 -8.2536326333612e-19
-3.5797427280125e-19 -3.8831659593141743e-16 -3.0305554939967697e-18
1.036550643833e-19 1.1336219268537897e-16 8.79037126336e-19
-1.4305468468858e-19 -1.58102089957437e-16 -1.21905614233162e-18
-2.6344083313513997e-19 6.179467624819543e-17 7.7092286639718995e-19
-4.2616146168643996e-19 7.29392558899396e-17 6.750251798217199e-19
1.85760886428187e-18 -2.5254740600676865e-16 -2.02954709640218e-18
7.623398476999999e-23 5.2649063346317e-19 7.68917623574e-21
-2.3628162976271598e-18 -8.937834983934791e-16 -1.3885760793986478e-17
1.9660258951508098e-18 6.368894392280865e-16 9.511264905518619e-18
1.7308768006991e-19 6.48524259974205e-17 9.075998513089599e-19
-9.4734603367101e-19 -3.686432328133016e-16 -5.03722374457205e-18
9.2393820633473e-19 3.5193791008472493e-16 4.63044911050252e-18
4.51463199117347e-18 1.5539250863257871e-15 1.995724863088108e-17
1.8005314582247897e-18 5.899470537533453e-16 7.40224203595371e-18
1.71984347479272e-18 5.557020749046334e-16 6.81819181395235e-18
-6.8155636799978e-19 -2.2033826331263672e-16 -2.650914213922e-18
1.8612798447977998e-19 6.420854435958943e-17 7.534225174976499e-19
2.69550993306372e-18 1.0132126974517825e-15 1.161635018917646e-17
-3.2206674682248497e-18 -1.2795515679894781e-15 -1.4398634968058898e-17
2.33652168769724e-18 1.0028998514783614e-15 1.108725539715224e-17
-1.24711226216588e-18 -5.631594854066594e-16 -6.16332017908286e-18
7.6689585525529e-19 3.7274695186027487e-16 4.01466398566104e-18
-7.1524777188632995e-19 -3.6345564069294423e-16 -3.86164661391755e-18
1.2810418655808199e-18 6.740437525681462e-16 7.07395042745367e-18
1.61159260824788e-18 9.151755961081092e-16 9.481189102930709e-18
-3.0670590821975e-19 -1.7964493330649682e-16 -1.84152493607464e-18
-6.1688563902456e-19 -3.7238074288416216e-16 -3.78009157945857e-18
1.1474415698227899e-18 7.114237688239524e-16 7.14715591619418e-18
-7.283504285044399e-19 -4.837260158840026e-16 -4.80487110951109e-18
-5.582811776705299e-19 -3.859065030564053e-16 -3.79383405868171e-18
1.7703561231076998e-19 1.26338481407462e-16 1.2296421571609e-18
-1.8166825659668e-19 -1.3401310496394338e-16 -1.29133657745508e-18
-4.8507677367988e-19 -3.684762190487839e-16 -3.5154984815944894e-18
1.8664600307495998e-19 1.4767658673598904e-16 1.37531840471126e-18
5.043920470562499e-19 4.09856866601468e-16 3.77439212443103e-18
1.4077097535360998e-19 1.1602202813781967e-16 1.0566539190469299e-18
9.7676359227257e-19 8.324321859534618e-16 7.493693506736929e-18
-8.8218920990575e-19 -7.672390480681873e-16 -6.828358398612849e-18
4.4393068854726e-19 3.925862286935573e-16 3.4544064700162997e-18
1.08024512236889e-18 9.790990630924147e-16 8.51640677895536e-18
-7.7490575998202e-19 -7.118105296946837e-16 -6.1221704853707396e-18
3.3659096512486e-19 3.153497952558696e-16 2.68192007871779e-18
6.045394219561999e-20 5.773525891437739e-17 4.8561718345972e-19
3.8722869231387e-19 3.7305781129240605e-16 3.10472430434198e-18
8.020632592260999e-20 7.916973367821325e-17 6.5227058651894e-19
1.0783865956839999e-20 1.096710995230562e-17 8.939125973536999e-20
-2.386767301882e-20 -2.470441006187748e-17 -1.993504847693e-19
-2.4859667018466e-19 -2.6138772777875846e-16 -2.0894499489325397e-18
-4.1325107631036e-19 -4.359403065885555e-16 -3.45499189457304e-18
-9.811921881623999e-20 -1.0498559064275902e-16 -8.2536326333612e-19
-3.5797427280125e-19 -3.8831659593141743e-16 -3.0305554939967697e-18
1.036550643833e-19 1.1336219268537897e-16 8.79037126336e-19
-1.4305468468858e-19 -1.58102089957437e-16 -1.21905614233162e-18

SCALARS Gamma float
LOOKUP_TABLE default
-0.0
-0.0
-0.0
51.25287799040883
54.91089333744059
54.928030596446135
52.755096900665684
48.05145542661409
44.991193015365106
47.62178971901501
54.24308519633615
54.8756621206344
50.97640835198155
46.107370015717244
45.075159804295005
44.25273339102035
40.62535242295228
38.38557092231436
33.715403871922604
34.10402701565632
33.627047462047585
35.24811371507267
36.86719577101099
34.83893824441083
36.92233054096584
38.18091551496841
38.284654901073125
38.38907468864588
38.596368923053475
38.858784208370636
39.19345433729363
39.50305713552618
37.532298861737516
37.85070312898561
38.171548015767534
38.48138243946971
38.734677757846335
41.071765991431626
40.99430199526463
40.62143028394611
39.893431948290974
38.67539758685663
36.626513705954665
33.99196663994868
31.316610298766527
28.67342642452545
25.82949372214871
23.086011642741322
20.312382870511996
17.745269242762976
-0.0
-0.0
-0.0
51.25287799040883
54.91089333744059
54.928030596446135
52.755096900665684
48.05145542661409
44.991193015365106
47.62178971901501
54.24308519633615
54.8756621206344
50.97640835198155
46.107370015717244
45.075159804295005
44.25273339102035
40.62535242295228
38.38557092231436
33.715403871922604
34.10402701565632
33.627047462047585
35.24811371507267
36.86719577101099
34.83893824441083
36.92233054096584
38.18091551496841
38.284654901073125
38.38907468864588
38.596368923053475
38.858784208370636
39.19345433729363
39.50305713552618
37.532298861737516
37.85070312898561
38.171548015767534
38.48138243946971
38.734677757846335
41.071765991431626
40.99430199526463
40.62143028394611
39.893431948290974
38.67539758685663
36.626513705954665
33.99196663994868
31.316610298766527
28.67342642452545
25.82949372214871
23.086011642741322
20.312382870511996
17.745269242762976

VECTORS Ftot float
115.66616415431315 -8.77644675552962e-14 39.525602337840596
139.3453005500076 -1.953380069442053e-13 87.97241752852274
142.71167652494344 -2.900379819120279e-13 130.6214947262313
1274.8140097769835 2.8064406292207283e-14 -12.639084971996022
1303.6173912326951 4.925503696780199e-13 -221.8249661343153
1396.7753338344028 6.410881340836009e-13 -288.72042817705807
1478.994032324508 6.262941975223094e-13 -282.05783145858055
1469.9953890697673 6.138660245087229e-13 -276.46067992329205
1484.3745270657485 6.576631815078595e-13 -296.1851659174121
1677.751402160069 8.427320729712148e-13 -379.53278498063673
2038.744731117832 1.1011348536372543e-12 -495.90705165254536
2195.8741334492597 1.2298931324049902e-12 -553.8946252804703
2165.4552602953536 1.2362193779504735e-12 -556.7437129885996
2077.6374339695935 1.139680364326511e-12 -513.2664064102398
2148.2556500816913 1.1068720697907882e-12 -498.49086410566537
2218.6143153588723 1.1019112098470957e-12 -496.2566914062803
2137.618386992693 1.0002675195767092e-12 -450.4804428436523
2112.1086781426006 9.489586881971681e-13 -427.3729994554804
1934.7868990621187 8.206548717269923e-13 -369.59009745095017
2033.5907001236553 8.363494159786446e-13 -376.6582918152994
2078.077490729513 8.35609318971741e-13 -376.32498175484847
2255.7835570991856 8.513930687294537e-13 -383.433350707583
2434.9509444435093 9.004818832679119e-13 -405.5409873939292
2370.5184849089705 8.589856531055822e-13 -386.8527467242941
2583.334056861209 9.209119702239687e-13 -414.7418805941737
2745.659738273258 9.241566196663607e-13 -416.20314079614406
2823.193612089819 9.224769921889672e-13 -415.446703828013
2898.2952837282314 9.265412282485127e-13 -417.2770730283446
2979.474711835645 9.30721025406597e-13 -419.1594863207079
3063.0991451011723 9.384796184709233e-13 -422.65364600404985
3151.439568497854 9.496523524675531e-13 -427.6853980704431
3235.6962027490017 9.6012809401588e-13 -432.40325264379055
3127.603668558444 9.251928991408119e-13 -416.6698395816431
3206.8199085730657 9.281289805569867e-13 -417.99213309882464
3283.9645563049576 9.42072053042031e-13 -424.2715347036292
3358.4080488783807 9.583307367924712e-13 -431.5937949116311
3426.742184738802 9.651339070059146e-13 -434.65767039545113
3679.2550351901264 1.0340548790752053e-12 -465.69691680837855
3715.8988643916837 1.0355253460531106e-12 -466.35915626175415
3722.7632450494903 1.029049399582887e-12 -463.4426492507369
3692.8746023929175 1.0227023981531703e-12 -460.5842139233577
3614.4567174573217 9.86879395767853e-13 -444.45096790397685
3453.501326994377 9.2507996669876e-13 -416.61897933124885
3230.6918145078635 8.588721890836175e-13 -386.80164707159014
2998.0044134785007 7.920194157236126e-13 -356.69383455230957
2762.4328375387045 7.33666879618135e-13 -330.4141885662341
2503.0445740979367 6.607204612186743e-13 -297.5620422940514
2248.81105021334 5.898244435265244e-13 -265.63331440800926
1987.452892865632 5.203797365398911e-13 -234.35819875722342
1742.9670204075123 4.54158840618865e-13 -204.53495853781578
115.66616415431315 -8.77644675552962e-14 39.525602337840596
139.3453005500076 -1.953380069442053e-13 87.97241752852274
142.71167652494344 -2.900379819120279e-13 130.6214947262313
1274.8140097769835 2.8064406292207283e-14 -12.639084971996022
1303.6173912326951 4.925503696780199e-13 -221.8249661343153
1396.7753338344028 6.410881340836009e-13 -288.72042817705807
1478.994032324508 6.262941975223094e-13 -282.05783145858055
1469.9953890697673 6.138660245087229e-13 -276.46067992329205
1484.3745270657485 6.576631815078595e-13 -296.1851659174121
1677.751402160069 8.427320729712148e-13 -379.53278498063673
2038.744731117832 1.1011348536372543e-12 -495.90705165254536
2195.8741334492597 1.2298931324049902e-12 -553.8946252804703
2165.4552602953536 1.2362193779504735e-12 -556.7437129885996
2077.6374339695935 1.139680364326511e-12 -513.2664064102398
2148.2556500816913 1.1068720697907882e-12 -498.49086410566537
2218.6143153588723 1.1019112098470957e-12 -496.2566914062803
2137.618386992693 1.0002675195767092e-12 -450.4804428436523
2112.1086781426006 9.489586881971681e-13 -427.3729994554804
1934.7868990621187 8.206548717269923e-13 -369.59009745095017
2033.5907001236553 8.363494159786446e-13 -376.6582918152994
2078.077490729513 8.35609318971741e-13 -376.32498175484847
2255.7835570991856 8.513930687294537e-13 -383.433350707583
2434.9509444435093 9.004818832679119e-13 -405.5409873939292
2370.5184849089705 8.589856531055822e-13 -386.8527467242941
2583.334056861209 9.209119702239687e-13 -414.7418805941737
2745.659738273258 9.241566196663607e-13 -416.20314079614406
2823.193612089819 9.224769921889672e-13 -415.446703828013
2898.2952837282314 9.265412282485127e-13 -417.2770730283446
2979.474711835645 9.30721025406597e-13 -419.1594863207079
3063.0991451011723 9.384796184709233e-13 -422.65364600404985
3151.439568497854 9.496523524675531e-13 -427.6853980704431
3235.6962027490017 9.6012809401588e-13 -432.40325264379055
3127.603668558444 9.251928991408119e-13 -416.6698395816431
3206.8199085730657 9.281289805569867e-13 -417.99213309882464
3283.9645563049576 9.42072053042031e-13 -424.2715347036292
3358.4080488783807 9.583307367924712e-13 -431.5937949116311
3426.742184738802 9.651339070059146e-13 -434.65767039545113
3679.2550351901264 1.0340548790752053e-12 -465.69691680837855
3715.8988643916837 1.0355253460531106e-12 -466.35915626175415
3722.7632450494903 1.029049399582887e-12 -463.4426492507369
3692.8746023929175 1.0227023981531703e-12 -460.5842139233577
3614.4567174573217 9.86879395767853e-13 -444.45096790397685
3453.501326994377 9.2507996669876e-13 -416.61897933124885
3230.6918145078635 8.588721890836175e-13 -386.80164707159014
2998.0044134785007 7.920194157236126e-13 -356.69383455230957
2762.4328375387045 7.33666879618135e-13 -330.4141885662341
2503.0445740979367 6.607204612186743e-13 -297.5620422940514
2248.81105021334 5.898244435265244e-13 -265.63331440800926
1987.452892865632 5.203797365398911e-13 -234.35819875722342
1742.9670204075123 4.54158840618865e-13 -204.53495853781578

VECTORS D float
91.47134119390488 0.7799146397442848 -31.257713816079757
59.91660686056533 0.7001483206114086 -37.82695745622485
12.598823336452591 0.18534093285196213 -11.531482048783351
532.2761747821469 9.196274605695873 -634.9613829585182
517.737752256821 10.411746400632886 -758.2707550192373
474.9160489186091 10.80231719753346 -821.5078719933563
411.7580622971713 10.358485176090845 -818.690241089484
346.97355643767247 9.732340405929676 -777.5047627736698
309.5388391081758 9.304855617029286 -768.9807434051504
322.5660067901742 10.333280354591405 -877.5463343908754
360.94264275584123 12.256323178636787 -1064.6058712624856
357.40628266793505 12.800874473487458 -1133.4611256891685
324.95512316029055 12.23161317419858 -1100.2120032786338
281.8620724659545 11.067983710966672 -1012.8732879669689
262.2822405667946 10.713744100466798 -995.3458492779653
248.09350250525213 10.515562311096577 -989.970990144001
217.64030133588233 9.550034387814765 -909.715614193534
198.31747332420028 9.035180421053322 -865.6976360515877
167.14030437430014 7.8292442616601186 -758.8446135106592
164.24449154834613 7.895165786692939 -773.5089055634206
158.05499237259752 7.783116775972409 -770.2395368081723
159.01990495490503 8.008879218818398 -800.0901610837767
162.7677648684715 8.371551619293756 -843.7728086294165
150.77390412508996 7.905351501564933 -803.3696690339383
156.9422871978266 8.36979726756099 -858.3211130003064
156.70317836698203 8.48650789564283 -878.1254239863173
153.69479841722585 8.439205677798174 -881.0478299930014
151.37935019785021 8.41459550045965 -886.3446546563134
149.5304920013782 8.401820177073926 -892.9654539336669
148.25907037981392 8.408481236834795 -901.790292960744
147.5646022406952 8.316997831095192 -913.0745218624332
146.95289651192968 8.325678629192039 -923.7138889244368
138.77395183296505 7.893230089501052 -885.1752605424631
138.0318565526969 7.872668743293441 -892.5221370888546
138.1370345752695 7.8919474014941455 -904.5912432440656
138.46510663500672 7.916402441290839 -917.4772907833684
138.1585029759049 7.897814339773104 -925.506246246967
145.96334828839306 8.33660169910871 -987.7524196820723
144.79240243535813 8.257106087846676 -989.0721762130624
142.6515065138086 8.118283457010465 -982.9451253330752
139.94202536247977 7.944337918450849 -972.0305533360466
134.62747857999616 7.623104685547574 -941.8133453779925
126.22201398436619 7.121862895076573 -888.9841685910992
116.58659743652326 6.554254691208613 -826.1913509676141
106.97640011083682 5.9921304589722615 -762.3362037910078
98.06728508430061 5.473633011728195 -702.3760803056346
88.0124450269871 4.895784494022801 -633.2030541368601
78.37161216360957 4.345679951112213 -566.085877620185
68.85040204970977 3.8066706733296494 -499.03378830598143
59.980351795851824 3.3077236396779424 -436.02461961409387
91.47134119390488 0.7799146397442848 -31.257713816079757
59.91660686056533 0.7001483206114086 -37.82695745622485
12.598823336452591 0.18534093285196213 -11.531482048783351
532.2761747821469 9.196274605695873 -634.9613829585182
517.737752256821 10.411746400632886 -758.2707550192373
474.9160489186091 10.80231719753346 -821.5078719933563
411.7580622971713 10.358485176090845 -818.690241089484
346.97355643767247 9.732340405929676 -777.5047627736698
309.5388391081758 9.304855617029286 -768.9807434051504
322.5660067901742 10.333280354591405 -877.5463343908754
360.94264275584123 12.256323178636787 -1064.6058712624856
357.40628266793505 12.800874473487458 -1133.4611256891685
324.95512316029055 12.23161317419858 -1100.2120032786338
281.8620724659545 11.067983710966672 -1012.8732879669689
262.2822405667946 10.713744100466798 -995.3458492779653
248.09350250525213 10.515562311096577 -989.970990144001
217.64030133588233 9.550034387814765 -909.715614193534
198.31747332420028 9.035180421053322 -865.6976360515877
167.14030437430014 7.8292442616601186 -758.8446135106592
164.24449154834613 7.895165786692939 -773.5089055634206
158.05499237259752 7.783116775972409 -770.2395368081723
159.01990495490503 8.008879218818398 -800.0901610837767
162.7677648684715 8.371551619293756 -843.7728086294165
150.77390412508996 7.905351501564933 -803.3696690339383
156.9422871978266 8.36979726756099 -858.3211130003064
156.70317836698203 8.48650789564283 -878.1254239863173
153.69479841722585 8.439205677798174 -881.0478299930014
151.37935019785021 8.41459550045965 -886.3446546563134
149.5304920013782 8.401820177073926 -892.9654539336669
148.25907037981392 8.408481236834795 -901.790292960744
147.5646022406952 8.316997831095192 -913.0745218624332
146.95289651192968 8.325678629192039 -923.7138889244368
138.77395183296505 7.893230089501052 -885.1752605424631
138.0318565526969 7.872668743293441 -892.5221370888546
138.1370345752695 7.8919474014941455 -904.5912432440656
138.46510663500672 7.916402441290839 -917.4772907833684
138.1585029759049 7.897814339773104 -925.506246246967
145.96334828839306 8.33660169910871 -987.7524196820723
144.79240243535813 8.257106087846676 -989.0721762130624
142.6515065138086 8.118283457010465 -982.9451253330752
139.94202536247977 7.944337918450849 -972.0305533360466
134.62747857999616 7.623104685547574 -941.8133453779925
126.22201398436619 7.121862895076573 -888.9841685910992
116.58659743652326 6.554254691208613 -826.1913509676141
106.97640011083682 5.9921304589722615 -762.3362037910078
98.06728508430061 5.473633011728195 -702.3760803056346
88.0124450269871 4.895784494022801 -633.2030541368601
78.37161216360957 4.345679951112213 -566.085877620185
68.85040204970977 3.8066706733296494 -499.03378830598143
59.980351795851824 3.3077236396779424 -436.02461961409387

VECTORS L float
24.19482296040823 -0.7799146397443727 70.78331615392035
79.42869368944228 -0.7001483206116044 125.7993749847476
130.11285318849087 -0.18534093285225192 142.15297677501468
742.5378349948368 -9.196274605695848 622.3222979865224
785.8796389758741 -10.411746400632392 536.4457888849217
921.8592849157938 -10.802317197532817 532.7874438162982
1067.2359700273369 -10.358485176090218 536.6324096309033
1123.021832632095 -9.73234040592906 501.0440828503776
1174.835687957573 -9.304855617028629 472.79557748773846
1355.1853953698946 -10.333280354590563 498.0135494102384
1677.8020883619909 -12.256323178635684 568.69881960994
1838.4678507813242 -12.80087447348623 579.5665004086985