# vtk DataFile Version 4.0
[MyVLM domain - lattices] 
ASCII
DATASET UNSTRUCTURED_GRID
POINTS 152 float
0.0 -0.31738683046912763 2.22443010638556
0.0 1.0029597229297447 4.035893192909066
0.0 2.3243926679718205 5.792823691600221
0.0 3.614028437554956 7.522814191486225
0.0 4.871603537241299 9.226085790652704
0.0 6.125397252075216 10.878909351448963
0.0 7.398834755575068 12.461628819415491
0.0 8.697962531393685 13.96917059234927
0.0 9.985907551273549 15.43247481466158
0.0 11.247571877997796 16.864210159902626
0.0 12.483145646041944 18.26421708630413
0.0 13.692907115402816 19.632262106005378
0.0 14.877162299099314 20.968088443595082
0.0 16.038429621516723 22.269582890100402
0.0 17.175028900278555 23.538155285933758
0.0 18.283277125320257 24.77689604348193
0.0 19.362626059474156 25.98626518835012
0.0 20.413979148920404 27.165504639181776
0.0 21.43798727760919 28.31406823949435
0.0 22.43465025784986 29.431956146778997
0.0 23.40396790696428 30.51916851432088
0.0 24.345940047286824 31.57570549119916
0.0 25.26056650616437 32.60156722228699
0.0 26.147847115956314 33.59675384825156
0.0 27.007781714034557 34.56126550555404
0.0 27.84037014278351 35.495102326449604
0.0 28.64561224960009 36.39826443898746
0.0 29.423507886893745 37.27075196701079
0.0 30.17405568868197 38.11256605671499
0.0 30.897238713282043 38.9237209238598
0.0 31.59305351675716 39.704219458251316
0.0 32.26150252319761 40.45405962583625
0.0 32.90258806142383 41.17323947250227
0.0 33.51631236498624 41.861757124078004
0.0 34.10267757216541 42.51961078633304
0.0 34.66168572597196 43.14679874497792
0.0 35.193662037249155 43.74304811571399
0.0 35.699634880365274 44.30749598998812
0.0 36.18123614279983 44.83877305161814
0.0 36.63931475346338 45.33616696466831
0.0 37.07327589078188 45.800176843702005
0.0 37.48331418680821 46.23063937303545
0.0 37.87845110168841 46.61998464878741
0.0 38.25848183951334 46.968384515129735
0.0 38.61657585999223 47.28157047590112
0.0 38.948078342766586 47.563448389147595
0.0 39.25181063782406 47.81500725965981
0.0 39.528899547406795 48.035301588091954
0.0 39.77835732145288 48.2251601951567
0.0 39.99822711143315 48.38622507173313
0.0 40.18681492906866 48.519917642761314
-0.7686761955390344 2.1744985707209095 0.13348998531095657
-0.8409029948616161 3.7255026543764904 1.7514084232677967
-0.8940476007249757 5.2204258962180505 3.362763277901668
-0.9506443374492793 6.695169941354412 4.937429492043099
-1.0210144815146838 8.148629596326197 6.476334433116237
-1.048631451549771 9.557425417162555 7.999095783934149
-0.9920275022819518 10.90562295428031 9.519084135265091
-0.9074715353829097 12.177847789821534 11.049200155463216
-0.8388231939293685 13.404833155307713 12.563655601293963
-0.7803448823218929 14.60218911788258 14.049352071174368
-0.7251531968841737 15.771623253380294 15.504856738851782
-0.671766762046156 16.915547339318753 16.92814588270046
-0.6188683613166902 18.030721626641256 18.321937974958974
-0.5668565661826578 19.116082159178035 19.68712578085698
-0.5162677046190278 20.172270419606967 21.02317103251606
-0.4681223452427161 21.20359989168078 22.32645428731021
-0.42442582165628834 22.210566978076475 23.596559013936233
-0.3846819074085718 23.192264951989873 24.834246046521116
-0.3476243488905531 24.148118625733808 26.039998024840997
-0.3131098246080671 25.078169562131325 27.21378007354641
-0.28048746260446866 25.98248833152869 28.35553297708581
-0.2502235469699514 26.861065912393602 29.465264305423624
-0.2227998260917326 27.713902659759924 30.54297376065107
-0.19746739264611052 28.541067569310677 31.588603448515993
-0.17533279734900953 29.3425331400116 32.602176445126084
-0.15613374469432648 30.118344228703698 33.58365511112258
-0.13998404755873647 30.868524801870098 34.53301933623836
-0.12578653595324127 31.593138141068312 35.450216020941845
-0.11250427274737486 32.292230892031846 36.33520602481526
-0.10008179164308317 32.96581222479126 37.18798165328933
-0.08845752889585208 33.61388880393343 38.00853731411168
-0.07764231497362577 34.23646411609589 38.79687008164603
-0.06766212708627829 34.833541518075336 39.55297713920549
-0.0584684819534103 35.40512600036448 40.27685429926951
-0.050013688763705585 35.951222072929305 40.96849777752727
-0.042252254921319045 36.47183376948432 41.627904189290426
-0.03513536582041269 36.96671241896545 42.255282194357115
-0.028615518964613278 37.43505775000861 42.851303300133786
-0.022687693716904638 37.87471853153877 43.41777260382209
-0.017408965386693863 38.284582056807885 43.9556237772439
-0.013252482528008399 38.66645931721826 44.463337218181486
-0.010166684094042405 39.02025778626536 44.94099056559067
-0.00760098697125575 39.33528663349205 45.39755449136502
-0.005464879873870877 39.611510956666784 45.83305828195416
-0.0039015967321000085 39.85698758011948 46.24074145903437
-0.002883995165670249 40.0770492081169 46.616129352422256
-0.0022477517166190047 40.27263996773071 46.958429745440185
-0.00179874084072329 40.44173649182249 47.26934044470776
-0.0014595970466816986 40.58514735536928 47.54818297525994
-0.0012027506489664258 40.70501032490556 47.79316353798614
-0.0010073243559101815 40.80317598993293 48.002729303918066
-0.603592196400244 2.2981970709691026 1.48937731562886
-0.6506064733449719 3.7706422553356482 3.1464039985022096
-0.6917594768153456 5.21065107728052 4.777027024115093
-0.7393720571114861 6.627128823479762 6.373773969702118
-0.7761172248991705 8.014395728722846 7.941410724156604
-0.7652471076868961 9.36417214024736 9.486884741057771
-0.712312139124323 10.668401189909286 11.016956535493708
-0.6548605234921042 11.928989114756872 12.530026584660298
-0.607188028594223 13.156818281105279 14.016963498996152
-0.564561779702275 14.356519329728545 15.473881709535652
-0.5238449845988737 15.529695567442737 16.89943588212078
-0.48398817126106725 16.67610953904777 18.293825265322344
-0.4446468478122555 17.794500409759237 19.658107825142917
-0.4061716015506322 18.884814532268784 20.992328577019165
-0.369146268698154 19.948239619932757 22.295490911111813
-0.3347055625871267 20.98605047425827 23.56652514194642
-0.3034153983993225 21.998137624824203 24.80552312611299
-0.27461484611217185 22.98413964496258 26.01278813659531
-0.24777531506198255 23.943937762381807 27.188419835179445
-0.22259898270470088 24.87757398072427 28.33238297662456
-0.19901662859040753 25.785071335752246 29.444658231631035
-0.1773837648981315 26.66642653373897 30.525248363963776
-0.15760020702669117 27.521665538666557 31.57413158725497
-0.13980007124817 28.35080386974471 32.591294879341476
-0.124299953266251 29.153847995370498 33.576732812593704
-0.11104417209489861 29.930823685513126 34.53042376343999
-0.09966396881699166 30.68176362066363 35.45234030969236
-0.08935905326273105 31.406708834359524 36.342448020124635
-0.07971977414642176 32.10567796905416 37.20073125186107
-0.07070224520210072 32.778674414526655 38.02718716053927
-0.06228744145105419 33.42570185000534 38.821812658920074
-0.05448916577246402 34.04676343589188 39.58460509511163
-0.04729897838988322 34.64186287271618 40.31556136400066
-0.04068081401891846 35.21100426962912 41.01467801760017
-0.03459972888188424 35.754191353172274 41.681951928970506
-0.029020357778149403 36.27137329107129 42.317425751454316
-0.023906581794384738 36.76232592806707 42.92128757364685
-0.019238704755569217 37.22627498347591 43.49418709418423
-0.015036247163849435 37.6623065826629 44.036891144935545
-0.011498042968013347 38.07071434579046 44.5491533493308
-0.00878218748326905 38.45209267350512 45.030474946006734
-0.006662876649486808 38.803549818471105 45.48328239908624
-0.004899700066922485 39.12216571395978 45.910025935484335
-0.0035124287272390825 39.41006916373304 46.30891927674955
-0.0025445969616638467 39.670845570933494 46.67695391242732
-0.0019244050808584702 39.90611956351668 47.012766617799336
-0.0015174347090033604 40.11547994548631 47.31670242727445
-0.0012218767077768707 40.298488551304374 47.58912900539397
-0.0009983803858680466 40.45588218421382 47.8294281008285
-0.0008287781268287279 40.58870012312716 48.03672765502588

CELLS 100 350
4 0 51 52 1
4 1 52 53 2
4 2 53 54 3
4 3 54 55 4
4 4 55 56 5
4 5 56 57 6
4 6 57 58 7
4 7 58 59 8
4 8 59 60 9
4 9 60 61 10
4 10 61 62 11
4 11 62 63 12
4 12 63 64 13
4 13 64 65 14
4 14 65 66 15
4 15 66 67 16
4 16 67 68 17
4 17 68 69 18
4 18 69 70 19
4 19 70 71 20
4 20 71 72 21
4 21 72 73 22
4 22 73 74 23
4 23 74 75 24
4 24 75 76 25
4 25 76 77 26
4 26 77 78 27
4 27 78 79 28
4 28 79 80 29
4 29 80 81 30
4 30 81 82 31
4 31 82 83 32
4 32 83 84 33
4 33 84 85 34
4 34 85 86 35
4 35 86 87 36
4 36 87 88 37
4 37 88 89 38
4 38 89 90 39
4 39 90 91 40
4 40 91 92 41
4 41 92 93 42
4 42 93 94 43
4 43 94 95 44
4 44 95 96 45
4 45 96 97 46
4 46 97 98 47
4 47 98 99 48
4 48 99 100 49
4 49 100 101 50
1 102
1 103
1 104
1 105
1 106
1 107
1 108
1 109
1 110
1 111
1 112
1 113
1 114
1 115
1 116
1 117
1 118
1 119
1 120
1 121
1 122
1 123
1 124
1 125
1 126
1 127
1 128
1 129
1 130
1 131
1 132
1 133
1 134
1 135
1 136
1 137
1 138
1 139
1 140
1 141
1 142
1 143
1 144
1 145
1 146
1 147
1 148
1 149
1 150
1 151

CELL_TYPES 100
9
9
9
9
9
9
9
9
9
9
9
9
9
9
9
9
9
9
9
9
9
9
9
9
9
9
9
9
9
9
9
9
9
9
9
9
9
9
9
9
9
9
9
9
9
9
9
9
9
9
1
1
1
1
1
1
1
1
1
1
1
1
1
1
1
1
1
1
1
1
1
1
1
1
1
1
1
1
1
1
1
1
1
1
1
1
1
1
1
1
1
1
1
1
1
1
1
1
1
1

CELL_DATA 100

VECTORS S float
3.044479945567108e-17 -5.3855152410045316e-15 -4.63491063961742e-15
-4.1783991464964116e-17 5.400346474366681e-15 4.617532889866336e-15
-0.0 0.0 0.0
1.4353212254843e-19 6.717954502627827e-16 5.809920460950963e-16
0.0 0.0 0.0
0.0 0.0 0.0
7.762698329325371e-17 2.1508794975244826e-14 1.8578462791917524e-14
0.0 0.0 0.0
-7.449858190880216e-17 -2.153104010479022e-14 -1.855269061116271e-14
-8.308672868475495e-17 -2.1534328248186537e-14 -1.8548837441769442e-14
-8.736233862087908e-17 -2.1539597943594645e-14 -1.8542698163870328e-14
-1.7760759628493261e-16 -4.3089214106009443e-14 -3.7073742069738303e-14
0.0 0.0 0.0
-8.290791571088778e-17 -2.1554324301654952e-14 -1.8525598428199706e-14
-1.5238519161959482e-16 -4.311801627733229e-14 -3.704035257454156e-14
0.0 0.0 0.0
-6.679598622952945e-17 -2.1566339580638626e-14 -1.8511674757706806e-14
6.318761203796813e-17 2.1569328555634236e-14 1.8508204665258663e-14
0.0 0.0 0.0
-5.615757559325774e-17 -2.1575137316316783e-14 -1.8501455700973763e-14
0.0 0.0 0.0
-1.0075700299674849e-16 -4.31593656882353e-14 -3.6992340682914194e-14
4.870186711110989e-17 2.1582164512277616e-14 1.849327905049401e-14
-4.708102057327163e-17 -2.158458112379801e-14 -1.8490462623579773e-14
-4.576657956391822e-17 -2.1586835551016138e-14 -1.8487833925581895e-14
-8.52127387589733e-17 -4.317841750310782e-14 -3.6970140228321166e-14
-4.089789698115242e-17 -2.1591333461727743e-14 -1.84825921789346e-14
7.914509976016614e-17 4.318672199532341e-14 3.696045247473437e-14
0.0 0.0 0.0
3.70942619276625e-17 2.15973017085604e-14 1.8475625831658915e-14
3.609326797202873e-17 2.1599220817592885e-14 1.8473384213380755e-14
7.029411257951017e-17 4.3202251692844176e-14 3.694231686279495e-14
-3.4729784858721016e-17 -2.1602646295982e-14 -1.846938098039712e-14
-3.354260605146894e-17 -2.1604638341573694e-14 -1.8467052931361282e-14
3.287074025182246e-17 2.1606563086471682e-14 1.846480213950506e-14
0.0 0.0 0.0
0.0 0.0 0.0
0.0 0.0 0.0
0.0 0.0 0.0
2.996136217069953e-17 2.1615718301517356e-14 1.8454088749449016e-14
0.0 0.0 0.0
2.894624449034704e-17 2.1619023340484805e-14 1.845021839612798e-14
0.0 0.0 0.0
2.762681575286385e-17 2.1622069737251135e-14 1.844665021034486e-14
-2.7204944079919377e-17 -2.1623437673061135e-14 -1.8445047303722863e-14
2.7070269789530058e-17 2.1625007778596548e-14 1.8443206682202754e-14
2.673068124253308e-17 2.162590609804813e-14 1.8442153829078677e-14
-2.6367448861762828e-17 -2.1626976742014584e-14 -1.8440898804134165e-14
-1.307686957784549e-17 -1.0813956378498543e-14 -9.219900659768071e-15
1.293980767617302e-17 1.0814364482959901e-14 9.21942216885916e-15
3.044479945567108e-17 -5.3855152410045316e-15 -4.63491063961742e-15
-4.1783991464964116e-17 5.400346474366681e-15 4.617532889866336e-15
-0.0 0.0 0.0
1.4353212254843e-19 6.717954502627827e-16 5.809920460950963e-16
0.0 0.0 0.0
0.0 0.0 0.0
7.762698329325371e-17 2.1508794975244826e-14 1.8578462791917524e-14
0.0 0.0 0.0
-7.449858190880216e-17 -2.153104010479022e-14 -1.855269061116271e-14
-8.308672868475495e-17 -2.1534328248186537e-14 -1.8548837441769442e-14
-8.736233862087908e-17 -2.1539597943594645e-14 -1.8542698163870328e-14
-1.7760759628493261e-16 -4.3089214106009443e-14 -3.7073742069738303e-14
0.0 0.0 0.0
-8.290791571088778e-17 -2.1554324301654952e-14 -1.8525598428199706e-14
-1.5238519161959482e-16 -4.311801627733229e-14 -3.704035257454156e-14
0.0 0.0 0.0
-6.679598622952945e-17 -2.1566339580638626e-14 -1.8511674757706806e-14
6.318761203796813e-17 2.1569328555634236e-14 1.8508204665258663e-14
0.0 0.0 0.0
-5.615757559325774e-17 -2.1575137316316783e-14 -1.8501455700973763e-14
0.0 0.0 0.0
-1.0075700299674849e-16 -4.31593656882353e-14 -3.6992340682914194e-14
4.870186711110989e-17 2.1582164512277616e-14 1.849327905049401e-14
-4.708102057327163e-17 -2.158458112379801e-14 -1.8490462623579773e-14
-4.576657956391822e-17 -2.1586835551016138e-14 -1.8487833925581895e-14
-8.52127387589733e-17 -4.317841750310782e-14 -3.6970140228321166e-14
-4.089789698115242e-17 -2.1591333461727743e-14 -1.84825921789346e-14
7.914509976016614e-17 4.318672199532341e-14 3.696045247473437e-14
0.0 0.0 0.0
3.70942619276625e-17 2.15973017085604e-14 1.8475625831658915e-14
3.609326797202873e-17 2.1599220817592885e-14 1.8473384213380755e-14
7.029411257951017e-17 4.3202251692844176e-14 3.694231686279495e-14
-3.4729784858721016e-17 -2.1602646295982e-14 -1.846938098039712e-14
-3.354260605146894e-17 -2.1604638341573694e-14 -1.8467052931361282e-14
3.287074025182246e-17 2.1606563086471682e-14 1.846480213950506e-14
0.0 0.0 0.0
0.0 0.0 0.0
0.0 0.0 0.0
0.0 0.0 0.0
2.996136217069953e-17 2.1615718301517356e-14 1.8454088749449016e-14
0.0 0.0 0.0
2.894624449034704e-17 2.1619023340484805e-14 1.845021839612798e-14
0.0 0.0 0.0
2.762681575286385e-17 2.1622069737251135e-14 1.844665021034486e-14
-2.7204944079919377e-17 -2.1623437673061135e-14 -1.8445047303722863e-14
2.7070269789530058e-17 2.1625007778596548e-14 1.8443206682202754e-14
2.673068124253308e-17 2.162590609804813e-14 1.8442153829078677e-14
-2.6367448861762828e-17 -2.1626976742014584e-14 -1.8440898804134165e-14
-1.307686957784549e-17 -1.0813956378498543e-14 -9.219900659768071e-15
1.293980767617302e-17 1.0814364482959901e-14 9.21942216885916e-15

SCALARS Gamma float
LOOKUP_TABLE default
-0.0
-0.0
-0.0
50.96912579159659
54.48666586661562
54.533486330869984
52.449974535501944
47.793346126714816
44.77523626599316
47.34484338703825
53.84946667248816
54.48186556092694
50.439792893039794
45.53927874762693
44.507557046743734
43.68911371859999
40.070794479443435
37.87257000825784
33.22324800003611
33.566203561025745
33.09579961323186
34.735811666738236
36.37307918657097
34.37218522441612
36.47439910615454
37.72302475638999
37.8427107275903
37.96278472428883
38.18554329030213
38.46319250288405
38.8080958570037
39.115514181380725
37.14583768758917
37.46595115592117
37.789435128208325
38.102664988049575
38.36030106287225
40.682203899299736
40.61469694124115
40.253439904461764
39.53821608433173
38.318220857394216
36.291781858357226
33.684776019197436
31.031217139417464
28.42621148276447
25.596847595043826
22.88370991352463
20.133860976411377
17.588869667376315
-0.0
-0.0
-0.0
50.96912579159659
54.48666586661562
54.533486330869984
52.449974535501944
47.793346126714816
44.77523626599316
47.34484338703825
53.84946667248816
54.48186556092694
50.439792893039794
45.53927874762693
44.507557046743734
43.68911371859999
40.070794479443435
37.87257000825784
33.22324800003611
33.566203561025745
33.09579961323186
34.735811666738236
36.37307918657097
34.37218522441612
36.47439910615454
37.72302475638999
37.8427107275903
37.96278472428883
38.18554329030213
38.46319250288405
38.8080958570037
39.115514181380725
37.14583768758917
37.46595115592117
37.789435128208325
38.102664988049575
38.36030106287225
40.682203899299736
40.61469694124115
40.253439904461764
39.53821608433173
38.318220857394216
36.291781858357226
33.684776019197436
31.031217139417464
28.42621148276447
25.596847595043826
22.88370991352463
20.133860976411377
17.588869667376315

VECTORS Ftot float
114.84142928379576 -25.307044972601563 30.159761764041065
138.4458449287409 -56.37405455137546 67.1839820407035
141.88902807274528 -83.76462826398812 99.82679666592607
1262.7919445501414 8.796933507406946 -10.483777111264583
1291.1200736217158 140.925976640311 -167.9490389509379
1384.6322297824493 183.88860884864027 -219.1499102325179
1468.3170106610003 180.3055512875602 -214.87978851162885
1459.061977329207 176.8075234680618 -210.71100129074716
1474.8275148950327 189.69854325190343 -226.0739204303434
1667.2535191748113 242.46963763073504 -288.9640617414439
2023.1087733076886 316.33125794687777 -376.9889131080363
2179.0153956183394 353.9017541364204 -421.76368691747064
2141.347298025518 353.3694355476759 -421.12929432692977
2051.239486691865 324.7825385563495 -387.060757136396
2120.6369359905357 315.28510360797225 -375.7421549162376
2190.0581326943484 313.7229649618012 -373.88047057253306
2108.363705704173 284.4967181322136 -339.0499859153269
2083.026468063483 269.776465844309 -321.5070723673235
1905.9957322435218 233.11879930396518 -277.82016657174836
2001.0930076640411 237.0617939637263 -282.5192446230984
2044.897807542714 236.75692864885426 -282.1559202888423
2222.5801123552565 241.73479831673652 -288.08831434900674
2402.563823435708 255.8883189083074 -304.95582336186743
2338.9366332711397 243.90022998802976 -290.66897532278773
2552.2333679486023 261.8362967456538 -312.04434731819566
2713.097567574703 262.4540140712174 -312.78051416014375
2790.983756854861 262.18485335060797 -312.4597409043723
2866.524524496029 263.48833696515567 -314.0131721848972
2948.223018402991 264.76067462796794 -315.5294851655466
3032.4092963760277 267.127019813132 -318.3495855412839
3120.3705054435095 270.405877798 -322.2571763243565
3203.909244852138 273.3577747055952 -325.7751100689509
3095.531350457355 263.3011593009321 -313.79010253110533
3174.4301497006977 263.86256515693424 -314.45915997689934
3251.301204168414 267.8975156859816 -319.26782676583144
3325.583936128257 272.5432239739264 -324.80436630813426
3393.8446754706683 274.57115861428656 -327.22116470132977
3644.550292978991 294.4725143312495 -350.93867687451564
3681.686797184479 294.9657961000866 -351.5265471946884
3689.238086120825 293.1887947232002 -349.40879941973924
3660.1620580314616 291.6027777002309 -347.51865793469995
3581.3344107870817 280.86911052427615 -334.7267715160454
3422.1904454205937 263.30446960199464 -313.79404759428917
3201.739795911835 244.48825412876437 -291.36975520504035
2970.9188649020703 225.44097426713452 -268.6700910007956
2738.8326621185442 208.9948693503974 -249.07038638209295
2480.8166519650463 188.0728490457598 -224.13649351971213
2229.3933835342546 167.9379066068293 -200.14060353143918
1970.2452626189108 148.16345435666506 -176.57432902072333
1727.836991987517 129.29981368477937 -154.0935174805974
114.84142928379576 -25.307044972601563 30.159761764041065
138.4458449287409 -56.37405455137546 67.1839820407035
141.88902807274528 -83.76462826398812 99.82679666592607
1262.7919445501414 8.796933507406946 -10.483777111264583
1291.1200736217158 140.925976640311 -167.9490389509379
1384.6322297824493 183.88860884864027 -219.1499102325179
1468.3170106610003 180.3055512875602 -214.87978851162885
1459.061977329207 176.8075234680618 -210.71100129074716
1474.8275148950327 189.69854325190343 -226.0739204303434
1667.2535191748113 242.46963763073504 -288.9640617414439
2023.1087733076886 316.33125794687777 -376.9889131080363
2179.0153956183394 353.9017541364204 -421.76368691747064
2141.347298025518 353.3694355476759 -421.12929432692977
2051.239486691865 324.7825385563495 -387.060757136396
2120.6369359905357 315.28510360797225 -375.7421549162376
2190.0581326943484 313.7229649618012 -373.88047057253306
2108.363705704173 284.4967181322136 -339.0499859153269
2083.026468063483 269.776465844309 -321.5070723673235
1905.9957322435218 233.11879930396518 -277.82016657174836
2001.0930076640411 237.0617939637263 -282.5192446230984
2044.897807542714 236.75692864885426 -282.1559202888423
2222.5801123552565 241.73479831673652 -288.08831434900674
2402.563823435708 255.8883189083074 -304.95582336186743
2338.9366332711397 243.90022998802976 -290.66897532278773
2552.2333679486023 261.8362967456538 -312.04434731819566
2713.097567574703 262.4540140712174 -312.78051416014375
2790.983756854861 262.18485335060797 -312.4597409043723
2866.524524496029 263.48833696515567 -314.0131721848972
2948.223018402991 264.76067462796794 -315.5294851655466
3032.4092963760277 267.127019813132 -318.3495855412839
3120.3705054435095 270.405877798 -322.2571763243565
3203.909244852138 273.3577747055952 -325.7751100689509
3095.531350457355 263.3011593009321 -313.79010253110533
3174.4301497006977 263.86256515693424 -314.45915997689934
3251.301204168414 267.8975156859816 -319.26782676583144
3325.583936128257 272.5432239739264 -324.80436630813426
3393.8446754706683 274.57115861428656 -327.22116470132977
3644.550292978991 294.4725143312495 -350.93867687451564
3681.686797184479 294.9657961000866 -351.5265471946884
3689.238086120825 293.1887947232002 -349.40879941973924
3660.1620580314616 291.6027777002309 -347.51865793469995
3581.3344107870817 280.86911052427615 -334.7267715160454
3422.1904454205937 263.30446960199464 -313.79404759428917
3201.739795911835 244.48825412876437 -291.36975520504035
2970.9188649020703 225.44097426713452 -268.6700910007956
2738.8326621185442 208.9948693503974 -249.07038638209295
2480.8166519650463 188.0728490457598 -224.13649351971213
2229.3933835342546 167.9379066068293 -200.14060353143918
1970.2452626189108 148.16345435666506 -176.57432902072333
1727.836991987517 129.29981368477937 -154.0935174805974

VECTORS D float
90.67975488236947 20.577981146065433 -23.31486247339516
59.14532397511146 24.616414413094105 -28.254447166246376
12.043336791513878 7.2468890335416365 -8.358141526065838
525.6989611750818 411.62839731531454 -476.0917831185483
510.160879282277 490.2789019335536 -567.9023866094838
468.47188083341683 531.2926892729707 -616.1603718554669
406.92144628396585 530.0935430877167 -615.4040594392527
343.09674053082296 503.19234268063417 -584.6773914583233
306.1297874117242 497.85765196537557 -579.0103188333279
318.74901479344663 567.6047724944918 -660.3902448064034
356.2570647799977 687.452226863966 -800.2378020325198
353.09306091221396 732.3061096420096 -852.8194078666971
319.4383715050581 707.170396692255 -823.8570122802872
276.42225709422127 649.3852376436565 -756.7894584570712
257.1267003893034 637.8087625714012 -743.5196749940504
243.1533923885039 634.0942846300577 -739.3870843771805
213.1108321398206 582.0595794512718 -678.8758801840361
194.22008519755641 553.7357782455986 -645.9827656771531
163.55429492341705 484.8593289961311 -565.783656673885
160.41743988659385 493.33144493154856 -575.7764412451811
154.31238651035179 491.06593018849446 -573.236788196472
155.4930994015807 510.86580324075857 -596.4562023120445
159.28875381836616 539.2484657040287 -629.7372536119981
147.41072718630397 513.0637978312907 -599.2931404172429
153.65466297168385 548.8199945184076 -641.1956784582376
153.36698680068218 561.1880170906081 -655.7800206039664
150.52647769164506 563.3463204720147 -658.4333170536728
148.34504602914342 566.9648863616792 -662.7920945671518
146.60484808935212 571.3801608461902 -668.0825150652379
145.44787744743377 577.2821243918406 -675.1128003327927
144.82277204825814 584.6115143178826 -683.8151673492146
144.19540359617235 591.3055799747669 -691.7776347461449
136.0433883750674 566.2425849046199 -662.5594571910588
135.25186860228868 570.6374979820104 -667.8354967642888
135.37313252330694 578.3889284299538 -677.0420062594777
135.70507892508118 586.623369720061 -686.8165972500631
135.4342358131204 591.830780510363 -693.0487193095165
143.16036897012089 631.9029897082994 -740.1165167278534
142.04467334815953 632.8257990482923 -741.3368861918622
139.9748172501803 628.9731163011404 -736.9586069533467
137.37618021989 622.1914584327554 -729.1418265518341
131.9807913909094 602.1096576476473 -705.7283990309853
123.75314760901527 568.3392189275601 -666.2549163384339
114.3197812836353 528.2069111231784 -619.30403782098
104.89024119855344 487.3073912006948 -571.4333154498993
96.23782669858362 449.2489474034027 -526.8941206105361
86.29666437851238 404.72353565729435 -474.717867964983
76.86344367669253 361.8938580843594 -424.5290225785405
67.52392653887993 319.00260872183463 -374.25167843540424
58.82211890453046 278.6982036564933 -326.99501625775804
90.67975488236947 20.577981146065433 -23.31486247339516
59.14532397511146 24.616414413094105 -28.254447166246376
12.043336791513878 7.2468890335416365 -8.358141526065838
525.6989611750818 411.62839731531454 -476.0917831185483
510.160879282277 490.2789019335536 -567.9023866094838
468.47188083341683 531.2926892729707 -616.1603718554669
406.92144628396585 530.0935430877167 -615.4040594392527
343.09674053082296 503.19234268063417 -584.6773914583233
306.1297874117242 497.85765196537557 -579.0103188333279
318.74901479344663 567.6047724944918 -660.3902448064034
356.2570647799977 687.452226863966 -800.2378020325198
353.09306091221396 732.3061096420096 -852.8194078666971
319.4383715050581 707.170396692255 -823.8570122802872
276.42225709422127 649.3852376436565 -756.7894584570712
257.1267003893034 637.8087625714012 -743.5196749940504
243.1533923885039 634.0942846300577 -739.3870843771805
213.1108321398206 582.0595794512718 -678.8758801840361
194.22008519755641 553.7357782455986 -645.9827656771531
163.55429492341705 484.8593289961311 -565.783656673885
160.41743988659385 493.33144493154856 -575.7764412451811
154.31238651035179 491.06593018849446 -573.236788196472
155.4930994015807 510.86580324075857 -596.4562023120445
159.28875381836616 539.2484657040287 -629.7372536119981
147.41072718630397 513.0637978312907 -599.2931404172429
153.65466297168385 548.8199945184076 -641.1956784582376
153.36698680068218 561.1880170906081 -655.7800206039664
150.52647769164506 563.3463204720147 -658.4333170536728
148.34504602914342 566.9648863616792 -662.7920945671518
146.60484808935212 571.3801608461902 -668.0825150652379
145.44787744743377 577.2821243918406 -675.1128003327927
144.82277204825814 584.6115143178826 -683.8151673492146
144.19540359617235 591.3055799747669 -691.7776347461449
136.0433883750674 566.2425849046199 -662.5594571910588
135.25186860228868 570.6374979820104 -667.8354967642888
135.37313252330694 578.3889284299538 -677.0420062594777
135.70507892508118 586.623369720061 -686.8165972500631
135.4342358131204 591.830780510363 -693.0487193095165
143.16036897012089 631.9029897082994 -740.1165167278534
142.04467334815953 632.8257990482923 -741.3368861918622
139.9748172501803 628.9731163011404 -736.9586069533467
137.37618021989 622.1914584327554 -729.1418265518341
131.9807913909094 602.1096576476473 -705.7283990309853
123.75314760901527 568.3392189275601 -666.2549163384339
114.3197812836353 528.2069111231784 -619.30403782098
104.89024119855344 487.3073912006948 -571.4333154498993
96.23782669858362 449.2489474034027 -526.8941206105361
86.29666437851238 404.72353565729435 -474.717867964983
76.86344367669253 361.8938580843594 -424.5290225785405
67.52392653887993 319.00260872183463 -374.25167843540424
58.82211890453046 278.6982036564933 -326.99501625775804

VECTORS L float
24.161674401426307 -45.885026118666985 53.47462423743622
79.30052095362946 -80.99046896446956 95.43842920694986
129.8456912812314 -91.01151729752976 108.18493819199193
737.0929833750597 -402.83146380790765 465.60800600728385
780.9591943394388 -349.3529252932427 399.953347658546
916.1603489490324 -347.40408042433046 397.01046162294904
1061.3955643770344 -349.78799180015653 400.5242709276239
1115.9652367983842 -326.38481921257244 373.96639016757626
1168.6977274833084 -308.15910871347194 352.93639840298425
1348.504504381365 -325.1351348637567 371.4261830649595
1666.851708527691 -371.12096891708796 423.2488889244833
1825.9223347061256 -378.4043555055893 431.05572094922684
1821.90892652046 -353.8009611445791 402.7277179533573
1774.8172295976435 -324.60269908730714 369.72870132067527
1863.5102356012326 -322.52365896342883 367.7775200778127
1946.9047403058446 -320.3713196682566 365.5066138046476
1895.2528735643523 -297.56286131905813 339.8258942687092
1888.806382865927 -283.95931240128965 324.4756933098297
1742.4414373201053 -251.7405296921659 287.9634901021367
1840.6755677774468 -256.26965096782243 293.2571966220828
1890.5854210323625 -254.30900153964038 291.0808679076298
2067.0870129536756 -269.1310049240219 308.3678879630377
2243.275069617342 -283.3601467957213 324.7814302501306
2191.525906084836 -269.163567843261 308.62416509445524
2398.578704976919 -286.9836977727539 329.151331140042
2559.7305807740204 -298.73400301939057 342.9995064438225
2640.4572791632163 -301.16146712140676 345.97357614930064
2718.1794784668855 -303.47654939652347 348.77892238225473
2801.6181703136385 -306.6194862182221 352.55302989969107
2886.961418928594 -310.15510457870863 356.76321479150886
2975.5477333952517 -314.2056365198826 361.55799102485804
3059.713841255966 -317.9478052691718 366.00252467719423
2959.487962082288 -302.94142560368783 348.7693546599535
3039.178281098409 -306.77493282507623 353.37633678738945
3115.9280716451076 -310.49141274397226 357.7741794936462
3189.878857203176 -314.08014574613446 362.0122309419287
3258.410439657548 -317.2596218960765 365.82755460818686
3501.3899240088704 -337.4304753770501 389.1778398533379
3539.64212383632 -337.8600029482058 389.8103389971738
3549.2632688706444 -335.78432157794003 387.54980753360724
3522.7858778115724 -330.58868073252467 381.62316861713424
3449.353619396173 -321.2405471233712 371.00162751494
3298.437297811579 -305.03474932556543 352.4608687441447
3087.4200146282 -283.718656994414 327.93428261593976