# vtk DataFile Version 4.0
[MyVLM domain - lattices] 
ASCII
DATASET UNSTRUCTURED_GRID
POINTS 152 float
0.0 0.46255384127745824 2.1988332456712545
0.0 2.322830618868419 3.449466623470424
0.0 4.1654770271634405 4.648484563065657
0.0 5.969029842065332 5.833062459087529
0.0 7.733317079794155 7.003498196180965
0.0 9.476796732766923 8.127821593673982
0.0 11.214758497116005 9.179550121033026
0.0 12.95114893475902 10.151848132501563
0.0 14.661900885762403 11.086401171878416
0.0 16.337159871477773 12.000277696864678
0.0 17.977049993370272 12.893262757417435
0.0 19.581752872753995 13.765041776192936
0.0 21.15146824544169 14.615268800615404
0.0 22.687839896208455 15.441096711937673
0.0 24.18977116389345 16.244424983009008
0.0 25.654858134404197 17.02941731517459
0.0 27.08274297134321 17.796693499255667
0.0 28.47401535732505 18.545232175003513
0.0 29.82910012667625 19.274297507779742
0.0 31.147997156890423 19.983889709771628
0.0 32.43070632873291 20.674008987499697
0.0 33.677227526240685 21.34465554181776
0.0 34.88756063672245 21.99582956791291
0.0 36.06170555075855 22.627531255305513
0.0 37.19966216220105 23.23976078784922
0.0 38.30143036817367 23.83251834373095
0.0 39.367010069071824 24.40580409547091
0.0 40.39640116856262 24.95961820992258
0.0 41.389602775064304 25.49396223135086
0.0 42.34660383067881 26.008855312596996
0.0 43.26740208753603 26.504301347086244
0.0 44.15199912784855 26.980297594346005
0.0 45.00039647164592 27.436841421607866
0.0 45.81259557677468 27.87393030380756
0.0 46.58859783889834 28.291561823585
0.0 47.32840459149736 28.689733671284237
0.0 48.03222810087444 29.06807819088428
0.0 48.70073959072783 29.4254327888365
0.0 49.335004199963116 29.75995259043935
0.0 49.93557602757424 30.070677868082864
0.0 50.50206683135192 30.35828107699915
0.0 51.03460364834645 30.622542182562675
0.0 51.53907481847535 30.85326228086406
0.0 52.015346670702286 31.050672896929697
0.0 52.45896088648449 31.22249606499206
0.0 52.866879247608665 31.373994133361006
0.0 53.23833244491597 31.506499584586383
0.0 53.57405594633669 31.618738550845613
0.0 53.873405043805356 31.711827699264102
0.0 54.135102495154975 31.787979278168727
0.0 54.35804262806182 31.849108368200632
-0.7686761955390344 2.089016524724541 -0.6182827586739014
-0.8409029948616161 4.099844312983746 0.37158861951702593
-0.8940476007249757 6.055728470314001 1.3744730244485013
-0.9506443374492793 7.980102131327347 2.3497830763918737
-1.0210144815146838 9.872243932224784 3.2987682140977466
-1.048631451549771 11.716894024716272 4.247859270120267
-0.9920275022819518 13.503651935483123 5.215070392670164
-0.9074715353829097 15.222482725954848 6.217782605202361
-0.8388231939293685 16.893446088357887 7.221251501596466
-0.7803448823218929 18.52673077041044 8.207829653139058
-0.7251531968841737 20.123451313083002 9.17558661824211
-0.671766762046156 21.685181892351633 10.121795844135049
-0.6188683613166902 23.209807912199217 11.050119918556987
-0.5668565661826578 24.696634924555987 11.961761660847994
-0.5162677046190278 26.14608162750378 12.855995864657295
-0.4681223452427161 27.56096344760921 13.72794606812652
-0.42442582165628834 28.94160438870878 14.577051080149014
-0.3846819074085718 30.287412626912683 15.404335969771058
-0.3476243488905531 31.59801273512114 16.210450995803996
-0.3131098246080671 32.87343184154023 16.995349170816585
-0.28048746260446866 34.113716007692176 17.75895071391206
-0.2502235469699514 35.318859345189956 18.50126582407592
-0.2227998260917326 36.488862085765476 19.222294099936725
-0.19746739264611052 37.6237692631525 19.92195754077955
-0.17533279734900953 38.72356292732573 20.600287236960195
-0.15613374469432648 39.78827235650879 21.257232477107788
-0.13998404755873647 40.81791319371257 21.89276616673271
-0.12578653595324127 41.81252674304028 22.506816765029615
-0.11250427274737486 42.77214345033221 23.09933153825627
-0.10008179164308317 43.69676930090071 23.670300119547548
-0.08845752889585208 44.58640864474592 24.2197149744822
-0.07764231497362577 45.441063757608894 24.747572161361127
-0.06766212708627829 46.26073683048305 25.25386788527238
-0.0584684819534103 47.045431120681165 25.73859650438473
-0.050013688763705585 47.79514957187448 26.201752920110042
-0.042252254921319045 48.50989481688316 26.64333257227004
-0.03513536582041269 49.18950454719736 27.063616587450237
-0.028615518964613278 49.833456422781005 27.463509685131942
-0.022687693716904638 50.44034632727094 27.845443866195943
-0.017408965386693863 51.00944799291723 28.210677063284958
-0.013252482528008399 51.54194346040864 28.55716192186946
-0.010166684094042405 52.03777233735843 28.885003044631663
-0.00760098697125575 52.48995667976271 29.206286585118686
-0.005464879873870877 52.89847370680776 29.521052000857328
-0.0039015967321000085 53.26858213709815 29.82019092404176
-0.002883995165670249 53.60376264614471 30.097674647842563
-0.0022477517166190047 53.904631469128134 30.352435821617345
-0.00179874084072329 54.1698679469427 30.586761894036727
-0.0014595970466816986 54.39999983942291 30.799738758253152
-0.0012027506489664258 54.596422474577246 30.988949635262692
-0.0010073243559101815 54.760343738918216 31.152302404255956
-0.603592196400244 2.6689958716588427 0.6135271814588812
-0.6506064733449719 4.619378249490638 1.6670170148040828
-0.6917594768153456 6.530249834269101 2.706789415584289
-0.7393720571114861 8.407423139064484 3.7227768158421704
-0.7761172248991705 10.247190960423032 4.721400280313623
-0.7652471076868961 12.04414913881014 5.712020087884787
-0.712312139124323 13.793038927023616 6.703744655894019
-0.6548605234921042 15.495104532932451 7.694418953097059
-0.607188028594223 17.15744891669314 8.671740291618708
-0.564561779702275 18.783094514416046 9.630473658553202
-0.5238449845988737 20.373087810303524 10.568806490092731
-0.48398817126106725 21.92727381648103 11.487007233110557
-0.4446468478122555 23.444829581489472 12.386501281346002
-0.4061716015506322 24.925720089535155 13.267349283932816
-0.369146268698154 26.37072056545458 14.128208512066879
-0.3347055625871267 27.780663076837673 14.96763778240711
-0.3034153983993225 29.155476171941583 15.785760853002424
-0.27461484611217185 30.494923946262848 16.58298632243855
-0.24777531506198255 31.798928876693846 17.35944846467664
-0.22259898270470088 33.06751837916507 18.115099793932156
-0.19901662859040753 34.3007074892025 18.849914267910172
-0.1773837648981315 35.498494056978686 19.563895610221074
-0.15760020702669117 36.66089502927937 20.257014468170908
-0.13980007124817 37.78792053554928 20.929253297046746
-0.124299953266251 38.87957479773478 21.580604784223013
-0.11104417209489861 39.9358746359887 22.21103979634042
-0.09966396881699166 40.95684138098662 22.820521387585053
-0.08935905326273105 41.94250181546805 23.409003168891385
-0.07971977414642176 42.89286810743023 23.976464064669912
-0.07070224520210072 43.807942469394334 24.52290024272156
-0.06228744145105419 44.687727302806124 25.048307543620275
-0.05448916577246402 45.53222467047128 25.5526823944818
-0.04729897838988322 46.34143698773915 26.036020611798342
-0.04068081401891846 47.11536693666749 26.49831755010961
-0.03459972888188424 47.854016949583574 26.939568996501176
-0.029020357778149403 48.55735384807666 27.359832417666162
-0.023906581794384738 49.22523132519217 27.759361224683406
-0.019238704755569217 49.857144005105845 28.13903075415744
-0.015036247163849435 50.45249539851273 28.499874155870618
-0.011498042968013347 51.011477152362964 28.841559487568155
-0.00878218748326905 51.53447723412495 29.163414769883147
-0.006662876649486808 52.019608189773145 29.468709169084722
-0.004899700066922485 52.464964081111134 29.760743866965218
-0.0035124287272390825 52.871934386113054 30.03711221707738
-0.0025445969616638467 53.242859310477705 30.293760864250757
-0.0019244050808584702 53.5787992547929 30.52885314079089
-0.0015174347090033604 53.87948582993315 30.742853910299278
-0.0012218767077768707 54.144633043654856 30.936258525872418
-0.0009983803858680466 54.37472181012009 31.10823401974754
-0.0008287781268287279 54.57043047046289 31.257605470615665

CELLS 100 350
4 0 51 52 1
4 1 52 53 2
4 2 53 54 3
4 3 54 55 4
4 4 55 56 5
4 5 56 57 6
4 6 57 58 7
4 7 58 59 8
4 8 59 60 9
4 9 60 61 10
4 10 61 62 11
4 11 62 63 12
4 12 63 64 13
4 13 64 65 14
4 14 65 66 15
4 15 66 67 16
4 16 67 68 17
4 17 68 69 18
4 18 69 70 19
4 19 70 71 20
4 20 71 72 21
4 21 72 73 22
4 22 73 74 23
4 23 74 75 24
4 24 75 76 25
4 25 76 77 26
4 26 77 78 27
4 27 78 79 28
4 28 79 80 29
4 29 80 81 30
4 30 81 82 31
4 31 82 83 32
4 32 83 84 33
4 33 84 85 34
4 34 85 86 35
4 35 86 87 36
4 36 87 88 37
4 37 88 89 38
4 38 89 90 39
4 39 90 91 40
4 40 91 92 41
4 41 92 93 42
4 42 93 94 43
4 43 94 95 44
4 44 95 96 45
4 45 96 97 46
4 46 97 98 47
4 47 98 99 48
4 48 99 100 49
4 49 100 101 50
1 102
1 103
1 104
1 105
1 106
1 107
1 108
1 109
1 110
1 111
1 112
1 113
1 114
1 115
1 116
1 117
1 118
1 119
1 120
1 121
1 122
1 123
1 124
1 125
1 126
1 127
1 128
1 129
1 130
1 131
1 132
1 133
1 134
1 135
1 136
1 137
1 138
1 139
1 140
1 141
1 142
1 143
1 144
1 145
1 146
1 147
1 148
1 149
1 150
1 151

CELL_TYPES 100
9
9
9
9
9
9
9
9
9
9
9
9
9
9
9
9
9
9
9
9
9
9
9
9
9
9
9
9
9
9
9
9
9
9
9
9
9
9
9
9
9
9
9
9
9
9
9
9
9
9
1
1
1
1
1
1
1
1
1
1
1
1
1
1
1
1
1
1
1
1
1
1
1
1
1
1
1
1
1
1
1
1
1
1
1
1
1
1
1
1
1
1
1
1
1
1
1
1
1
1

CELL_DATA 100

VECTORS S float
6.884918941738989e-18 -1.662198237721268e-15 -6.264928070548968e-16
1.946354988279087e-17 -3.3277137512295165e-15 -1.244072684227142e-15
-0.0 0.0 0.0
0.0 0.0 0.0
0.0 0.0 0.0
-4.3078479605117565e-17 -1.3281069933947157e-14 -5.055661914208545e-15
3.7287014307266196e-17 1.3285610827630113e-14 5.043763114173838e-15
7.016004717775447e-17 2.6577522488705124e-14 1.0070945480761453e-14
0.0 0.0 0.0
0.0 0.0 0.0
8.691561040445361e-17 2.6583224056100278e-14 1.005575513853413e-14
0.0 0.0 0.0
8.645531459781383e-17 2.659072164816366e-14 1.0035916233945684e-14
0.0 0.0 0.0
0.0 0.0 0.0
7.055677709709962e-17 2.6598172265524436e-14 1.0016277792723625e-14
6.528695822421399e-17 2.660018051184711e-14 1.0010979037863935e-14
0.0 0.0 0.0
0.0 0.0 0.0
-2.77538932772921e-17 -1.330190684375041e-14 -5.000689530272094e-15
0.0 0.0 0.0
4.987735198171822e-17 2.6605944606192275e-14 9.995738632452515e-15
-4.841989466393134e-17 -2.6606883217071457e-14 -9.9932471165902e-15
2.349076860369984e-17 1.3303900267997428e-14 4.9954056471469225e-15
0.0 0.0 0.0
-4.202704373094877e-17 -2.661176811255345e-14 -9.980260447382863e-15
0.0 0.0 0.0
0.0 0.0 0.0
-7.537815194260316e-17 -5.3230113810623333e-14 -1.994300803859741e-14
0.0 0.0 0.0
0.0 0.0 0.0
0.0 0.0 0.0
0.0 0.0 0.0
0.0 0.0 0.0
-3.257089346002271e-17 -2.662046744250351e-14 -9.957068806924361e-15
0.0 0.0 0.0
3.1214206442283786e-17 2.6622577697952194e-14 9.95142951219224e-15
3.077436685570743e-17 2.6623602066453465e-14 9.948690008830083e-15
-6.030098372958009e-17 -5.324923360819944e-14 -1.9891951933282688e-14
-2.95553197024949e-17 -2.6625604649968253e-14 -9.943332965006368e-15
0.0 0.0 0.0
2.852762921980334e-17 2.6627474299073208e-14 9.938328107528082e-15
0.0 0.0 0.0
-1.3614377125752959e-17 -1.3314529885676142e-14 -4.96704140396991e-15
0.0 0.0 0.0
-4.00326796656792e-17 -3.994584120577315e-14 -1.4895089572638554e-14
0.0 0.0 0.0
-1.2964568991396029e-17 -1.3315912300083952e-14 -4.963335901689789e-15
0.0 0.0 0.0
1.2714799424064689e-17 1.3316403058601207e-14 4.962019714927682e-15
6.884918941738989e-18 -1.662198237721268e-15 -6.264928070548968e-16
1.946354988279087e-17 -3.3277137512295165e-15 -1.244072684227142e-15
-0.0 0.0 0.0
0.0 0.0 0.0
0.0 0.0 0.0
-4.3078479605117565e-17 -1.3281069933947157e-14 -5.055661914208545e-15
3.7287014307266196e-17 1.3285610827630113e-14 5.043763114173838e-15
7.016004717775447e-17 2.6577522488705124e-14 1.0070945480761453e-14
0.0 0.0 0.0
0.0 0.0 0.0
8.691561040445361e-17 2.6583224056100278e-14 1.005575513853413e-14
0.0 0.0 0.0
8.645531459781383e-17 2.659072164816366e-14 1.0035916233945684e-14
0.0 0.0 0.0
0.0 0.0 0.0
7.055677709709962e-17 2.6598172265524436e-14 1.0016277792723625e-14
6.528695822421399e-17 2.660018051184711e-14 1.0010979037863935e-14
0.0 0.0 0.0
0.0 0.0 0.0
-2.77538932772921e-17 -1.330190684375041e-14 -5.000689530272094e-15
0.0 0.0 0.0
4.987735198171822e-17 2.6605944606192275e-14 9.995738632452515e-15
-4.841989466393134e-17 -2.6606883217071457e-14 -9.9932471165902e-15
2.349076860369984e-17 1.3303900267997428e-14 4.9954056471469225e-15
0.0 0.0 0.0
-4.202704373094877e-17 -2.661176811255345e-14 -9.980260447382863e-15
0.0 0.0 0.0
0.0 0.0 0.0
-7.537815194260316e-17 -5.3230113810623333e-14 -1.994300803859741e-14
0.0 0.0 0.0
0.0 0.0 0.0
0.0 0.0 0.0
0.0 0.0 0.0
0.0 0.0 0.0
-3.257089346002271e-17 -2.662046744250351e-14 -9.957068806924361e-15
0.0 0.0 0.0
3.1214206442283786e-17 2.6622577697952194e-14 9.95142951219224e-15
3.077436685570743e-17 2.6623602066453465e-14 9.948690008830083e-15
-6.030098372958009e-17 -5.324923360819944e-14 -1.9891951933282688e-14
-2.95553197024949e-17 -2.6625604649968253e-14 -9.943332965006368e-15
0.0 0.0 0.0
2.852762921980334e-17 2.6627474299073208e-14 9.938328107528082e-15
0.0 0.0 0.0
-1.3614377125752959e-17 -1.3314529885676142e-14 -4.96704140396991e-15
0.0 0.0 0.0
-4.00326796656792e-17 -3.994584120577315e-14 -1.4895089572638554e-14
0.0 0.0 0.0
-1.2964568991396029e-17 -1.3315912300083952e-14 -4.963335901689789e-15
0.0 0.0 0.0
1.2714799424064689e-17 1.3316403058601207e-14 4.962019714927682e-15

SCALARS Gamma float
LOOKUP_TABLE default
-0.0
-0.0
-0.0
51.35671053209842
55.05837953968256
55.066700581358695
52.85781533109557
48.115155319795576
45.01912353938712
47.70234372649624
54.359330478672355
54.993980708289975
51.13679708306929
46.26818197921336
45.23204286642349
44.41162077397594
40.79180059915689
38.582290988618574
33.920381929810866
34.28061875567972
33.76514817795327
35.35299805605063
36.94373294741312
34.83768887243926
36.97395021630975
38.33146892446012
38.43560020160006
38.53917220068858
38.74454755899063
39.00413330367627
39.33065970165554
39.55084178423453
37.57921083306735
37.89891763201254
38.220740291571666
38.531284865748255
38.78502276323151
41.125020032539474
41.0470359856185
40.67329781933286
39.94416795988986
38.706834468455305
36.655360699069206
34.01201705099263
31.33568645310976
28.690810400511737
25.84534671330553
23.099900213320453
20.324682129633025
17.756062177118576
-0.0
-0.0
-0.0
51.35671053209842
55.05837953968256
55.066700581358695
52.85781533109557
48.115155319795576
45.01912353938712
47.70234372649624
54.359330478672355
54.993980708289975
51.13679708306929
46.26818197921336
45.23204286642349
44.41162077397594
40.79180059915689
38.582290988618574
33.920381929810866
34.28061875567972
33.76514817795327
35.35299805605063
36.94373294741312
34.83768887243926
36.97395021630975
38.33146892446012
38.43560020160006
38.53917220068858
38.74454755899063
39.00413330367627
39.33065970165554
39.55084178423453
37.57921083306735
37.89891763201254
38.220740291571666
38.531284865748255
38.78502276323151
41.125020032539474
41.0470359856185
40.67329781933286
39.94416795988986
38.706834468455305
36.655360699069206
34.01201705099263
31.33568645310976
28.690810400511737
25.84534671330553
23.099900213320453
20.324682129633025
17.756062177118576

VECTORS Ftot float
116.07880105623278 -13.528082083536274 37.16810005304443
139.77353268051942 -30.111274584997876 82.73004699327923
143.09630716412198 -44.70272950113215 122.81973989234815
1279.300006759212 4.194506718624808 -11.524312495172325
1308.0131134430492 76.17887864942128 -209.2997489286581
1400.9588639657825 99.05863515129833 -272.1613632801851
1482.4321455101554 96.63299557120578 -265.4969733061455
1471.2092576506639 94.50895478061244 -259.66121919598976
1485.1499461570093 101.287947586387 -278.28634885650064
1680.724290073666 130.03130149620682 -357.25806468312305
2043.2484551986975 169.98568619586848 -467.0318344536464
2200.842313417558 189.77551290182976 -521.4039364631948
2172.1063198699685 191.08995527422607 -525.0153372005279
2084.769605551499 176.30305390467822 -484.3886595839928
2155.7198284795686 171.24380951771917 -470.4884998713203
2226.6575854910398 170.52160481081978 -468.5042587468905
2146.5384849313114 154.89325932967088 -425.56573243399833
2122.080703326778 147.1263159828799 -404.22623097050683
1946.1353074590327 127.36664497023892 -349.9369810474239
2043.7866170164102 129.68978943772592 -356.31976801397525
2086.374036380771 129.41067564989052 -355.5529091844391
2262.3566858196996 131.65035593903303 -361.70638020565576
2439.9345457484637 139.0982526687895 -382.16930829309155
2370.329496457419 132.30133373744053 -363.49492700734663
2586.9118737725266 142.1425823298666 -390.53353529427676
2756.718855739885 143.25017259459014 -393.5766145366124
2834.592053153339 142.98734081003948 -392.85449014344454
2909.9175373280546 143.61706852877137 -394.58465283106506
2991.2166715430362 144.26996809275914 -396.37847964029316
3074.8747696289465 145.45804658629797 -399.6426984738308
3162.1871648612155 147.13027492463678 -404.23710807358884
3239.40340735748 148.18987465707409 -407.14833441212045
3131.3450070449812 142.80071991849957 -392.34175345794006
3210.750705458311 143.28294799446437 -393.6666642076804
3288.0640629676545 145.43975484266107 -399.5924423212259
3362.6485587277703 147.9564527259231 -406.50701292707765
3431.1008955226384 149.00739497793063 -409.39445303361913
3683.9493099714696 159.63299556982668 -438.58805072799703
3720.6189100840197 159.86045523618725 -439.2129910251593
3727.4716107332106 158.86097615506247 -436.46694481855184
3697.544022002754 157.86893927941637 -433.74134590344784
3617.3922591475384 152.237874476852 -418.2701225109166
3456.2398076557233 142.6992167672281 -392.06287584181825
3232.6039467293926 132.43855322070513 -363.8719344391253
2999.854430601175 122.13372394812981 -335.5596487013897
2764.1439194381073 113.13590772455088 -310.8383518027042
2504.6253920767117 101.88883905566802 -279.93728459989313
2250.2133908409683 90.95514882310833 -249.89721757462397
1988.707106994019 80.246694982994 -220.47598245163778
1744.0769268040187 70.03538435113141 -192.4206370675585
116.07880105623278 -13.528082083536274 37.16810005304443
139.77353268051942 -30.111274584997876 82.73004699327923
143.09630716412198 -44.70272950113215 122.81973989234815
1279.300006759212 4.194506718624808 -11.524312495172325
1308.0131134430492 76.17887864942128 -209.2997489286581
1400.9588639657825 99.05863515129833 -272.1613632801851
1482.4321455101554 96.63299557120578 -265.4969733061455
1471.2092576506639 94.50895478061244 -259.66121919598976
1485.1499461570093 101.287947586387 -278.28634885650064
1680.724290073666 130.03130149620682 -357.25806468312305
2043.2484551986975 169.98568619586848 -467.0318344536464
2200.842313417558 189.77551290182976 -521.4039364631948
2172.1063198699685 191.08995527422607 -525.0153372005279
2084.769605551499 176.30305390467822 -484.3886595839928
2155.7198284795686 171.24380951771917 -470.4884998713203
2226.6575854910398 170.52160481081978 -468.5042587468905
2146.5384849313114 154.89325932967088 -425.56573243399833
2122.080703326778 147.1263159828799 -404.22623097050683
1946.1353074590327 127.36664497023892 -349.9369810474239
2043.7866170164102 129.68978943772592 -356.31976801397525
2086.374036380771 129.41067564989052 -355.5529091844391
2262.3566858196996 131.65035593903303 -361.70638020565576
2439.9345457484637 139.0982526687895 -382.16930829309155
2370.329496457419 132.30133373744053 -363.49492700734663
2586.9118737725266 142.1425823298666 -390.53353529427676
2756.718855739885 143.25017259459014 -393.5766145366124
2834.592053153339 142.98734081003948 -392.85449014344454
2909.9175373280546 143.61706852877137 -394.58465283106506
2991.2166715430362 144.26996809275914 -396.37847964029316
3074.8747696289465 145.45804658629797 -399.6426984738308
3162.1871648612155 147.13027492463678 -404.23710807358884
3239.40340735748 148.18987465707409 -407.14833441212045
3131.3450070449812 142.80071991849957 -392.34175345794006
3210.750705458311 143.28294799446437 -393.6666642076804
3288.0640629676545 145.43975484266107 -399.5924423212259
3362.6485587277703 147.9564527259231 -406.50701292707765
3431.1008955226384 149.00739497793063 -409.39445303361913
3683.9493099714696 159.63299556982668 -438.58805072799703
3720.6189100840197 159.86045523618725 -439.2129910251593
3727.4716107332106 158.86097615506247 -436.46694481855184
3697.544022002754 157.86893927941637 -433.74134590344784
3617.3922591475384 152.237874476852 -418.2701225109166
3456.2398076557233 142.6992167672281 -392.06287584181825
3232.6039467293926 132.43855322070513 -363.8719344391253
2999.854430601175 122.13372394812981 -335.5596487013897
2764.1439194381073 113.13590772455088 -310.8383518027042
2504.6253920767117 101.88883905566802 -279.93728459989313
2250.2133908409683 90.95514882310833 -249.89721757462397
1988.707106994019 80.246694982994 -220.47598245163778
1744.0769268040187 70.03538435113141 -192.4206370675585

VECTORS D float
91.92258909138553 11.382498160320454 -29.189622932955466
60.36392575360328 13.625693990980796 -35.50235733312007
12.927453505077418 4.208793131268395 -11.033662890079933
534.6926024553388 226.29865673473589 -595.5989154068623
520.3899209243962 269.91407586976356 -711.7173421952452
477.191385673415 291.9191593746246 -770.9288153021365
413.39711154574724 290.3366668055904 -767.822401750032
347.987017168959 275.0256688575801 -728.2251401901954
310.0279831058949 271.71110077151195 -719.9836452541605
323.6830401794455 310.5967311663298 -822.8933697006726
362.3326619625481 376.65505102738246 -998.8506919104356
358.7062008646292 400.6635890345667 -1063.3575538854254
326.58165151844406 389.0477288962094 -1033.6170952948373
283.3949031827373 358.1909331971415 -952.1294772075933
263.71065956915004 351.87007749377403 -935.7625323965049
249.496669240763 349.9154491436881 -930.9561164871292
219.01699766048202 321.6402302682786 -856.058843612715
199.8513553367443 306.29659100270953 -815.5106532105791
168.61571400958502 268.7571735249266 -715.6458335612198
165.49047707451692 273.6342192834294 -728.7894753608879
159.02205893059607 272.08985491871357 -724.8362231351887
159.7395428781765 282.1876864912518 -751.9041480676725
163.30956836478498 297.2333990409096 -792.1711207811762
150.76272850369676 282.15989209415284 -752.1648614392012
157.3238973863598 301.9325905276593 -805.2795125302899
157.81385838171263 309.9167756263181 -827.0391199309702
154.79062541703468 310.8702719298024 -829.8323201616354
152.46094545377005 312.65818506990166 -834.847510228979
150.5980222513565 314.91028874560214 -841.0999122200573
149.3034151970225 317.91390774406375 -849.3598388555781
148.54746653275373 321.68282437532395 -859.6669514996273
147.2946422758828 324.3132772298865 -866.7290044041231
139.10708617832356 310.7154166395431 -830.6398091827798
138.38253957706812 313.2474089079079 -837.664466608025
138.49529128253928 317.40875160814306 -849.0531116595464
138.83134270215606 321.85517559401654 -861.2114508890173
138.52742815997252 324.5888249840269 -868.7912853296358
146.34940867630982 346.3152256665214 -927.2238415212207
145.17697579698873 346.688404618953 -928.4984310846398
143.03157841258198 344.4534956432585 -922.780115240627
140.31112717931845 340.5336177437647 -912.5349469424856
134.86203799272423 329.649966557912 -883.6087127949569
126.43612372415107 311.07735243972684 -834.0417595915759
116.73549981798759 288.9598512610447 -774.8986858490689
107.11660770894942 266.57978288372857 -715.0493493649008
98.19645187672828 245.56697338969 -658.8285584757857
88.1297130105229 221.34734904901373 -593.9669539776335
78.47530573324457 197.85268115529905 -531.0151078468075
68.94186765563056 174.39430827411007 -468.1287676846266
60.06030381251343 152.3575530380971 -409.0306682756533
91.92258909138553 11.382498160320454 -29.189622932955466
60.36392575360328 13.625693990980796 -35.50235733312007
12.927453505077418 4.208793131268395 -11.033662890079933
534.6926024553388 226.29865673473589 -595.5989154068623
520.3899209243962 269.91407586976356 -711.7173421952452
477.191385673415 291.9191593746246 -770.9288153021365
413.39711154574724 290.3366668055904 -767.822401750032
347.987017168959 275.0256688575801 -728.2251401901954
310.0279831058949 271.71110077151195 -719.9836452541605
323.6830401794455 310.5967311663298 -822.8933697006726
362.3326619625481 376.65505102738246 -998.8506919104356
358.7062008646292 400.6635890345667 -1063.3575538854254
326.58165151844406 389.0477288962094 -1033.6170952948373
283.3949031827373 358.1909331971415 -952.1294772075933
263.71065956915004 351.87007749377403 -935.7625323965049
249.496669240763 349.9154491436881 -930.9561164871292
219.01699766048202 321.6402302682786 -856.058843612715
199.8513553367443 306.29659100270953 -815.5106532105791
168.61571400958502 268.7571735249266 -715.6458335612198
165.49047707451692 273.6342192834294 -728.7894753608879
159.02205893059607 272.08985491871357 -724.8362231351887
159.7395428781765 282.1876864912518 -751.9041480676725
163.30956836478498 297.2333990409096 -792.1711207811762
150.76272850369676 282.15989209415284 -752.1648614392012
157.3238973863598 301.9325905276593 -805.2795125302899
157.81385838171263 309.9167756263181 -827.0391199309702
154.79062541703468 310.8702719298024 -829.8323201616354
152.46094545377005 312.65818506990166 -834.847510228979
150.5980222513565 314.91028874560214 -841.0999122200573
149.3034151970225 317.91390774406375 -849.3598388555781
148.54746653275373 321.68282437532395 -859.6669514996273
147.2946422758828 324.3132772298865 -866.7290044041231
139.10708617832356 310.7154166395431 -830.6398091827798
138.38253957706812 313.2474089079079 -837.664466608025
138.49529128253928 317.40875160814306 -849.0531116595464
138.83134270215606 321.85517559401654 -861.2114508890173
138.52742815997252 324.5888249840269 -868.7912853296358
146.34940867630982 346.3152256665214 -927.2238415212207
145.17697579698873 346.688404618953 -928.4984310846398
143.03157841258198 344.4534956432585 -922.780115240627
140.31112717931845 340.5336177437647 -912.5349469424856
134.86203799272423 329.649966557912 -883.6087127949569
126.43612372415107 311.07735243972684 -834.0417595915759
116.73549981798759 288.9598512610447 -774.8986858490689
107.11660770894942 266.57978288372857 -715.0493493649008
98.19645187672828 245.56697338969 -658.8285584757857
88.1297130105229 221.34734904901373 -593.9669539776335
78.47530573324457 197.85268115529905 -531.0151078468075
68.94186765563056 174.39430827411007 -468.1287676846266
60.06030381251343 152.3575530380971 -409.0306682756533

VECTORS L float
24.156211964847234 -24.910580243856728 66.35772298599991
79.40960692691617 -43.736968575978686 118.23240432639933
130.16885365904457 -48.91152263240055 133.8534027824281
744.6074043038734 -222.1041500161112 584.0746029116902
787.623192518653 -193.7351972203423 502.4175932665873
923.7674782923674 -192.8605242233263 498.76745202195144
1069.035033964408 -193.7036712343847 502.3254284438867
1123.2222404817048 -180.51671407696767 468.5639209942056
1175.1219630511146 -170.42315318512507 441.69729639766
1357.041249894221 -180.56542967012308 465.6353050175498
1680.9157932361495 -206.66936483151397 531.8188574567895
1842.136112552929 -210.88807613273693 541.9536174222306
1845.5246683515259 -197.95777362198325 508.6017580943092
1801.3747023687615 -181.88787929246337 467.74081762360066
1892.009168910418 -180.62626797605475 465.2740325251843
1977.1609162502773 -179.39384433286827 462.45185774023867
1927.5214872708295 -166.74697093860763 430.49311117871684
1922.2293479900336 -159.17027501982963 411.2844222400722
1777.5195934494477 -141.39052855468765 365.7088525137959
1878.296139941893 -143.94442984570355 372.46970734691274
1927.351977450175 -142.67917926882305 369.2833139507495
2102.6171429415235 -150.53733055221872 390.1977678620167
2276.624977383679 -158.13514637212023 410.00181248808497
2219.566767953722 -149.85855835671236 388.6699344318547
2429.5879763861667 -159.79000819779262 414.74597723601323
2598.9049973581727 -166.66660303172807 433.46250539435783
2679.801427736305 -167.88293111976296 436.9778300181909
2757.4565918742846 -169.04111654113035 440.262857397914
2840.6186492916795 -170.640320652843 444.72143257976415
2925.571354431924 -172.4558611577657 449.7171403817471
3013.6396983284626 -174.5525494506871 455.4298434260383
3092.1087650815975 -176.1234025728125 459.58066999200247
2992.237920866658 -167.9146967210436 438.2980557248398
3072.368165881243 -169.9644609134435 443.99780240034426
3149.5687716851157 -171.96899676548193 449.46066933832014
3223.8172160256145 -173.89872286809347 454.7044379619398
3292.573467362667 -175.58143000609633 459.3968322960166
3537.5999012951606 -186.6822300966947 488.6357907932237
3575.441934287031 -186.82794938276584 489.2854400594807
3584.4400323206296 -185.59251948819605 486.3131704220751
3557.2328948234363 -182.66467846434844 478.7936010390379
3482.5302211548137 -177.41209208105988 465.33859028404
3329.803683931572 -168.37813567249867 441.9788837497574
3115.8684469114055 -156.52129804033964 411.02675140994387
2892.7378228922253 -144.44605893559884 379.48970066351137
2665.9474675613797 -132.4310656651392 347.9902066730816
2416.495679066189 -119.4585099933457 314.02966937774033
2171.738085107724 -106.89753233219074 281.1178902721835
1919.7652393383887 -94.14761329111607 247.65278523298878
1684.0166229915053 -82.32216868696571 216.61003120809482
24.156211964847234 -24.910580243856728 66.35772298599991
79.40960692691617 -43.736968575978686 118.23240432639933
130.16885365904457 -48.91152263240055 133.8534027824281
744.6074043038734 -222.1041500161112 584.0746029116902
787.623192518653 -193.7351972203423 502.4175932665873
923.7674782923674 -192.8605242233263 498.76745202195144
1069.035033964408 -193.7036712343847 502.3254284438867
1123.2222404817048 -180.51671407696767 468.5639209942056
1175.1219630511146 -170.42315318512507 441.69729639766
1357.041249894221 -180.56542967012308 465.6353050175498
1680.9157932361495 -206.66936483151397 531.8188574567895
1842.136112552929 -210.88807613273693 541.9536174222306
1845.5246683515259 -197.95777362198325 508.6017580943092