# vtk DataFile Version 4.0
[MyVLM domain - lattices] 
ASCII
DATASET UNSTRUCTURED_GRID
POINTS 152 float
0.0 2.135522370075829 0.6988332456712775
0.0 4.148741034866135 -0.28689701289316294
0.0 6.108444234296396 -1.283166642871187
0.0 8.036095192463808 -2.2528002496322204
0.0 9.931865893148304 -3.1954999485313373
0.0 11.777298343932873 -4.143235920240523
0.0 13.557102848685146 -5.122490695293328
0.0 15.267332845487504 -6.140099919446289
0.0 16.93205549427351 -7.154378048900584
0.0 18.561125273691545 -8.148256625955115
0.0 20.15441808227647 -9.1219506006528
0.0 21.711752298714188 -10.075774550337389
0.0 23.23292818719195 -11.010074427584657
0.0 24.716301962934665 -11.927697351141774
0.0 26.16297028710317 -12.826743848159477
0.0 27.57533707378994 -13.703050217292576
0.0 28.95376015939244 -14.555996667719823
0.0 30.29764986129615 -15.386604559689959
0.0 31.606581345174536 -16.195609727841354
0.0 32.880554733533934 -16.983011959986744
0.0 34.11957014560905 -17.748811049605596
0.0 35.323627697362895 -18.493006795844106
0.0 36.49272750148676 -19.21559900351517
0.0 37.62686966740031 -19.916587483098432
0.0 38.72605430125148 -20.59597205074024
0.0 39.790281505916546 -21.253752528253663
0.0 40.81955138100009 -21.889928743118514
0.0 41.81386402283502 -22.5045005284813
0.0 42.77322032300308 -23.097466340077133
0.0 43.69763133940234 -23.66880702506475
0.0 44.5870993199029 -24.218518690018907
0.0 45.44162268229217 -24.746604075412193
0.0 46.26119990654061 -25.25306581401303
0.0 47.04582953480167 -25.73790643088568
0.0 47.79551017141186 -26.201128343390234
0.0 48.5102404828907 -26.642733861182634
0.0 49.189808202935495 -27.063090640283882
0.0 49.833542107848 -27.463361274242594
0.0 50.44037705872264 -27.845390637760328
0.0 51.00975895656545 -28.21013845844705
0.0 51.542076043585716 -28.55693228107066
0.0 52.03720128273317 -28.885992140256658
0.0 52.48924633409025 -29.20751693991445
0.0 52.89834486869331 -29.521275155017637
0.0 53.268955205085135 -29.81954475133375
0.0 53.60411556147899 -30.09706338055292
0.0 53.90459524703375 -30.352498560125316
0.0 54.1696587938191 -30.587124157873493
0.0 54.39995090990052 -30.79982350667207
0.0 54.59674883744503 -30.988384358194168
0.0 54.761158248776304 -31.150891631798615
-0.7686761955390344 0.5090596866287495 -2.1182827586738893
-0.8409029948616161 2.3717273407508115 -3.3647750168465724
-0.8940476007249757 4.21819279114584 -4.557178181488355
-0.9506443374492793 6.025022903201797 -5.73607963232789
-1.0210144815146838 7.792939040717679 -6.90022993061457
-1.048631451549771 9.537201051983528 -8.023198243794253
-0.9920275022819518 11.268209410318033 -9.086970423656204
-0.9074715353829097 12.995999054291678 -10.074165446745507
-0.8388231939293685 14.700510291678032 -11.019527719182548
-0.7803448823218929 16.371554374758887 -11.940704669680752
-0.7251531968841737 18.00801676256375 -12.83962673982814
-0.671766762046156 19.608323279116558 -13.719020482395289
-0.6188683613166902 21.174588520434426 -14.575223309643087
-0.5668565661826578 22.707506934587137 -15.407032402231469
-0.5162677046190278 24.206659823492842 -16.2151729665112
-0.4681223452427161 25.66923176058492 -17.00452146434066
-0.42442582165628834 27.09489874202688 -17.775639086826487
-0.3846819074085718 28.484252591708525 -18.527500764922426
-0.3476243488905531 29.837668736729633 -19.259456239817116
-0.3131098246080671 31.155120048884132 -19.9715524989418
-0.28048746260446866 32.43656046664979 -20.663869323193246
-0.2502235469699514 33.68199587841362 -21.33639651358596
-0.2227998260917326 34.891426052443734 -21.98913447149137
-0.19746739264611052 36.06480595500636 -22.622161197624404
-0.17533279734900953 37.2021535361268 -23.235445601629277
-0.15613374469432648 38.303439517581424 -23.82903839487684
-0.13998404755873647 39.36864825635935 -24.40296667185672
-0.12578653595324127 40.39773844835736 -24.957301973374282
-0.11250427274737486 41.390679647735176 -25.492097033171735
-0.10008179164308317 42.347465869180446 -26.007362218114206
-0.08845752889585208 43.268092762693 -26.50310506262296
-0.07764231497362577 44.15255805253182 -26.979329508397083
-0.06766212708627829 45.000859547703485 -27.436039350348523
-0.0584684819534103 45.812993990895194 -27.873240230308514
-0.050013688763705585 46.588958438435725 -28.290937246865198
-0.042252254921319045 47.32875025750491 -28.689134960196846
-0.03513536582041269 48.032531756612585 -29.06755224371793
-0.028615518964613278 48.70082527579482 -29.42528437794716
-0.022687693716904638 49.33503493141482 -29.75989936200375
-0.017408965386693863 49.93588699122246 -30.070139263244965
-0.013252482528008399 50.502199414529 -30.358051436200352
-0.010166684094042405 51.034032593721186 -30.623531278187674
-0.00760098697125575 51.53836447280289 -30.854492635659835
-0.005464879873870877 52.01521783258785 -31.05089605109001
-0.0039015967321000085 52.45933395447148 -31.221849892284048
-0.002883995165670249 52.86723216294297 -31.373382866071367
-0.0022477517166190047 53.23829622282158 -31.506562323094357
-0.00179874084072329 53.57384679321308 -31.61910081468239
-0.0014595970466816986 53.87335611428296 -31.711912447683027
-0.0012027506489664258 54.135428858022735 -31.787414001100203
-0.0010073243559101815 54.358857137919905 -31.847697595743305
-0.603592196400244 1.8658280608850808 -2.004654636722909
-0.6506064733449719 3.753368208106561 -3.166990406346142
-0.6917594768153456 5.60927331372539 -4.301967541744018
-0.7393720571114861 7.427730864671318 -5.419653610873867
-0.7761172248991705 9.2124480643981 -6.51362754899979
-0.7652471076868961 10.968829072440338 -7.574529077235654
-0.712312139124323 12.702132636000222 -8.593249778243095
-0.6548605234921042 14.411114547208767 -9.571944683266379
-0.607188028594223 16.088671845909477 -10.5229164801807
-0.564561779702275 17.731782095991992 -11.451400181891824
-0.5238449845988737 19.339398813253947 -12.35920835220756
-0.48398817126106725 20.911676985569887 -13.246072544254647
-0.4446468478122555 22.449439564398915 -14.110567364293763
-0.4061716015506322 23.952721565534723 -14.952632163191158
-0.369146268698154 25.420747764140796 -15.773609669750952
-0.3347055625871267 26.85268609262722 -16.57494106731423
-0.3034153983993225 28.248608002736848 -17.356502597832066
-0.27461484611217185 29.60874939897315 -18.11788566271874
-0.24777531506198255 30.93318780444372 -18.858955988013104
-0.22259898270470088 32.22189580321809 -19.579761059499685
-0.19901662859040753 33.474858359770266 -20.280326919473413
-0.1773837648981315 34.692077623927716 -20.96064984432391
-0.15760020702669117 35.87353664890467 -21.620759186745115
-0.13980007124817 37.01922530525641 -22.260672491449963
-0.124299953266251 38.12913937103659 -22.880397071064028
-0.11104417209489861 39.20326202609237 -23.479962058946608
-0.09966396881699166 40.24157193974815 -24.0594044009116
-0.08935905326273105 41.24404232926447 -24.61877048602456
-0.07971977414642176 42.21066102664403 -25.158081389874962
-0.07070224520210072 43.14142581936569 -25.677340944661893
-0.06228744145105419 44.036334305983694 -26.1765533098114
-0.05448916577246402 44.89538442369234 -26.65572205820775
-0.04729897838988322 45.71857375714228 -27.11485137335873
-0.04068081401891846 46.505899624275784 -27.55394590072463
-0.03459972888188424 47.25735959276555 -27.97300985321987
-0.029020357778149403 47.97298684102233 -28.371985764151354
-0.023906581794384738 48.65292767600071 -28.75062022244022
-0.019238704755569217 49.297687473524945 -29.108037891481956
-0.015036247163849435 49.907862722899985 -29.44320562149419
-0.011498042968013347 50.4832617771757 -29.75645535473171
-0.00878218748326905 51.02349666888368 -30.048459070561428
-0.006662876649486808 51.53045485204945 -30.315947602714203
-0.004899700066922485 52.00604226486947 -30.5556197693977
-0.0035124287272390825 52.448869429369545 -30.769882217059198
-0.0025445969616638467 52.856596139850936 -30.96278830086912
-0.0019244050808584702 53.2281619957258 -31.136174688521926
-0.0015174347090033604 53.563835386119614 -31.289576516416133
-0.0012218767077768707 53.86390230327597 -31.422498431455224
-0.0009983803858680466 54.12788183303283 -31.535773401401983
-0.0008287781268287279 54.355095634256145 -31.63057634756541

CELLS 100 350
4 0 51 52 1
4 1 52 53 2
4 2 53 54 3
4 3 54 55 4
4 4 55 56 5
4 5 56 57 6
4 6 57 58 7
4 7 58 59 8
4 8 59 60 9
4 9 60 61 10
4 10 61 62 11
4 11 62 63 12
4 12 63 64 13
4 13 64 65 14
4 14 65 66 15
4 15 66 67 16
4 16 67 68 17
4 17 68 69 18
4 18 69 70 19
4 19 70 71 20
4 20 71 72 21
4 21 72 73 22
4 22 73 74 23
4 23 74 75 24
4 24 75 76 25
4 25 76 77 26
4 26 77 78 27
4 27 78 79 28
4 28 79 80 29
4 29 80 81 30
4 30 81 82 31
4 31 82 83 32
4 32 83 84 33
4 33 84 85 34
4 34 85 86 35
4 35 86 87 36
4 36 87 88 37
4 37 88 89 38
4 38 89 90 39
4 39 90 91 40
4 40 91 92 41
4 41 92 93 42
4 42 93 94 43
4 43 94 95 44
4 44 95 96 45
4 45 96 97 46
4 46 97 98 47
4 47 98 99 48
4 48 99 100 49
4 49 100 101 50
1 102
1 103
1 104
1 105
1 106
1 107
1 108
1 109
1 110
1 111
1 112
1 113
1 114
1 115
1 116
1 117
1 118
1 119
1 120
1 121
1 122
1 123
1 124
1 125
1 126
1 127
1 128
1 129
1 130
1 131
1 132
1 133
1 134
1 135
1 136
1 137
1 138
1 139
1 140
1 141
1 142
1 143
1 144
1 145
1 146
1 147
1 148
1 149
1 150
1 151

CELL_TYPES 100
9
9
9
9
9
9
9
9
9
9
9
9
9
9
9
9
9
9
9
9
9
9
9
9
9
9
9
9
9
9
9
9
9
9
9
9
9
9
9
9
9
9
9
9
9
9
9
9
9
9
1
1
1
1
1
1
1
1
1
1
1
1
1
1
1
1
1
1
1
1
1
1
1
1
1
1
1
1
1
1
1
1
1
1
1
1
1
1
1
1
1
1
1
1
1
1
1
1
1
1

CELL_DATA 100

VECTORS S float
-0.0 0.0 -0.0
-0.0 0.0 -0.0
-0.0 0.0 -0.0
2.8359513245624e-19 1.3774818934822785e-15 -1.1216002735316735e-15
-3.774484357422586e-17 -1.1027640713005152e-14 8.963152758278407e-15
0.0 0.0 -0.0
0.0 0.0 -0.0
0.0 0.0 -0.0
0.0 0.0 -0.0
-8.199811158734732e-17 -2.2003392748295032e-14 1.7989929149951917e-14
-1.7372101945590533e-16 -4.3999999487579346e-14 3.598811100746581e-14
3.5474068687151974e-16 8.79845319820654e-14 -7.199509262500499e-14
0.0 0.0 -0.0
-8.297659499733592e-17 -2.1987197436002466e-14 1.8009714898944e-14
0.0 0.0 -0.0
0.0 0.0 -0.0
-6.650960931423383e-17 -2.1974475132523737e-14 1.8025304049260334e-14
0.0 0.0 -0.0
1.1656456597118772e-16 4.393564944373541e-14 -3.606687383797516e-14
-1.1131353702417683e-16 -4.3930239082752635e-14 3.607348016499007e-14
-5.3702370743576876e-17 -2.1962725428460732e-14 1.803966115967085e-14
0.0 0.0 -0.0
-4.834463054252737e-17 -2.1958619490170343e-14 1.8044674001735932e-14
4.688219233455471e-17 2.1956853542081902e-14 -1.8046826633453413e-14
0.0 0.0 -0.0
0.0 0.0 -0.0
0.0 0.0 -0.0
-3.9680035757890076e-17 -2.1949535107696404e-14 1.805574426594156e-14
-3.8535439703885055e-17 -2.1948453101924904e-14 1.8057062009053576e-14
0.0 0.0 -0.0
3.639285190002396e-17 2.1944725691769953e-14 -1.806159618692707e-14
3.543940696298204e-17 2.1942857586568673e-14 -1.8063867579516736e-14
0.0 0.0 -0.0
0.0 0.0 -0.0
0.0 0.0 -0.0
0.0 0.0 -0.0
3.177979468707448e-17 2.1933579502110175e-14 -1.8075138926591357e-14
0.0 0.0 -0.0
-3.077074864886405e-17 -2.193002084491271e-14 1.8079458118235672e-14
-3.018721620473038e-17 -2.1928294271072198e-14 1.808155319765302e-14
0.0 0.0 -0.0
2.899601522301252e-17 2.1924191520338225e-14 -1.8086529583005874e-14
2.814127973223052e-17 2.192257014462236e-14 -1.808849615829916e-14
2.7647310196161737e-17 2.1921061861688712e-14 -1.8090324746354656e-14
5.442388068499377e-17 4.383930318513342e-14 -3.6184068346005894e-14
2.711879403046494e-17 2.1918373330988147e-14 -1.8093582896727606e-14
-2.6730481200681558e-17 -2.191717761753057e-14 1.809503185156932e-14
2.6361991585607317e-17 2.1916097983762483e-14 -1.8096339993430653e-14
2.61432911370964e-17 2.1915151399165807e-14 -1.8097486638378425e-14
0.0 0.0 -0.0
-0.0 0.0 -0.0
-0.0 0.0 -0.0
-0.0 0.0 -0.0
2.8359513245624e-19 1.3774818934822785e-15 -1.1216002735316735e-15
-3.774484357422586e-17 -1.1027640713005152e-14 8.963152758278407e-15
0.0 0.0 -0.0
0.0 0.0 -0.0
0.0 0.0 -0.0
0.0 0.0 -0.0
-8.199811158734732e-17 -2.2003392748295032e-14 1.7989929149951917e-14
-1.7372101945590533e-16 -4.3999999487579346e-14 3.598811100746581e-14
3.5474068687151974e-16 8.79845319820654e-14 -7.199509262500499e-14
0.0 0.0 -0.0
-8.297659499733592e-17 -2.1987197436002466e-14 1.8009714898944e-14
0.0 0.0 -0.0
0.0 0.0 -0.0
-6.650960931423383e-17 -2.1974475132523737e-14 1.8025304049260334e-14
0.0 0.0 -0.0
1.1656456597118772e-16 4.393564944373541e-14 -3.606687383797516e-14
-1.1131353702417683e-16 -4.3930239082752635e-14 3.607348016499007e-14
-5.3702370743576876e-17 -2.1962725428460732e-14 1.803966115967085e-14
0.0 0.0 -0.0
-4.834463054252737e-17 -2.1958619490170343e-14 1.8044674001735932e-14
4.688219233455471e-17 2.1956853542081902e-14 -1.8046826633453413e-14
0.0 0.0 -0.0
0.0 0.0 -0.0
0.0 0.0 -0.0
-3.9680035757890076e-17 -2.1949535107696404e-14 1.805574426594156e-14
-3.8535439703885055e-17 -2.1948453101924904e-14 1.8057062009053576e-14
0.0 0.0 -0.0
3.639285190002396e-17 2.1944725691769953e-14 -1.806159618692707e-14
3.543940696298204e-17 2.1942857586568673e-14 -1.8063867579516736e-14
0.0 0.0 -0.0
0.0 0.0 -0.0
0.0 0.0 -0.0
0.0 0.0 -0.0
3.177979468707448e-17 2.1933579502110175e-14 -1.8075138926591357e-14
0.0 0.0 -0.0
-3.077074864886405e-17 -2.193002084491271e-14 1.8079458118235672e-14
-3.018721620473038e-17 -2.1928294271072198e-14 1.808155319765302e-14
0.0 0.0 -0.0
2.899601522301252e-17 2.1924191520338225e-14 -1.8086529583005874e-14
2.814127973223052e-17 2.192257014462236e-14 -1.808849615829916e-14
2.7647310196161737e-17 2.1921061861688712e-14 -1.8090324746354656e-14
5.442388068499377e-17 4.383930318513342e-14 -3.6184068346005894e-14
2.711879403046494e-17 2.1918373330988147e-14 -1.8093582896727606e-14
-2.6730481200681558e-17 -2.191717761753057e-14 1.809503185156932e-14
2.6361991585607317e-17 2.1916097983762483e-14 -1.8096339993430653e-14
2.61432911370964e-17 2.1915151399165807e-14 -1.8097486638378425e-14
0.0 0.0 -0.0

SCALARS Gamma float
LOOKUP_TABLE default
-0.0
-0.0
-0.0
50.968103434381966
54.48783054836652
54.5294409974508
52.443498690219165
47.773977905114805
44.775020735368614
47.32663526331609
53.82851729263801
54.46333905269179
50.4256893358789
45.5337679516774
44.51254239703242
43.70680167911674
40.11793593951763
37.97186712530199
33.25357069854957
33.579394106594165
33.08813705842195
34.73294155453878
36.39495125030385
34.39076164804319
36.49257841570845
37.742260077868906
37.86221135361793
37.98278491410529
38.219261364915845
38.49533893359937
38.838354080386004
39.14362096219309
37.19113543460039
37.50980534568325
37.83242760150275
38.14522400792069
38.40269058599399
40.72697058324739
40.65909316940561
40.297336737965665
39.58146900099287
38.345904105243235
36.31733994036493
33.707789950795444
31.05210385771863
28.436379217915242
25.615824595273494
22.900566505313765
20.149039012040365
17.602406373942884
-0.0
-0.0
-0.0
50.968103434381966
54.48783054836652
54.5294409974508
52.443498690219165
47.773977905114805
44.775020735368614
47.32663526331609
53.82851729263801
54.46333905269179
50.4256893358789
45.5337679516774
44.51254239703242
43.70680167911674
40.11793593951763
37.97186712530199
33.25357069854957
33.579394106594165
33.08813705842195
34.73294155453878
36.39495125030385
34.39076164804319
36.49257841570845
37.742260077868906
37.86221135361793
37.98278491410529
38.219261364915845
38.49533893359937
38.838354080386004
39.14362096219309
37.19113543460039
37.50980534568325
37.83242760150275
38.14522400792069
38.40269058599399
40.72697058324739
40.65909316940561
40.297336737965665
39.58146900099287
38.345904105243235
36.31733994036493
33.707789950795444
31.05210385771863
28.436379217915242
25.615824595273494
22.900566505313765
20.149039012040365
17.602406373942884

VECTORS Ftot float
114.79631600682752 25.286488871395978 30.135263956579745
138.40016316193575 56.3431255200385 67.14712225649258
141.84983799162728 83.72787929571841 99.78300095096705
1262.6783229203725 -8.774392313914323 -10.456913562938444
1290.7974138493864 -140.905155578945 -167.92422537625427
1384.216506702513 -183.83568446872317 -219.08683741261703
1467.854662773869 -180.24378885441425 -214.80618291004095
1458.322556076978 -176.75738667568615 -210.65125058831345
1474.6464544324958 -189.6558738100356 -226.02306896970464
1666.0333873231878 -242.292142457606 -288.7525312312008
2021.7506054403284 -316.11906214662304 -376.73602800075133
2177.7721123705574 -353.70939999861525 -421.5344481826933
2140.358832820477 -353.20120032144575 -420.92879939167136
2050.6962558306564 -324.6983456268103 -386.9604199101487
2120.6382885378107 -315.30345859816305 -375.7640295417416
2190.7617118713033 -313.86828075517246 -374.0536511913459
2111.2062159588177 -284.9604923853346 -339.6026905476384
2088.7070493523715 -270.7336009556598 -322.64774157487574
1907.8676792785068 -233.4009297710092 -278.1563965694299
2002.100308544016 -237.20223270849613 -282.68661300171885
2044.729531179202 -236.70649122330502 -282.0958113057443
2223.087277965228 -241.75981108051056 -288.11812340009675
2404.068660643541 -256.10427019162614 -305.2131840795895
2340.2222310254338 -244.09094993621903 -290.8962665062233
2553.492239356481 -262.02844334978 -312.2733387239696
2714.4276359268993 -262.66493857707746 -313.03188419777035
2792.3332016912245 -262.3956448724725 -312.71095245784437
2867.909688599834 -263.70567502391094 -314.272185597228
2951.013560778135 -265.1496700762361 -315.9930718885247
3035.1180234177664 -267.50172535829387 -318.79614222089725
3122.963883339764 -270.7626001812973 -322.6823015062116
3206.356379476522 -273.69280419682013 -326.17438266874495
3099.2662311950194 -263.8297656969222 -314.4200711025965
3178.103363072773 -264.4096841739015 -315.11119103094836
3254.962792429068 -268.43785751961747 -319.91178108729764
3329.263922292746 -273.08989504300655 -325.4558635186797
3397.5654576972765 -275.11542735055326 -327.8697989231141
3648.5387902667912 -295.03054515796816 -351.6037121170378
3685.6930852188502 -295.5259509471224 -352.1941137460543
3693.2468450466067 -293.7486006251087 -350.07595011449604
3664.1591777264 -292.14393675893143 -348.1635861870732
3583.9483027815836 -281.24178084379633 -335.17090270818863
3424.6274353477056 -263.6467545714305 -314.2019669363071
3203.953594947941 -244.79790695965167 -291.7387850787089
2972.944030254815 -225.72119540042488 -269.0040455431167
2739.8489762807917 -209.1342309150476 -249.23647102743575
2482.5762938270195 -188.33227444518687 -224.4456646714908
2230.963816897045 -168.17078156768815 -200.41813310266903
1971.6667855783562 -148.37325137036575 -176.82435536551762
1729.110603952455 -129.4870110949408 -154.31661066668246
114.79631600682752 25.286488871395978 30.135263956579745
138.40016316193575 56.3431255200385 67.14712225649258
141.84983799162728 83.72787929571841 99.78300095096705
1262.6783229203725 -8.774392313914323 -10.456913562938444
1290.7974138493864 -140.905155578945 -167.92422537625427
1384.216506702513 -183.83568446872317 -219.08683741261703
1467.854662773869 -180.24378885441425 -214.80618291004095
1458.322556076978 -176.75738667568615 -210.65125058831345
1474.6464544324958 -189.6558738100356 -226.02306896970464
1666.0333873231878 -242.292142457606 -288.7525312312008
2021.7506054403284 -316.11906214662304 -376.73602800075133
2177.7721123705574 -353.70939999861525 -421.5344481826933
2140.358832820477 -353.20120032144575 -420.92879939167136
2050.6962558306564 -324.6983456268103 -386.9604199101487
2120.6382885378107 -315.30345859816305 -375.7640295417416
2190.7617118713033 -313.86828075517246 -374.0536511913459
2111.2062159588177 -284.9604923853346 -339.6026905476384
2088.7070493523715 -270.7336009556598 -322.64774157487574
1907.8676792785068 -233.4009297710092 -278.1563965694299
2002.100308544016 -237.20223270849613 -282.68661300171885
2044.729531179202 -236.70649122330502 -282.0958113057443
2223.087277965228 -241.75981108051056 -288.11812340009675
2404.068660643541 -256.10427019162614 -305.2131840795895
2340.2222310254338 -244.09094993621903 -290.8962665062233
2553.492239356481 -262.02844334978 -312.2733387239696
2714.4276359268993 -262.66493857707746 -313.03188419777035
2792.3332016912245 -262.3956448724725 -312.71095245784437
2867.909688599834 -263.70567502391094 -314.272185597228
2951.013560778135 -265.1496700762361 -315.9930718885247
3035.1180234177664 -267.50172535829387 -318.79614222089725
3122.963883339764 -270.7626001812973 -322.6823015062116
3206.356379476522 -273.69280419682013 -326.17438266874495
3099.2662311950194 -263.8297656969222 -314.4200711025965
3178.103363072773 -264.4096841739015 -315.11119103094836
3254.962792429068 -268.43785751961747 -319.91178108729764
3329.263922292746 -273.08989504300655 -325.4558635186797
3397.5654576972765 -275.11542735055326 -327.8697989231141
3648.5387902667912 -295.03054515796816 -351.6037121170378
3685.6930852188502 -295.5259509471224 -352.1941137460543
3693.2468450466067 -293.7486006251087 -350.07595011449604
3664.1591777264 -292.14393675893143 -348.1635861870732
3583.9483027815836 -281.24178084379633 -335.17090270818863
3424.6274353477056 -263.6467545714305 -314.2019669363071
3203.953594947941 -244.79790695965167 -291.7387850787089
2972.944030254815 -225.72119540042488 -269.0040455431167
2739.8489762807917 -209.1342309150476 -249.23647102743575
2482.5762938270195 -188.33227444518687 -224.4456646714908
2230.963816897045 -168.17078156768815 -200.41813310266903
1971.6667855783562 -148.37325137036575 -176.82435536551762
1729.110603952455 -129.4870110949408 -154.31661066668246

VECTORS D float
90.6628692871439 -19.406500464789495 -24.27326964460887
59.15095305920176 -23.56610337154404 -29.129717615359457
12.062974366216077 -6.98645529199865 -8.59786424785398
525.6993817807671 -397.40826127605885 -487.939965206136
510.16513614889044 -474.167060414907 -581.2338601642984
468.3947634270058 -514.5272004377994 -629.9433509167233
406.82404693447114 -513.967259710963 -628.618263235238
342.8043809449605 -488.1955994445616 -596.7065771328948
306.1429756493109 -483.70644806593407 -590.7840537372764
318.5050514787586 -551.4897227201678 -673.0725870001689
355.9894465513712 -668.296582500622 -815.3583396450188
352.86673975830456 -712.2989688525397 -868.7552572776232
319.2727300067662 -688.2037158561691 -839.0886269969193
276.3526796616928 -632.3565569257153 -770.7405553384757
257.1588064183243 -621.5085942783863 -757.2682522615636
243.29850767705912 -618.3478018658361 -753.1714027461536
213.5107843629919 -568.4296100046143 -692.1792706900934
195.01213897697167 -541.9025764955808 -659.6929306388726
163.77886578447607 -473.5897388301843 -576.3843582999833
160.5198219731833 -481.6937559469717 -586.1107311401832
154.27059052025734 -479.2304646902834 -582.9889111227234
155.49638736861453 -498.81257407027795 -606.6979888593669
159.4439294799264 -527.0034517119577 -640.8849507158594
147.54454970932935 -501.49245644519954 -609.762559932288
153.7873199614077 -536.5346777268977 -652.2623931214739
153.50585185009774 -548.7647931607296 -667.0178447333127
150.66466114872892 -550.9963995408903 -669.6148197851631
148.48557875795566 -554.6654629414402 -673.954889898337
146.84498987609834 -559.4118879596185 -679.6546882950538
145.67604801887575 -565.2813615333798 -686.6560296617905
145.03731183020167 -572.5431097651021 -695.3440348859571
144.3944840543975 -579.1800194143501 -703.2684098347125
136.36164781060904 -555.1434952363047 -673.9504196390221
135.5669943991181 -559.5819522132505 -679.2050971357274
135.68240816948872 -567.2909033585473 -688.4260854140687
136.0135643930404 -575.4928414402949 -698.2417150272129
135.74102691701512 -580.7270068494072 -704.4542342662453
143.4805651843664 -620.1654217417071 -752.1495114480992
142.3641244311235 -621.2112120040744 -753.2744669994777
140.29221040567745 -617.5685560350421 -748.7183125267919
137.6867740953961 -611.0281227493525 -740.6555961755965
132.18437814742998 -591.1442078692728 -716.3632995352259
123.94020819542979 -558.0844313264031 -676.1843079306564
114.4882523214402 -518.7572538726491 -628.4323095641058
105.04170742449197 -478.6631530114819 -579.7729019983493
96.31224476352577 -441.13468283510343 -534.2414960525447
86.43622621450578 -397.7128025271328 -481.5925013736504
76.98880343425634 -355.6747920649935 -430.6381300247141
67.63641536585631 -313.56647748924723 -379.6156188236958
58.92209976471383 -273.98445235945815 -331.6663905474256
90.6628692871439 -19.406500464789495 -24.27326964460887
59.15095305920176 -23.56610337154404 -29.129717615359457
12.062974366216077 -6.98645529199865 -8.59786424785398
525.6993817807671 -397.40826127605885 -487.939965206136
510.16513614889044 -474.167060414907 -581.2338601642984
468.3947634270058 -514.5272004377994 -629.9433509167233
406.82404693447114 -513.967259710963 -628.618263235238
342.8043809449605 -488.1955994445616 -596.7065771328948
306.1429756493109 -483.70644806593407 -590.7840537372764
318.5050514787586 -551.4897227201678 -673.0725870001689
355.9894465513712 -668.296582500622 -815.3583396450188
352.86673975830456 -712.2989688525397 -868.7552572776232
319.2727300067662 -688.2037158561691 -839.0886269969193
276.3526796616928 -632.3565569257153 -770.7405553384757
257.1588064183243 -621.5085942783863 -757.2682522615636
243.29850767705912 -618.3478018658361 -753.1714027461536
213.5107843629919 -568.4296100046143 -692.1792706900934
195.01213897697167 -541.9025764955808 -659.6929306388726
163.77886578447607 -473.5897388301843 -576.3843582999833
160.5198219731833 -481.6937559469717 -586.1107311401832
154.27059052025734 -479.2304646902834 -582.9889111227234
155.49638736861453 -498.81257407027795 -606.6979888593669
159.4439294799264 -527.0034517119577 -640.8849507158594
147.54454970932935 -501.49245644519954 -609.762559932288
153.7873199614077 -536.5346777268977 -652.2623931214739
153.50585185009774 -548.7647931607296 -667.0178447333127
150.66466114872892 -550.9963995408903 -669.6148197851631
148.48557875795566 -554.6654629414402 -673.954889898337
146.84498987609834 -559.4118879596185 -679.6546882950538
145.67604801887575 -565.2813615333798 -686.6560296617905
145.03731183020167 -572.5431097651021 -695.3440348859571
144.3944840543975 -579.1800194143501 -703.2684098347125
136.36164781060904 -555.1434952363047 -673.9504196390221
135.5669943991181 -559.5819522132505 -679.2050971357274
135.68240816948872 -567.2909033585473 -688.4260854140687
136.0135643930404 -575.4928414402949 -698.2417150272129
135.74102691701512 -580.7270068494072 -704.4542342662453
143.4805651843664 -620.1654217417071 -752.1495114480992
142.3641244311235 -621.2112120040744 -753.2744669994777
140.29221040567745 -617.5685560350421 -748.7183125267919
137.6867740953961 -611.0281227493525 -740.6555961755965
132.18437814742998 -591.1442078692728 -716.3632995352259
123.94020819542979 -558.0844313264031 -676.1843079306564
114.4882523214402 -518.7572538726491 -628.4323095641058
105.04170742449197 -478.6631530114819 -579.7729019983493
96.31224476352577 -441.13468283510343 -534.2414960525447
86.43622621450578 -397.7128025271328 -481.5925013736504
76.98880343425634 -355.6747920649935 -430.6381300247141
67.63641536585631 -313.56647748924723 -379.6156188236958
58.92209976471383 -273.98445235945815 -331.6663905474256

VECTORS L float
24.133446719683636 44.692989336185484 54.40853360118864
79.24921010273401 79.90922889158253 96.27683987185203
129.78686362541123 90.71433458771708 108.38086519882104
736.9789411396054 388.63386896214445 477.4830516431974
780.6322777004958 333.261904835962 413.30963478804426
915.8217432755073 330.6915159690761 410.8565135041061
1061.030615839398 333.72347085654883 413.8120803251971
1115.5181751320176 311.4382127688755 386.0553265445814
1168.5034787831848 294.0505742558983 364.76098476757164
1347.5283358444292 309.19758026256187 384.32005576896825
1665.761158888957 352.1775203539989 438.62231164426737
1824.9053726122531 358.5895688539244 447.22080909492996
1821.0861028137108 335.00251553472305 418.15982760524764
1774.343576168964 307.65821129890514 383.780135428327
1863.4794821194864 306.20513568022346 381.504222719822
1947.4632041942446 304.47952111066365 379.11775155480774
1897.6954315958264 283.4691176192798 352.57658014245504
1893.6949103753998 271.168975539921 337.045189063997
1744.0888134940308 240.18880905917527 298.2279617305536
1841.580486570833 244.49152323847557 303.42411813846456
1890.4589406589446 242.52397346697842 300.893099816979
2067.590890596614 257.05276298976736 318.5798654592701
2244.6247311636153 270.8991815203316 335.67176663627
2192.677681316104 257.4015065089805 318.86629342606466
2399.704919395074 274.50623437711766 339.9890543975044
2560.9217840768024 286.0998545836521 353.9859605355424
2641.6685405424955 288.6007546684179 356.90386732731884
2719.4241098418793 290.95978791752935 359.68270430110914
2804.168570902037 294.26221788338256 363.6616164065293
2889.4419753988905 297.779636175086 367.85988744089326
2977.926571509562 301.78050958380476 372.66173337974544
3061.961895422124 305.48721521753004 377.0940271659675
2962.90458338441 291.3137295393825 359.53034853642555
3042.5363686736555 295.172268039349 364.0939061047791
3119.280384259579 298.85304583893003 368.5143043267712
3193.2503578997057 302.40294639728853 372.78585150853326
3261.8244307802615 305.611579498854 376.58443534313125
3505.058225082426 325.134876583739 400.5457993310614
3543.3289607877277 325.6852610569523 401.08035325342365
3552.9546346409293 323.8199554099333 398.64236241229565
3526.472403631004 318.88418599042126 392.4920099885234
3451.7639246341537 309.90242702547647 381.1923968270373
3300.6872271522766 294.43767675497253 361.98234099434916
3089.4653426265004 273.95934691299726 336.69352448539667
2867.9023228303236 252.941957611057 310.76885645523254
2643.536731517267 232.00045192005604 285.00502502510926
2396.1400676125145 209.380528081946 257.1468367021597
2153.9750134627884 187.50401049730522 230.21999692204497
1904.0303702125002 165.19322611888157 202.7912634581782
1670.1885041877415 144.49744126451733 177.34977988074314
24.133446719683636 44.692989336185484 54.40853360118864
79.24921010273401 79.90922889158253 96.27683987185203
129.78686362541123 90.71433458771708 108.38086519882104
736.9789411396054 388.63386896214445 477.4830516431974