# vtk DataFile Version 4.0
[MyVLM domain - lattices] 
ASCII
DATASET UNSTRUCTURED_GRID
POINTS 152 float
0.0 1.059045966330403 -1.9817278671778151
0.0 0.43788291770330073 -4.135531479843076
0.0 -0.20295224864054373 -6.238462789955433
0.0 -0.8231218660963175 -8.305203507478794
0.0 -1.4223027108862203 -10.33587127624728
0.0 -2.035184461547828 -12.317840085836954
0.0 -2.690502347340432 -14.240651168122616
0.0 -3.3956734784869584 -16.10160491575886
0.0 -4.105466389801713 -17.91716423572551
0.0 -4.80136071954955 -19.694069988422015
0.0 -5.483589702192505 -21.432237283446582
0.0 -6.1524946741478495 -23.131541884503452
0.0 -6.808451015954279 -24.791847164250022
0.0 -7.454548032458421 -26.412028707677546
0.0 -8.088724674859591 -27.992836675200834
0.0 -8.706463062490391 -29.535915440904798
0.0 -9.307090682906487 -31.04150977930134
0.0 -9.891715776910871 -32.50921632372578
0.0 -10.461136771866958 -33.938744470383604
0.0 -11.015353437538085 -35.330094303074105
0.0 -11.55436554983634 -36.68326590335862
0.0 -12.078172890822568 -37.998259350560495
0.0 -12.586775248706367 -39.27507472176515
0.0 -13.080172417846091 -40.51371209182003
0.0 -13.558364198748842 -41.71417153333459
0.0 -14.021350398070481 -42.87645311668035
0.0 -14.469130828615619 -44.00055690999086
0.0 -14.901705309337618 -45.08648297916173
0.0 -15.3190721646109 -46.13423193407076
0.0 -15.721210612385049 -47.14381133876572
0.0 -16.108116428046145 -48.11522273088033
0.0 -16.47979258518118 -49.04846502811744
0.0 -16.836241940511265 -49.943537190715595
0.0 -17.177467233891655 -50.80043822144903
0.0 -17.503471088311738 -51.61916716562769
0.0 -17.814256009895047 -52.399723111097195
0.0 -18.110220928798153 -53.14196085915501
0.0 -18.392627332933326 -53.84542126575019
0.0 -18.663477028639928 -54.50937573296043
0.0 -18.923811381389584 -55.13344523475107
0.0 -19.17290073450401 -55.71789534443426
0.0 -19.41098383954063 -56.26263916354968
0.0 -19.64912715563781 -56.76364883037224
0.0 -19.887079463422673 -57.221015781275966
0.0 -20.116461864823634 -57.63778968575485
0.0 -20.331564377370004 -58.01604880746639
0.0 -20.53094117278245 -58.35631938486816
0.0 -20.715974478634767 -58.65809832826628
0.0 -20.885452640103654 -58.921826643950645
0.0 -21.03697522711047 -59.148378017019354
0.0 -21.168464255408036 -59.33850877188561
-0.7686761955390344 -1.9977039969073667 -0.8691618669649598
-0.8409029948616161 -2.9018103930880903 -2.9199825231370657
-0.8940476007249757 -3.7554629137575684 -4.945454650939609
-0.9506443374492793 -4.602701446269433 -6.92954904225543
-1.0210144815146838 -5.4421702701460415 -8.872759138984378
-1.048631451549771 -6.245190251722468 -10.785523292125024
-0.9920275022819518 -6.992214894938206 -12.674955844427597
-0.9074715353829097 -7.6643846843437995 -14.54792109814838
-0.8388231939293685 -8.299399509460091 -16.39069741566667
-0.7803448823218929 -8.91640795237877 -18.196315283072675
-0.7251531968841737 -9.517504664950916 -19.964012309441465
-0.671766762046156 -10.105648130273558 -21.692711694987132
-0.6188683613166902 -10.67686420780026 -23.383859908575374
-0.5668565661826578 -11.229847762077648 -25.0379319806629
-0.5162677046190278 -11.765385688101402 -26.654641504893803
-0.4681223452427161 -12.288769257009559 -28.23206261607239
-0.42442582165628834 -12.800607396830639 -29.769973682521474
-0.3846819074085718 -13.299787842480535 -31.268779535624287
-0.3476243488905531 -13.785605021808639 -32.72873698264178
-0.3131098246080671 -14.258109919165088 -34.14982746678808
-0.28048746260446866 -14.717389101894945 -35.53201948012633
-0.2502235469699514 -15.163431503450555 -36.87531705055047
-0.2227998260917326 -15.596237559345433 -38.17972001954655
-0.19746739264611052 -16.01589190531418 -39.44519758222641
-0.17533279734900953 -16.422360806344194 -40.671762017130504
-0.15613374469432648 -16.815699287496837 -41.859393296774336
-0.13998404755873647 -17.19593674801589 -43.00808072070828
-0.12578653595324127 -17.563150814223373 -44.117796035261726
-0.11250427274737486 -17.917398705582162 -45.18851841425336
-0.10008179164308317 -18.25869167079998 -46.220243763488384
-0.08845752889585208 -18.5870378852029 -47.21296910739147
-0.07764231497362577 -18.902441625785034 -48.16669288926407
-0.06766212708627829 -19.204907010267107 -49.08141361037839
-0.0584684819534103 -19.494440160394678 -49.957129042601274
-0.050013688763705585 -19.771046608460026 -50.793837172343004
-0.042252254921319045 -20.0347313025465 -51.591536198648534
-0.03513536582041269 -20.28518920243614 -52.35033714707743
-0.028615518964613278 -20.52143862997407 -53.070597319257736
-0.022687693716904638 -20.740840709589868 -53.75327718734899
-0.017408965386693863 -20.942030504392942 -54.39887354775102
-0.013252482528008399 -21.127229524208676 -55.006577837012266
-0.010166684094042405 -21.296324268476717 -55.576431365958264
-0.00760098697125575 -21.436200492219648 -56.11320732940567
-0.005464879873870877 -21.546815381512356 -56.616921310348836
-0.0039015967321000085 -21.63805209448986 -57.08397613340606
-0.002883995165670249 -21.716452161337926 -57.51199087630318
-0.0022477517166190047 -21.78317372536051 -57.90054400935056
-0.00179874084072329 -21.835734759325117 -58.25053891658142
-0.0014595970466816986 -21.875127127275825 -58.561614589007306
-0.0012027506489664258 -21.90397318807894 -58.832816566057346
-0.0010073243559101815 -21.92454302581951 -59.06331860469525
-0.603592196400244 -1.6502017857440836 -2.1855865646658708
-0.6506064733449719 -2.467111156434278 -4.246288224003567
-0.6917594768153456 -3.262570899352233 -6.271084672127418
-0.7393720571114861 -4.04750496577862 -8.255999915930687
-0.7761172248991705 -4.814946092254947 -10.203569831926554
-0.7652471076868961 -5.554737781108785 -12.11749108295218
-0.712312139124323 -6.256996820459175 -14.001360863951176
-0.6548605234921042 -6.924061556212543 -15.854328086616187
-0.607188028594223 -7.569281186858482 -17.671534040045692
-0.564561779702275 -8.19833603421639 -19.450911256176376
-0.5238449845988737 -8.813192845251722 -21.191743897654476
-0.48398817126106725 -9.41356033804045 -22.894137982430124
-0.4446468478122555 -9.997891869755803 -24.558656442455298
-0.4061716015506322 -10.566121632231896 -26.18532322994356
-0.369146268698154 -11.119706571585358 -27.773608059875524
-0.3347055625871267 -11.660210463364683 -29.322941764498466
-0.3034153983993225 -12.18749902221886 -30.83337321968305
-0.27461484611217185 -12.70112889270567 -32.30506379361344
-0.24777531506198255 -13.200954379040779 -33.738066515218414
-0.22259898270470088 -13.687027006319315 -35.132362630897
-0.19901662859040753 -14.159375032086928 -36.48794185574369
-0.1773837648981315 -14.61799441598961 -37.80480566032709
-0.15760020702669117 -15.062917007566414 -39.08294245236301
-0.13980007124817 -15.494161843946259 -40.322345302903166
-0.124299953266251 -15.911736859792804 -41.52301132396618
-0.11104417209489861 -16.315673666653034 -42.684929009889885
-0.09966396881699166 -16.706012353083874 -43.80808376963283
-0.08935905326273105 -17.08280325417064 -44.89245728272221
-0.07971977414642176 -17.446069238267796 -45.93804122575771
-0.07070224520210072 -17.795814463554976 -46.9448340852857
-0.06228744145105419 -18.13204344327389 -47.912834218620546
-0.05448916577246402 -18.454760054231105 -48.84204021472005
-0.04729897838988322 -18.76396883579853 -49.732450421387945
-0.04068081401891846 -19.059674828595934 -50.58406300398869
-0.03459972888188424 -19.341882603903294 -51.39687629871243
-0.029020357778149403 -19.610529806705138 -52.17091300092876
-0.023906581794384738 -19.865341469870263 -52.90627319048884
-0.019238704755569217 -20.105367797533134 -53.603302564816346
-0.015036247163849435 -20.329487756497244 -54.262409146626446
-0.011498042968013347 -20.538061525212306 -54.8834618416844
-0.00878218748326905 -20.7318182440126 -55.46619526461193
-0.006662876649486808 -20.90721065965844 -56.011900510001716
-0.004899700066922485 -21.060656780032062 -56.52188131636396
-0.0035124287272390825 -21.19476796953162 -56.995187224786946
-0.0025445969616638467 -21.313942376209624 -57.43021744029362
-0.0019244050808584702 -21.42017290128097 -57.826246606161966
-0.0015174347090033604 -21.51295513818426 -58.18345831136629
-0.0012218767077768707 -21.591751597317657 -58.5020481861229
-0.0009983803858680466 -21.6574661016598 -58.781687265770486
-0.0008287781268287279 -21.711373515526727 -59.02191153764532

CELLS 100 350
4 0 51 52 1
4 1 52 53 2
4 2 53 54 3
4 3 54 55 4
4 4 55 56 5
4 5 56 57 6
4 6 57 58 7
4 7 58 59 8
4 8 59 60 9
4 9 60 61 10
4 10 61 62 11
4 11 62 63 12
4 12 63 64 13
4 13 64 65 14
4 14 65 66 15
4 15 66 67 16
4 16 67 68 17
4 17 68 69 18
4 18 69 70 19
4 19 70 71 20
4 20 71 72 21
4 21 72 73 22
4 22 73 74 23
4 23 74 75 24
4 24 75 76 25
4 25 76 77 26
4 26 77 78 27
4 27 78 79 28
4 28 79 80 29
4 29 80 81 30
4 30 81 82 31
4 31 82 83 32
4 32 83 84 33
4 33 84 85 34
4 34 85 86 35
4 35 86 87 36
4 36 87 88 37
4 37 88 89 38
4 38 89 90 39
4 39 90 91 40
4 40 91 92 41
4 41 92 93 42
4 42 93 94 43
4 43 94 95 44
4 44 95 96 45
4 45 96 97 46
4 46 97 98 47
4 47 98 99 48
4 48 99 100 49
4 49 100 101 50
1 102
1 103
1 104
1 105
1 106
1 107
1 108
1 109
1 110
1 111
1 112
1 113
1 114
1 115
1 116
1 117
1 118
1 119
1 120
1 121
1 122
1 123
1 124
1 125
1 126
1 127
1 128
1 129
1 130
1 131
1 132
1 133
1 134
1 135
1 136
1 137
1 138
1 139
1 140
1 141
1 142
1 143
1 144
1 145
1 146
1 147
1 148
1 149
1 150
1 151

CELL_TYPES 100
9
9
9
9
9
9
9
9
9
9
9
9
9
9
9
9
9
9
9
9
9
9
9
9
9
9
9
9
9
9
9
9
9
9
9
9
9
9
9
9
9
9
9
9
9
9
9
9
9
9
1
1
1
1
1
1
1
1
1
1
1
1
1
1
1
1
1
1
1
1
1
1
1
1
1
1
1
1
1
1
1
1
1
1
1
1
1
1
1
1
1
1
1
1
1
1
1
1
1
1

CELL_DATA 100

VECTORS S float
-0.0 -0.0 -0.0
-0.0 -0.0 -0.0
4.8650924396819534e-17 3.506119502085904e-15 6.1799560725617606e-15
0.0 -0.0 -0.0
0.0 -0.0 -0.0
4.318526706001981e-17 -6.923825944429914e-15 -1.2409962169987755e-14
-3.7014664477047017e-17 6.936030105117989e-15 1.2403165242472972e-14
0.0 -0.0 -0.0
3.525708239951469e-17 -6.950869916912436e-15 -1.2394860066692221e-14
7.826000954615636e-17 -1.391002839626043e-14 -2.4785046950378172e-14
0.0 -0.0 -0.0
8.249807833845595e-17 -1.3925633898628639e-14 -2.4776268515148763e-14
-1.6526586708351608e-16 2.786469596016731e-14 4.954498636618924e-14
-7.760839285947117e-17 1.3939552935925262e-14 2.476845590322924e-14
-1.422747117721271e-16 2.789264064239818e-14 4.952933094324706e-14
0.0 -0.0 -0.0
0.0 -0.0 -0.0
0.0 -0.0 -0.0
0.0 -0.0 -0.0
5.3120241503481304e-17 -1.3964525302284105e-14 -2.475444966603228e-14
0.0 -0.0 -0.0
0.0 -0.0 -0.0
0.0 -0.0 -0.0
-4.4144520678308915e-17 1.3978258830705387e-14 2.4746714898535868e-14
0.0 -0.0 -0.0
0.0 -0.0 -0.0
0.0 -0.0 -0.0
3.6880419204939566e-17 -1.3991087272562946e-14 -2.4739476221466827e-14
-3.55961653197043e-17 1.3993867687332801e-14 2.4737905469314768e-14
0.0 -0.0 -0.0
0.0 -0.0 -0.0
0.0 -0.0 -0.0
-3.2184808243842176e-17 1.4003427508561788e-14 2.4732499855390462e-14
3.110628796996058e-17 -1.4006270616667528e-14 -2.4730891264931005e-14
3.03959909317539e-17 -1.4009073639336564e-14 -2.4729304454385628e-14
0.0 -0.0 -0.0
2.9128479460498336e-17 -1.4013848003121682e-14 -2.472660070902191e-14
0.0 -0.0 -0.0
-2.8028351390996996e-17 1.4018996514942445e-14 2.4723683343544627e-14
0.0 -0.0 -0.0
2.7126821077826718e-17 -1.4023817629841244e-14 -2.4720950025572403e-14
0.0 -0.0 -0.0
-2.563695951012756e-17 1.4028328814430368e-14 2.47183919454087e-14
-2.515614372614934e-17 1.4030380665958412e-14 2.4717227847860473e-14
-2.4733002470015448e-17 1.4032292412952137e-14 2.4716143001332365e-14
2.462175646578959e-17 -1.4034022264321686e-14 -2.4715160930083947e-14
0.0 -0.0 -0.0
0.0 -0.0 -0.0
-1.183840314305586e-17 7.019177933284933e-15 1.2356350299731547e-14
0.0 -0.0 -0.0
-0.0 -0.0 -0.0
-0.0 -0.0 -0.0
4.8650924396819534e-17 3.506119502085904e-15 6.1799560725617606e-15
0.0 -0.0 -0.0
0.0 -0.0 -0.0
4.318526706001981e-17 -6.923825944429914e-15 -1.2409962169987755e-14
-3.7014664477047017e-17 6.936030105117989e-15 1.2403165242472972e-14
0.0 -0.0 -0.0
3.525708239951469e-17 -6.950869916912436e-15 -1.2394860066692221e-14
7.826000954615636e-17 -1.391002839626043e-14 -2.4785046950378172e-14
0.0 -0.0 -0.0
8.249807833845595e-17 -1.3925633898628639e-14 -2.4776268515148763e-14
-1.6526586708351608e-16 2.786469596016731e-14 4.954498636618924e-14
-7.760839285947117e-17 1.3939552935925262e-14 2.476845590322924e-14
-1.422747117721271e-16 2.789264064239818e-14 4.952933094324706e-14
0.0 -0.0 -0.0
0.0 -0.0 -0.0
0.0 -0.0 -0.0
0.0 -0.0 -0.0
5.3120241503481304e-17 -1.3964525302284105e-14 -2.475444966603228e-14
0.0 -0.0 -0.0
0.0 -0.0 -0.0
0.0 -0.0 -0.0
-4.4144520678308915e-17 1.3978258830705387e-14 2.4746714898535868e-14
0.0 -0.0 -0.0
0.0 -0.0 -0.0
0.0 -0.0 -0.0
3.6880419204939566e-17 -1.3991087272562946e-14 -2.4739476221466827e-14
-3.55961653197043e-17 1.3993867687332801e-14 2.4737905469314768e-14
0.0 -0.0 -0.0
0.0 -0.0 -0.0
0.0 -0.0 -0.0
-3.2184808243842176e-17 1.4003427508561788e-14 2.4732499855390462e-14
3.110628796996058e-17 -1.4006270616667528e-14 -2.4730891264931005e-14
3.03959909317539e-17 -1.4009073639336564e-14 -2.4729304454385628e-14
0.0 -0.0 -0.0
2.9128479460498336e-17 -1.4013848003121682e-14 -2.472660070902191e-14
0.0 -0.0 -0.0
-2.8028351390996996e-17 1.4018996514942445e-14 2.4723683343544627e-14
0.0 -0.0 -0.0
2.7126821077826718e-17 -1.4023817629841244e-14 -2.4720950025572403e-14
0.0 -0.0 -0.0
-2.563695951012756e-17 1.4028328814430368e-14 2.47183919454087e-14
-2.515614372614934e-17 1.4030380665958412e-14 2.4717227847860473e-14
-2.4733002470015448e-17 1.4032292412952137e-14 2.4716143001332365e-14
2.462175646578959e-17 -1.4034022264321686e-14 -2.4715160930083947e-14
0.0 -0.0 -0.0
0.0 -0.0 -0.0
-1.183840314305586e-17 7.019177933284933e-15 1.2356350299731547e-14
0.0 -0.0 -0.0

SCALARS Gamma float
LOOKUP_TABLE default
-0.0
-0.0
-0.0
51.889632916719535
55.80545647242602
55.779733473697426
53.424124847545926
48.59511327905143
45.405772088344605
48.221735176284334
55.10540623199983
55.75637580685266
52.06980655583507
47.26825726334216
46.24781308914364
45.44186865044167
41.834418512759626
39.69391804776002
34.96507268947033
35.32235020484472
34.7759997832089
36.31787395865131
37.85086877913871
35.63332610256102
37.68805841572282
38.9685855219061
39.07781343238536
39.16112774076828
39.348371722413376
39.61579807319843
39.92743489115306
40.20568728986588
38.172210284734795
38.468497951499174
38.77038910120664
39.073018839609716
39.312820565902236
41.66587665864452
41.56898897935489
41.17535367305409
40.425756034510734
39.16484241012835
37.08153191839175
34.407132964082905
31.70070867554932
29.01599400218237
26.137107945923383
23.352223816099805
20.5463200386164
17.949502816570952
-0.0
-0.0
-0.0
51.889632916719535
55.80545647242602
55.779733473697426
53.424124847545926
48.59511327905143
45.405772088344605
48.221735176284334
55.10540623199983
55.75637580685266
52.06980655583507
47.26825726334216
46.24781308914364
45.44186865044167
41.834418512759626
39.69391804776002
34.96507268947033
35.32235020484472
34.7759997832089
36.31787395865131
37.85086877913871
35.63332610256102
37.68805841572282
38.9685855219061
39.07781343238536
39.16112774076828
39.348371722413376
39.61579807319843
39.92743489115306
40.20568728986588
38.172210284734795
38.468497951499174
38.77038910120664
39.073018839609716
39.312820565902236
41.66587665864452
41.56898897935489
41.17535367305409
40.425756034510734
39.16484241012835
37.08153191839175
34.407132964082905
31.70070867554932
29.01599400218237
26.137107945923383
23.352223816099805
20.5463200386164
17.949502816570952

VECTORS Ftot float
117.75056738430337 34.5945517365427 -19.97317375758734
141.66913384136356 76.83734370833947 -44.362061073825544
144.85211431181082 113.88513316955793 -65.75161229214058
1302.6753810700825 -8.831907963752096 5.099104440330266
1331.1792707617478 -196.98058488889302 113.7267937107322
1423.9244510821452 -255.08275079788845 147.27209483879096
1503.0143913036156 -247.32552515032086 142.79345852300312
1490.1566142480312 -241.19900747615057 139.25631189462595
1501.612479936772 -257.87120736078487 148.8820109860028
1701.586851418265 -333.22779883711235 192.38915936007305
2073.8382048270887 -436.9531969598801 252.27504588805402
2234.2114775537575 -486.38995507253907 280.8173714922601
2212.8134705031284 -494.11565868165 285.27780855065953
2130.434862203953 -458.61207270974694 264.77980363258433
2204.679901040663 -446.10434087935846 257.5584612933579
2278.7538399018063 -444.83689730937255 256.82670240704385
2201.7666000595023 -405.2199566266567 233.95385103940845
2183.8856097876605 -386.9672596725539 223.41565153952058
2006.4751986907086 -335.27514416906075 193.5711947385976
2105.740411470169 -341.58815360507356 197.21601243587622
2148.6061330707626 -340.8793571703406 196.8067886234825
2324.0098949613616 -345.38906903883645 199.41047198472623
2499.674219995494 -364.2072051137226 210.27512791320873
2424.249971277698 -346.0391916811168 199.78582046725305
2636.6431970695317 -370.2418680001421 213.75924215515175
2801.9819018646303 -372.3575367252869 214.98072406313008
2881.5345398002833 -371.7045542938711 214.6037244805761
2956.487448059645 -373.08559143454437 215.40106664550467
3037.449229857762 -374.68217091166315 216.32285223640184
3122.717034601494 -377.92652078773665 218.1959785106982
3209.813748913227 -382.04490325745365 220.57372773821515
3292.650704155567 -385.77124807552383 222.7251339220213
3180.4518474890274 -371.0282971695419 214.21328724780324
3258.6174552222233 -372.50088588021396 215.06348673631535
3334.991712257944 -377.68827106815553 218.05842497096367
3409.70178495924 -384.12769878469953 221.77623029653748
3477.6045058633786 -386.5401955050731 223.16908592746427
3732.2876225945165 -413.41071897356557 238.68278988526458
3767.835572745184 -413.7709106871771 238.89074666807804
3773.403151416443 -410.9883301079754 237.2842230216341
3742.101904688109 -407.9553261553848 235.53311737315272
3660.0932212628163 -393.88408019528003 227.4090797302528
3496.346431389694 -369.11202588196255 213.10692750407895
3270.1224417420713 -342.59758273081195 197.79880661334914
3034.769013304617 -315.9320581165104 182.40345879919957
2795.4410041303795 -292.53621704166295 168.89586365671872
2532.8698848984313 -263.44459801080575 152.09980957809125
2274.7694336685327 -235.0705690338668 135.71805631026135
2010.3731762304742 -207.37826039052806 119.72989446054756
1763.0589397781491 -180.99107916434465 104.49524827645513
117.75056738430337 34.5945517365427 -19.97317375758734
141.66913384136356 76.83734370833947 -44.362061073825544
144.85211431181082 113.88513316955793 -65.75161229214058
1302.6753810700825 -8.831907963752096 5.099104440330266
1331.1792707617478 -196.98058488889302 113.7267937107322
1423.9244510821452 -255.08275079788845 147.27209483879096
1503.0143913036156 -247.32552515032086 142.79345852300312
1490.1566142480312 -241.19900747615057 139.25631189462595
1501.612479936772 -257.87120736078487 148.8820109860028
1701.586851418265 -333.22779883711235 192.38915936007305
2073.8382048270887 -436.9531969598801 252.27504588805402
2234.2114775537575 -486.38995507253907 280.8173714922601
2212.8134705031284 -494.11565868165 285.27780855065953
2130.434862203953 -458.61207270974694 264.77980363258433
2204.679901040663 -446.10434087935846 257.5584612933579
2278.7538399018063 -444.83689730937255 256.82670240704385
2201.7666000595023 -405.2199566266567 233.95385103940845
2183.8856097876605 -386.9672596725539 223.41565153952058
2006.4751986907086 -335.27514416906075 193.5711947385976
2105.740411470169 -341.58815360507356 197.21601243587622
2148.6061330707626 -340.8793571703406 196.8067886234825
2324.0098949613616 -345.38906903883645 199.41047198472623
2499.674219995494 -364.2072051137226 210.27512791320873
2424.249971277698 -346.0391916811168 199.78582046725305
2636.6431970695317 -370.2418680001421 213.75924215515175
2801.9819018646303 -372.3575367252869 214.98072406313008
2881.5345398002833 -371.7045542938711 214.6037244805761
2956.487448059645 -373.08559143454437 215.40106664550467
3037.449229857762 -374.68217091166315 216.32285223640184
3122.717034601494 -377.92652078773665 218.1959785106982
3209.813748913227 -382.04490325745365 220.57372773821515
3292.650704155567 -385.77124807552383 222.7251339220213
3180.4518474890274 -371.0282971695419 214.21328724780324
3258.6174552222233 -372.50088588021396 215.06348673631535
3334.991712257944 -377.68827106815553 218.05842497096367
3409.70178495924 -384.12769878469953 221.77623029653748
3477.6045058633786 -386.5401955050731 223.16908592746427
3732.2876225945165 -413.41071897356557 238.68278988526458
3767.835572745184 -413.7709106871771 238.89074666807804
3773.403151416443 -410.9883301079754 237.2842230216341
3742.101904688109 -407.9553261553848 235.53311737315272
3660.0932212628163 -393.88408019528003 227.4090797302528
3496.346431389694 -369.11202588196255 213.10692750407895
3270.1224417420713 -342.59758273081195 197.79880661334914
3034.769013304617 -315.9320581165104 182.40345879919957
2795.4410041303795 -292.53621704166295 168.89586365671872
2532.8698848984313 -263.44459801080575 152.09980957809125
2274.7694336685327 -235.0705690338668 135.71805631026135
2010.3731762304742 -207.37826039052806 119.72989446054756
1763.0589397781491 -180.99107916434465 104.49524827645513

VECTORS D float
93.4393319041084 -27.82387438888132 15.205377523672082
61.840633381663345 -33.87678375243235 18.782423805804985
13.95967640547408 -11.070915957141022 6.171047614917856
547.260345974206 -565.8692660493043 315.92611914132925
533.9603508273718 -677.2309441082597 378.85149584948454
489.0472209384217 -732.1944172733599 410.2112696069758
422.46830528405883 -726.8085014674976 407.70263642785227
355.3029538781889 -688.1403145882042 386.6559247167875
316.25295180875895 -679.0530165287479 381.7033282750015
330.94412273918795 -778.1338347194866 437.75440284483085
371.43680358166887 -946.7925544038203 532.995117215115
367.26508329270285 -1006.4831898827057 566.9221369010746
336.24962559713236 -983.8116220588156 554.4291023445396
293.12555772325874 -910.2320944554874 513.1921633606603
273.11649050935773 -895.5469810680727 505.11539758028516
258.70158133261145 -891.8143330246986 503.1930447891398
227.71666732719245 -822.1351435630816 464.03174231051844
208.87234081204588 -786.7971964546543 444.0016861481852
176.34635294781302 -691.232861014508 390.13577755368465
173.0049784936887 -703.7251081451952 397.3579407940718
166.23673906296779 -699.7522603841453 395.2261132462575
166.47660229589272 -723.5338269856221 408.7674014473414
169.82573110145557 -760.4744464357419 429.7465893268172
156.58952758654308 -721.0540089082876 407.56893100478067
162.6591007059928 -768.7928066827689 434.65421881394553
162.54686622192054 -787.2001642310246 445.16163274791705
159.4885562768901 -789.9170925319409 446.85398107665753
156.97759950201933 -794.1147572168845 449.33523138542375
154.98407763288225 -799.6438670921056 452.56973456425453
153.7372862515564 -807.7359052401067 457.1968092409678
152.87284986783538 -817.0237432996947 462.56291941251783
152.03436829080425 -825.5428232983396 467.4987405959331
143.3622709344175 -790.0210718747037 447.4928520022179
142.56256865408517 -796.4510804393719 451.2471401995186
142.53245905263768 -806.4741551083825 457.04028042177725
142.83950908294548 -817.744924692637 463.51382615553916
142.425968248789 -824.3353153669805 467.3613895027845
150.30515611015912 -878.7973920607704 498.35618059981863
149.01667680967518 -879.4776899987377 498.8565494656759
146.74222956544043 -873.6002795157608 495.6332677254482
143.8446165647519 -863.231322667969 489.8557974556807
138.30816432612377 -836.1407196822853 474.5806459418434
129.62794834177146 -788.9730022354903 447.89709589450916
119.69486250653276 -733.0183475100039 416.2091952699352
109.824618247574 -676.343354017345 384.0956903013072
100.63756310108042 -622.8958353190455 353.7995127576547
90.31179507445869 -561.5046209417002 318.9764646592673
80.38248660108862 -501.75846780892095 285.0737044545456
70.61142431061333 -442.2906096094051 251.31631414208437
61.512556078088906 -386.43323475821217 219.5993639949459
93.4393319041084 -27.82387438888132 15.205377523672082
61.840633381663345 -33.87678375243235 18.782423805804985
13.95967640547408 -11.070915957141022 6.171047614917856
547.260345974206 -565.8692660493043 315.92611914132925
533.9603508273718 -677.2309441082597 378.85149584948454
489.0472209384217 -732.1944172733599 410.2112696069758
422.46830528405883 -726.8085014674976 407.70263642785227
355.3029538781889 -688.1403145882042 386.6559247167875
316.25295180875895 -679.0530165287479 381.7033282750015
330.94412273918795 -778.1338347194866 437.75440284483085
371.43680358166887 -946.7925544038203 532.995117215115
367.26508329270285 -1006.4831898827057 566.9221369010746
336.24962559713236 -983.8116220588156 554.4291023445396
293.12555772325874 -910.2320944554874 513.1921633606603
273.11649050935773 -895.5469810680727 505.11539758028516
258.70158133261145 -891.8143330246986 503.1930447891398
227.71666732719245 -822.1351435630816 464.03174231051844
208.87234081204588 -786.7971964546543 444.0016861481852
176.34635294781302 -691.232861014508 390.13577755368465
173.0049784936887 -703.7251081451952 397.3579407940718
166.23673906296779 -699.7522603841453 395.2261132462575
166.47660229589272 -723.5338269856221 408.7674014473414
169.82573110145557 -760.4744464357419 429.7465893268172
156.58952758654308 -721.0540089082876 407.56893100478067
162.6591007059928 -768.7928066827689 434.65421881394553
162.54686622192054 -787.2001642310246 445.16163274791705
159.4885562768901 -789.9170925319409 446.85398107665753
156.97759950201933 -794.1147572168845 449.33523138542375
154.98407763288225 -799.6438670921056 452.56973456425453
153.7372862515564 -807.7359052401067 457.1968092409678
152.87284986783538 -817.0237432996947 462.56291941251783
152.03436829080425 -825.5428232983396 467.4987405959331
143.3622709344175 -790.0210718747037 447.4928520022179
142.56256865408517 -796.4510804393719 451.2471401995186
142.53245905263768 -806.4741551083825 457.04028042177725
142.83950908294548 -817.744924692637 463.51382615553916
142.425968248789 -824.3353153669805 467.3613895027845
150.30515611015912 -878.7973920607704 498.35618059981863
149.01667680967518 -879.4776899987377 498.8565494656759
146.74222956544043 -873.6002795157608 495.6332677254482
143.8446165647519 -863.231322667969 489.8557974556807
138.30816432612377 -836.1407196822853 474.5806459418434
129.62794834177146 -788.9730022354903 447.89709589450916
119.69486250653276 -733.0183475100039 416.2091952699352
109.824618247574 -676.343354017345 384.0956903013072
100.63756310108042 -622.8958353190455 353.7995127576547
90.31179507445869 -561.5046209417002 318.9764646592673
80.38248660108862 -501.75846780892095 285.0737044545456
70.61142431061333 -442.2906096094051 251.31631414208437
61.512556078088906 -386.43323475821217 219.5993639949459

VECTORS L float
24.311235480194973 62.41842612542401 -35.17855128125943
79.82850045970022 110.71412746077183 -63.14448487963055
130.89243790633674 124.95604912669894 -71.92265990705845
755.4150350958769 557.0373580855521 -310.827014700999
797.2189199343762 480.2503592193667 -265.1247021387524
934.8772301437238 477.1116664754716 -262.939174768185
1080.546086019557 479.4829763171768 -264.9091779048492
1134.8536603698426 446.94130711205383 -247.3996128221617
1185.3595281280132 421.18180916796314 -232.8213172889988
1370.6427286790772 444.9060358823743 -245.36524348475777
1702.4014012454202 509.83935744394034 -280.7200713270611
1866.9463942610548 520.0932348101668 -286.1047654088146
1876.5638449059966 489.69596337716587 -269.1512937938802
1837.3093044806947 451.6200217457406 -248.412359728076
1931.5634105313054 449.44264018871445 -247.5569362869273
2020.0522585691954 446.977435715326 -246.36634238209595
1974.0499327323098 416.9151869364252 -230.07789127111008
1975.013268975615 399.8299367821005 -220.58603460866465
1830.128845742895 355.9577168454472 -196.5645828150871
1932.7354329764805 362.1369545401218 -200.14192835819568
1982.3693940077947 358.87290321380493 -198.41932462277506
2157.533292665469 378.1447579467857 -209.35692946261528
2329.8484888940384 396.2672413220193 -219.47146141360844
2267.6604436911553 375.0148172271709 -207.7831105375277
2473.984096363539 398.55093868262674 -220.8949766587938
2639.4350356427094 414.84262750573777 -230.18090868478708
2722.0459835233933 418.2125382380698 -232.25025659608147
2799.509848557626 421.02916578234004 -233.93416473991903
2882.46515222488 424.9616961804425 -236.24688232785275
2968.979748349938 429.80938445237024 -239.00083073026977
3056.9408990453917 434.97884004224125 -241.9891916743029
3140.6163358647627 439.77157522281595 -244.7736066739118
3037.08957655461 418.99277470516176 -233.2795647544147
3116.0548865681385 423.9501945591579 -236.1836534632032
3192.4592532053066 428.78588404022724 -238.9818554508137
3266.8622758762945 433.61722590793767 -241.73759585900166
3335.17853761459 437.79511986190766 -244.1923035753204
3581.9824664843577 465.38667308720534 -259.6733907145543
3618.818895935509 465.7067793115605 -259.9658027975979
3626.660921851003 462.6119494077856 -258.3490447038142
3598.2572881233573 455.27599651258413 -254.32268008252785
3521.7850569366924 442.25663948700515 -247.17156621159046
3366.718483047922 419.8609763535276 -234.79016839043015
3150.4275792355393 390.4207647791919 -218.410388656586
2924.944395057043 360.41129590083426 -201.69223150210752
2694.803441029299 330.35961827738254 -184.90364910093598
2442.5580898239723 298.0600229308945 -166.87665508117604
2194.3869470674445 266.6878987750542 -149.3556481442843
1939.7617519198607 234.91234921887724 -131.58641968153685
1701.5463837000611 205.4421555938675 -115.10411571849075
24.311235480194973 62.41842612542401 -35.17855128125943
79.82850045970022 110.71412746077183 -63.14448487963055
130.89243790633674 124.95604912669894 -71.92265990705845
755.4150350958769 557.0373580855521 -310.827014700999
797.2189199343762 480.2503592193667 -265.1247021387524
934.8772301437238 477.1116664754716 -262.939174768185
1080.546086019557 479.4829763171768 -264.9091779048492