# vtk DataFile Version 4.0
[MyVLM domain - lattices] 
ASCII
DATASET UNSTRUCTURED_GRID
POINTS 152 float
0.0 -2.224430106385557 -0.31738683046912297
0.0 -4.035893192909062 1.0029597229297524
0.0 -5.792823691600215 2.324392667971831
0.0 -7.52281419148622 3.6140284375549694
0.0 -9.226085790652695 4.871603537241315
0.0 -10.878909351448954 6.125397252075236
0.0 -12.461628819415479 7.398834755575088
0.0 -13.969170592349258 8.697962531393712
0.0 -15.432474814661571 9.985907551273574
0.0 -16.864210159902612 11.247571877997826
0.0 -18.264217086304114 12.483145646041976
0.0 -19.632262106005363 13.692907115402848
0.0 -20.968088443595068 14.877162299099348
0.0 -22.269582890100384 16.038429621516762
0.0 -23.53815528593374 17.175028900278594
0.0 -24.776896043481912 18.2832771253203
0.0 -25.986265188350096 19.3626260594742
0.0 -27.16550463918175 20.41397914892045
0.0 -28.31406823949433 21.43798727760923
0.0 -29.431956146778976 22.434650257849906
0.0 -30.51916851432086 23.40396790696433
0.0 -31.575705491199127 24.345940047286874
0.0 -32.60156722228696 25.26056650616442
0.0 -33.59675384825153 26.147847115956367
0.0 -34.56126550555401 27.00778171403461
0.0 -35.49510232644958 27.840370142783566
0.0 -36.39826443898744 28.645612249600156
0.0 -37.27075196701076 29.42350788689381
0.0 -38.11256605671497 30.174055688682035
0.0 -38.92372092385977 30.897238713282107
0.0 -39.70421945825129 31.593053516757216
0.0 -40.454059625836216 32.261502523197684
0.0 -41.17323947250224 32.90258806142389
0.0 -41.861757124077975 33.516312364986305
0.0 -42.51961078633301 34.102677572165476
0.0 -43.14679874497789 34.66168572597202
0.0 -43.74304811571396 35.19366203724922
0.0 -44.30749598998809 35.699634880365345
0.0 -44.838773051618105 36.181236142799904
0.0 -45.33616696466827 36.63931475346345
0.0 -45.80017684370197 37.07327589078195
0.0 -46.230639373035416 37.48331418680828
0.0 -46.61998464878737 37.87845110168848
0.0 -46.9683845151297 38.25848183951341
0.0 -47.281570475901084 38.6165758599923
0.0 -47.56344838914756 38.948078342766664
0.0 -47.81500725965977 39.251810637824136
0.0 -48.03530158809192 39.52889954740687
0.0 -48.22516019515667 39.77835732145296
0.0 -48.386225071733094 39.99822711143323
0.0 -48.51991764276128 40.18681492906874
-0.7686761955390344 -0.13348998531095746 2.1744985707209086
-0.8409029948616161 -1.7514084232677962 3.725502654376492
-0.8940476007249757 -3.362763277901666 5.220425896218054
-0.9506443374492793 -4.937429492043098 6.695169941354418
-1.0210144815146838 -6.476334433116233 8.148629596326206
-1.048631451549771 -7.999095783934143 9.557425417162566
-0.9920275022819518 -9.519084135265086 10.905622954280323
-0.9074715353829097 -11.049200155463211 12.177847789821552
-0.8388231939293685 -12.563655601293956 13.40483315530773
-0.7803448823218929 -14.04935207117436 14.602189117882599
-0.7251531968841737 -15.504856738851773 15.771623253380321
-0.671766762046156 -16.928145882700445 16.915547339318778
-0.6188683613166902 -18.321937974958963 18.030721626641284
-0.5668565661826578 -19.687125780856967 19.116082159178067
-0.5162677046190278 -21.02317103251605 20.172270419606996
-0.4681223452427161 -22.32645428731019 21.203599891680817
-0.42442582165628834 -23.59655901393622 22.21056697807651
-0.3846819074085718 -24.834246046521095 23.192264951989912
-0.3476243488905531 -26.03999802484098 24.14811862573385
-0.3131098246080671 -27.21378007354639 25.078169562131365
-0.28048746260446866 -28.355532977085787 25.982488331528728
-0.2502235469699514 -29.4652643054236 26.861065912393645
-0.2227998260917326 -30.542973760651055 27.713902659759977
-0.19746739264611052 -31.588603448515975 28.54106756931073
-0.17533279734900953 -32.602176445126055 29.342533140011646
-0.15613374469432648 -33.58365511112256 30.11834422870375
-0.13998404755873647 -34.53301933623834 30.86852480187015
-0.12578653595324127 -35.450216020941824 31.593138141068373
-0.11250427274737486 -36.335206024815236 32.29223089203191
-0.10008179164308317 -37.187981653289306 32.965812224791314
-0.08845752889585208 -38.00853731411165 33.613888803933484
-0.07764231497362577 -38.79687008164599 34.236464116095945
-0.06766212708627829 -39.55297713920547 34.8335415180754
-0.0584684819534103 -40.27685429926948 35.40512600036455
-0.050013688763705585 -40.96849777752724 35.95122207292937
-0.042252254921319045 -41.6279041892904 36.47183376948438
-0.03513536582041269 -42.255282194357086 36.96671241896551
-0.028615518964613278 -42.85130330013376 37.43505775000868
-0.022687693716904638 -43.41777260382205 37.87471853153884
-0.017408965386693863 -43.955623777243865 38.284582056807956
-0.013252482528008399 -44.46333721818145 38.66645931721833
-0.010166684094042405 -44.94099056559064 39.02025778626543
-0.00760098697125575 -45.39755449136499 39.335286633492125
-0.005464879873870877 -45.83305828195412 39.611510956666855
-0.0039015967321000085 -46.24074145903433 39.85698758011955
-0.002883995165670249 -46.61612935242222 40.077049208116975
-0.0022477517166190047 -46.95842974544015 40.27263996773079
-0.00179874084072329 -47.26934044470772 40.44173649182257
-0.0014595970466816986 -47.54818297525991 40.58514735536936
-0.0012027506489664258 -47.7931635379861 40.705010324905636
-0.0010073243559101815 -48.00272930391804 40.80317598993301
-0.603592196400244 -1.4893773156288597 2.298197070969104
-0.6506064733449719 -3.146403998502208 3.7706422553356536
-0.6917594768153456 -4.777027024115091 5.210651077280527
-0.7393720571114861 -6.373773969702113 6.62712882347977
-0.7761172248991705 -7.941410724156596 8.014395728722858
-0.7652471076868961 -9.486884741057764 9.364172140247375
-0.712312139124323 -11.016956535493703 10.668401189909302
-0.6548605234921042 -12.530026584660291 11.92898911475689
-0.607188028594223 -14.016963498996141 13.156818281105298
-0.564561779702275 -15.47388170953564 14.356519329728568
-0.5238449845988737 -16.899435882120766 15.529695567442763
-0.48398817126106725 -18.293825265322333 16.676109539047797
-0.4446468478122555 -19.658107825142903 17.794500409759266
-0.4061716015506322 -20.992328577019148 18.88481453226882
-0.369146268698154 -22.295490911111795 19.94823961993279
-0.3347055625871267 -23.566525141946407 20.98605047425831
-0.3034153983993225 -24.805523126112973 21.99813762482424
-0.27461484611217185 -26.012788136595287 22.984139644962617
-0.24777531506198255 -27.188419835179424 23.943937762381847
-0.22259898270470088 -28.332382976624544 24.877573980724318
-0.19901662859040753 -29.44465823163102 25.785071335752292
-0.1773837648981315 -30.525248363963758 26.666426533739024
-0.15760020702669117 -31.574131587254943 27.521665538666618
-0.13980007124817 -32.591294879341454 28.350803869744762
-0.124299953266251 -33.57673281259368 29.153847995370548
-0.11104417209489861 -34.53042376343996 29.930823685513182
-0.09966396881699166 -35.45234030969233 30.68176362066369
-0.08935905326273105 -36.34244802012461 31.40670883435958
-0.07971977414642176 -37.20073125186104 32.10567796905423
-0.07070224520210072 -38.02718716053924 32.77867441452671
-0.06228744145105419 -38.82181265892005 33.425701850005396
-0.05448916577246402 -39.5846050951116 34.04676343589195
-0.04729897838988322 -40.31556136400063 34.64186287271625
-0.04068081401891846 -41.01467801760013 35.211004269629186
-0.03459972888188424 -41.68195192897047 35.754191353172345
-0.029020357778149403 -42.31742575145428 36.27137329107136
-0.023906581794384738 -42.921287573646815 36.76232592806714
-0.019238704755569217 -43.4941870941842 37.226274983475975
-0.015036247163849435 -44.03689114493552 37.66230658266297
-0.011498042968013347 -44.54915334933077 38.070714345790535
-0.00878218748326905 -45.0304749460067 38.45209267350519
-0.006662876649486808 -45.48328239908621 38.80354981847118
-0.004899700066922485 -45.9100259354843 39.12216571395985
-0.0035124287272390825 -46.30891927674951 39.41006916373312
-0.0025445969616638467 -46.67695391242729 39.67084557093357
-0.0019244050808584702 -47.01276661779931 39.90611956351676
-0.0015174347090033604 -47.316702427274414 40.11547994548638
-0.0012218767077768707 -47.589129005393936 40.298488551304445
-0.0009983803858680466 -47.829428100828466 40.4558821842139
-0.0008287781268287279 -48.03672765502584 40.58870012312724

CELLS 100 350
4 0 51 52 1
4 1 52 53 2
4 2 53 54 3
4 3 54 55 4
4 4 55 56 5
4 5 56 57 6
4 6 57 58 7
4 7 58 59 8
4 8 59 60 9
4 9 60 61 10
4 10 61 62 11
4 11 62 63 12
4 12 63 64 13
4 13 64 65 14
4 14 65 66 15
4 15 66 67 16
4 16 67 68 17
4 17 68 69 18
4 18 69 70 19
4 19 70 71 20
4 20 71 72 21
4 21 72 73 22
4 22 73 74 23
4 23 74 75 24
4 24 75 76 25
4 25 76 77 26
4 26 77 78 27
4 27 78 79 28
4 28 79 80 29
4 29 80 81 30
4 30 81 82 31
4 31 82 83 32
4 32 83 84 33
4 33 84 85 34
4 34 85 86 35
4 35 86 87 36
4 36 87 88 37
4 37 88 89 38
4 38 89 90 39
4 39 90 91 40
4 40 91 92 41
4 41 92 93 42
4 42 93 94 43
4 43 94 95 44
4 44 95 96 45
4 45 96 97 46
4 46 97 98 47
4 47 98 99 48
4 48 99 100 49
4 49 100 101 50
1 102
1 103
1 104
1 105
1 106
1 107
1 108
1 109
1 110
1 111
1 112
1 113
1 114
1 115
1 116
1 117
1 118
1 119
1 120
1 121
1 122
1 123
1 124
1 125
1 126
1 127
1 128
1 129
1 130
1 131
1 132
1 133
1 134
1 135
1 136
1 137
1 138
1 139
1 140
1 141
1 142
1 143
1 144
1 145
1 146
1 147
1 148
1 149
1 150
1 151

CELL_TYPES 100
9
9
9
9
9
9
9
9
9
9
9
9
9
9
9
9
9
9
9
9
9
9
9
9
9
9
9
9
9
9
9
9
9
9
9
9
9
9
9
9
9
9
9
9
9
9
9
9
9
9
1
1
1
1
1
1
1
1
1
1
1
1
1
1
1
1
1
1
1
1
1
1
1
1
1
1
1
1
1
1
1
1
1
1
1
1
1
1
1
1
1
1
1
1
1
1
1
1
1
1

CELL_DATA 100

VECTORS S float
-1.374329684362879e-17 -2.3143330186868323e-15 2.6954495513631766e-15
-0.0 -0.0 0.0
1.0100546283851135e-16 9.218625434770459e-15 -1.081457972953452e-14
-1.2901248282021e-19 5.808018957689884e-16 -6.719598547889155e-16
0.0 -0.0 0.0
8.927070309300654e-17 -1.8597786474199605e-14 2.1492043549834057e-14
7.705742101955656e-17 -1.857665734985015e-14 2.151035636167937e-14
7.234063750055222e-17 -1.8562052452682042e-14 2.1522977083163067e-14
0.0 -0.0 0.0
0.0 -0.0 0.0
-8.620962262374158e-17 1.8539119580214292e-14 -2.1542682749318813e-14
1.7620188027905268e-16 -3.707016313234537e-14 4.309229891783394e-14
1.7253327904488924e-16 -3.70497420975957e-14 4.310987254161778e-14
8.125514259277427e-17 -1.8519916313967456e-14 2.155921297895079e-14
7.487227502162888e-17 -1.8515178787457758e-14 2.1563304838480196e-14
0.0 -0.0 0.0
-1.9773514144860894e-16 5.5522856559007906e-14 -6.470946919005374e-14
0.0 -0.0 0.0
0.0 -0.0 0.0
5.5432523271591006e-17 -1.849743101274762e-14 2.1578589854536892e-14
5.358817409136229e-17 -1.8494969395894342e-14 2.158070439765221e-14
0.0 -0.0 0.0
-4.7676442221997706e-17 1.8487628987953715e-14 -2.1587006932572813e-14
9.234707843622015e-17 -3.6970501762490576e-14 4.3178093279255045e-14
0.0 -0.0 0.0
-4.238057946068668e-17 1.8482621220779595e-14 -2.159130574194132e-14
0.0 -0.0 0.0
-3.94714416413321e-17 1.8478458200144337e-14 -2.1594874194982695e-14
-3.8172098197841177e-17 1.8476309819077433e-14 -2.1596714687810697e-14
3.704532067650885e-17 -1.8474131732914098e-14 2.1598579844644148e-14
-3.604399722050006e-17 1.8471923646872013e-14 -2.1600470007865822e-14
7.017852439518921e-17 -3.6939366327023764e-14 4.320477471435213e-14
1.0261542308317562e-16 -5.539610254376292e-14 6.481823351151043e-14
0.0 -0.0 0.0
0.0 -0.0 0.0
0.0 -0.0 0.0
-3.108814726369719e-17 1.845655908732353e-14 -2.1613607452934617e-14
-3.0673702444056e-17 1.845435562843721e-14 -2.161548945569964e-14
-9.017865973584539e-17 5.535660076594534e-14 -6.485199088667912e-14
0.0 -0.0 0.0
5.842076811580481e-17 -3.689626772455224e-14 4.3241603610380616e-14
-2.8465941562877976e-17 1.8446183978435886e-14 -2.162246640118056e-14
0.0 -0.0 0.0
0.0 -0.0 0.0
2.6725580205963798e-17 -1.8440964084546772e-14 2.1626920638919788e-14
2.663862123949398e-17 -1.843950624217799e-14 2.1628163742556914e-14
2.626308261199806e-17 -1.8438145459803802e-14 2.1629324289027712e-14
0.0 -0.0 0.0
-1.2847484336216689e-17 9.21792376052719e-15 -1.0815641831340086e-14
1.27131470940608e-17 -9.217456307229389e-15 1.0816040372372283e-14
-1.374329684362879e-17 -2.3143330186868323e-15 2.6954495513631766e-15
-0.0 -0.0 0.0
1.0100546283851135e-16 9.218625434770459e-15 -1.081457972953452e-14
-1.2901248282021e-19 5.808018957689884e-16 -6.719598547889155e-16
0.0 -0.0 0.0
8.927070309300654e-17 -1.8597786474199605e-14 2.1492043549834057e-14
7.705742101955656e-17 -1.857665734985015e-14 2.151035636167937e-14
7.234063750055222e-17 -1.8562052452682042e-14 2.1522977083163067e-14
0.0 -0.0 0.0
0.0 -0.0 0.0
-8.620962262374158e-17 1.8539119580214292e-14 -2.1542682749318813e-14
1.7620188027905268e-16 -3.707016313234537e-14 4.309229891783394e-14
1.7253327904488924e-16 -3.70497420975957e-14 4.310987254161778e-14
8.125514259277427e-17 -1.8519916313967456e-14 2.155921297895079e-14
7.487227502162888e-17 -1.8515178787457758e-14 2.1563304838480196e-14
0.0 -0.0 0.0
-1.9773514144860894e-16 5.5522856559007906e-14 -6.470946919005374e-14
0.0 -0.0 0.0
0.0 -0.0 0.0
5.5432523271591006e-17 -1.849743101274762e-14 2.1578589854536892e-14
5.358817409136229e-17 -1.8494969395894342e-14 2.158070439765221e-14
0.0 -0.0 0.0
-4.7676442221997706e-17 1.8487628987953715e-14 -2.1587006932572813e-14
9.234707843622015e-17 -3.6970501762490576e-14 4.3178093279255045e-14
0.0 -0.0 0.0
-4.238057946068668e-17 1.8482621220779595e-14 -2.159130574194132e-14
0.0 -0.0 0.0
-3.94714416413321e-17 1.8478458200144337e-14 -2.1594874194982695e-14
-3.8172098197841177e-17 1.8476309819077433e-14 -2.1596714687810697e-14
3.704532067650885e-17 -1.8474131732914098e-14 2.1598579844644148e-14
-3.604399722050006e-17 1.8471923646872013e-14 -2.1600470007865822e-14
7.017852439518921e-17 -3.6939366327023764e-14 4.320477471435213e-14
1.0261542308317562e-16 -5.539610254376292e-14 6.481823351151043e-14
0.0 -0.0 0.0
0.0 -0.0 0.0
0.0 -0.0 0.0
-3.108814726369719e-17 1.845655908732353e-14 -2.1613607452934617e-14
-3.0673702444056e-17 1.845435562843721e-14 -2.161548945569964e-14
-9.017865973584539e-17 5.535660076594534e-14 -6.485199088667912e-14
0.0 -0.0 0.0
5.842076811580481e-17 -3.689626772455224e-14 4.3241603610380616e-14
-2.8465941562877976e-17 1.8446183978435886e-14 -2.162246640118056e-14
0.0 -0.0 0.0
0.0 -0.0 0.0
2.6725580205963798e-17 -1.8440964084546772e-14 2.1626920638919788e-14
2.663862123949398e-17 -1.843950624217799e-14 2.1628163742556914e-14
2.626308261199806e-17 -1.8438145459803802e-14 2.1629324289027712e-14
0.0 -0.0 0.0
-1.2847484336216689e-17 9.21792376052719e-15 -1.0815641831340086e-14
1.27131470940608e-17 -9.217456307229389e-15 1.0816040372372283e-14

SCALARS Gamma float
LOOKUP_TABLE default
-0.0
-0.0
-0.0
51.235175365876714
54.871582952410925
54.88097261799471
52.725492967531636
48.010744796228416
44.946583702234484
47.555683928618
54.13553593238423
54.76022833554106
50.8661031035265
46.00159622566728
44.98597987142784
44.187131319629856
40.59039026167328
38.423478663121074
33.707827671188284
34.052355136047225
33.53957043932746
35.171675252096215
36.789208627867836
34.7204165267177
36.80562239224027
38.11088592151749
38.22253082091235
38.33311033656134
38.54509844588896
38.81097106643252
39.14344774295469
39.438881552790214
37.43753952644568
37.75493729233447
38.07507013871448
38.38443016940194
38.63752960632659
40.99129391811054
40.91633492966322
40.54603960945505
39.82061026319804
38.587894618075396
36.54331964096892
33.91460679849958
31.24382417736536
28.607603175399987
25.769658716703233
23.033724541987915
20.26602355271845
17.70449256486247
-0.0
-0.0
-0.0
51.235175365876714
54.871582952410925
54.88097261799471
52.725492967531636
48.010744796228416
44.946583702234484
47.555683928618
54.13553593238423
54.76022833554106
50.8661031035265
46.00159622566728
44.98597987142784
44.187131319629856
40.59039026167328
38.423478663121074
33.707827671188284
34.052355136047225
33.53957043932746
35.171675252096215
36.789208627867836
34.7204165267177
36.80562239224027
38.11088592151749
38.22253082091235
38.33311033656134
38.54509844588896
38.81097106643252
39.14344774295469
39.438881552790214
37.43753952644568
37.75493729233447
38.07507013871448
38.38443016940194
38.63752960632659
40.99129391811054
40.91633492966322
40.54603960945505
39.82061026319804
38.587894618075396
36.54331964096892
33.91460679849958
31.24382417736536
28.607603175399987
25.769658716703233
23.033724541987915
20.26602355271845
17.70449256486247

VECTORS Ftot float
115.6880699007152 -30.237088503875267 -25.371929811476576
139.38048625494127 -67.36381567101891 -56.524952884246396
142.75625067932333 -100.0527627567019 -83.95423632741668
1273.9661651176132 9.690532917925827 8.131322597342875
1302.2010929781036 169.7221999662969 142.41383539431666
1395.979082200256 221.02779020122884 185.46433723778082
1478.2704078666247 216.0179186954537 181.26055590503933
1467.4906256359318 211.41764016138617 177.4004638837905
1481.814047672524 226.55124668390422 190.0990675352175
1674.4076704526635 290.1658815329378 243.4780841745191
2033.6510493892304 378.9378127247534 317.9665788964666
2190.938047205075 423.5618515047186 355.4105933783762
2160.31445009021 425.35829160546365 356.9179856043434
2072.5847610955175 392.0219223534682 328.94545046020437
2143.8325143676375 380.88964099107255 319.6043572748564
2215.278369290838 379.4213414813148 318.3723076977609
2135.8497823008993 344.7148899310283 289.2501370024433
2113.5739917725627 327.75166906501124 275.0163046301896
1933.8452364643842 282.98770429929993 237.4548783052484
2030.0456586964185 287.91663320043796 241.59074072829233
2072.271956604757 287.23975075394986 241.02276891709377
2250.749822954318 292.87643399437286 245.75250774519594
2429.7003301633636 309.74823026824157 259.9096257758974
2362.303478724578 294.88758496134375 247.44006377982302
2575.0824740406147 316.22119839376757 265.3410909426486
2740.6160920313637 317.8986644558158 266.7486520966256
2818.6422758086997 317.43256028675086 266.357544260273
2894.1458637366354 318.9106770931156 267.5978315273307
2975.6451562639627 320.4004979899315 268.8479396923691
3059.5124738938507 323.1182372295342 271.12839368595576
3147.0459052265574 326.9151519123874 274.31438339594945
3230.136185970507 330.32317019368037 277.1740502788278
3119.726825388498 317.860431546604 266.71657087660714
3198.7567728978684 318.76782379647955 267.4779633788109
3275.727353328065 323.55740130474334 271.49689609949
3350.0254692102935 329.1280029321929 276.1711858705185
3418.236061545019 331.4730421054679 278.13890737590987
3672.1487024472135 355.5433134643098 298.3362631954512
3708.940000506889 356.074125348833 298.7816672519791
3715.9690389289804 353.86686937889067 296.92955958168665
3686.248704606852 351.73874142928827 295.14384820407724
3606.436556667555 339.0596406091953 284.5048193822776
3445.8242160297327 317.8151705476689 266.67859238909404
3223.5117471019175 295.0613625099944 247.58588045680267
2991.210434390273 272.0748450056511 228.29790209685808
2756.264614476651 252.0341181421927 211.48173557720548
2497.413110169153 226.9640851713085 190.4454801577342
2243.8748908392035 202.6201680082806 170.01850824482722
1983.0617923936863 178.7599961200836 149.99744681361454
1739.0936195620561 156.00638635885684 130.9049012550174
115.6880699007152 -30.237088503875267 -25.371929811476576
139.38048625494127 -67.36381567101891 -56.524952884246396
142.75625067932333 -100.0527627567019 -83.95423632741668
1273.9661651176132 9.690532917925827 8.131322597342875
1302.2010929781036 169.7221999662969 142.41383539431666
1395.979082200256 221.02779020122884 185.46433723778082
1478.2704078666247 216.0179186954537 181.26055590503933
1467.4906256359318 211.41764016138617 177.4004638837905
1481.814047672524 226.55124668390422 190.0990675352175
1674.4076704526635 290.1658815329378 243.4780841745191
2033.6510493892304 378.9378127247534 317.9665788964666
2190.938047205075 423.5618515047186 355.4105933783762
2160.31445009021 425.35829160546365 356.9179856043434
2072.5847610955175 392.0219223534682 328.94545046020437
2143.8325143676375 380.88964099107255 319.6043572748564
2215.278369290838 379.4213414813148 318.3723076977609
2135.8497823008993 344.7148899310283 289.2501370024433
2113.5739917725627 327.75166906501124 275.0163046301896
1933.8452364643842 282.98770429929993 237.4548783052484
2030.0456586964185 287.91663320043796 241.59074072829233
2072.271956604757 287.23975075394986 241.02276891709377
2250.749822954318 292.87643399437286 245.75250774519594
2429.7003301633636 309.74823026824157 259.9096257758974
2362.303478724578 294.88758496134375 247.44006377982302
2575.0824740406147 316.22119839376757 265.3410909426486
2740.6160920313637 317.8986644558158 266.7486520966256
2818.6422758086997 317.43256028675086 266.357544260273
2894.1458637366354 318.9106770931156 267.5978315273307
2975.6451562639627 320.4004979899315 268.8479396923691
3059.5124738938507 323.1182372295342 271.12839368595576
3147.0459052265574 326.9151519123874 274.31438339594945
3230.136185970507 330.32317019368037 277.1740502788278
3119.726825388498 317.860431546604 266.71657087660714
3198.7567728978684 318.76782379647955 267.4779633788109
3275.727353328065 323.55740130474334 271.49689609949
3350.0254692102935 329.1280029321929 276.1711858705185
3418.236061545019 331.4730421054679 278.13890737590987
3672.1487024472135 355.5433134643098 298.3362631954512
3708.940000506889 356.074125348833 298.7816672519791
3715.9690389289804 353.86686937889067 296.92955958168665
3686.248704606852 351.73874142928827 295.14384820407724
3606.436556667555 339.0596406091953 284.5048193822776
3445.8242160297327 317.8151705476689 266.67859238909404
3223.5117471019175 295.0613625099944 247.58588045680267
2991.210434390273 272.0748450056511 228.29790209685808
2756.264614476651 252.0341181421927 211.48173557720548
2497.413110169153 226.9640851713085 190.4454801577342
2243.8748908392035 202.6201680082806 170.01850824482722
1983.0617923936863 178.7599961200836 149.99744681361454
1739.0936195620561 156.00638635885684 130.9049012550174

VECTORS D float
91.55694295807903 23.474643339113538 20.62232491001865
60.0064828773006 28.575720930432126 24.842899228393634
12.659974023574007 8.757238571141848 7.583135990212498
531.8967274462661 480.17166586085045 414.92953860570816
517.0192352073218 573.4636918847461 494.87360532864324
474.17155236722584 621.7572745225041 536.0578846664522
411.28133882788006 620.0165327548036 533.9819670029785
346.3882556023787 588.4043587563555 506.2930923210274
308.8904896172928 582.0944173426224 500.48713838272363
321.66065506785037 664.1597239920508 570.6869658999342
359.6270151200195 805.4341368071478 691.6982736268892
356.1375563646521 857.9406567815885 736.5874830260988
323.80750017682294 832.7702510792044 714.4084091066985
280.837027836178 766.6210944584282 657.4887067997189
261.4640297244435 753.7450914687897 646.2900203081202
247.51541966315062 750.227723210348 643.1310642833797
217.35698605516126 690.0437427492366 591.4160804089352
198.59358028764655 658.1182228061938 563.8777793147879
167.0625802743392 576.0549262424008 493.4762312978444
163.85784675076948 586.2986399184883 502.1614324153114
157.4235763261359 583.0624054521572 499.30183483223993
158.48915217096587 606.1421204647519 518.8758323229686
162.21292249755217 639.2802662395575 547.1366495328407
149.91263844595417 607.5927464474768 519.9202420551883
156.0801929821214 649.3572358171924 555.5600346704438
156.18974000447295 665.5134670185714 569.3872368572871
153.24701354375767 667.9798631495404 571.4046383317417
150.97927828596875 672.1984364822987 574.9156595620799
149.16414063873708 677.3816141476415 579.2463734113752
147.91839979335705 684.2210957393985 584.9880438184128
147.2056134347225 692.7162386140485 592.1396888700999
146.49325824614886 700.4713282609247 598.6534239910688
138.10180817527348 670.491210224985 572.8083974125468
137.3371944876826 676.0042281425855 577.4050402147519
137.43646073460695 685.1933667369744 585.1398915529821
137.75576818746546 694.9913220335992 593.392609617536
137.44878255376238 701.134436404813 598.5236917918127
145.38157238472854 749.0464408983852 639.2966506626125
144.22528866705784 750.156642036417 640.1209143207208
142.1003556439505 745.6061172465571 636.1189832816223
139.41340130115415 737.446233408408 629.0439472919952
133.97555951793044 713.9771507267225 608.9194402696638
125.60494624382855 673.9557495895594 574.692148118495
116.0123617927778 626.3792253143305 534.0397059359829
106.44117753403627 577.9652649409226 492.69113104749067
97.57721211436908 532.5458039114371 453.9119672817359
87.56852166956213 480.10532701516615 409.16451748346844
77.97932319316489 429.2559344738358 365.78834173257883
68.5037168814158 378.41795284842766 322.435579221643
59.67640374859372 330.6409642110291 281.7029024669014
91.55694295807903 23.474643339113538 20.62232491001865
60.0064828773006 28.575720930432126 24.842899228393634
12.659974023574007 8.757238571141848 7.583135990212498
531.8967274462661 480.17166586085045 414.92953860570816
517.0192352073218 573.4636918847461 494.87360532864324
474.17155236722584 621.7572745225041 536.0578846664522
411.28133882788006 620.0165327548036 533.9819670029785
346.3882556023787 588.4043587563555 506.2930923210274
308.8904896172928 582.0944173426224 500.48713838272363
321.66065506785037 664.1597239920508 570.6869658999342
359.6270151200195 805.4341368071478 691.6982736268892
356.1375563646521 857.9406567815885 736.5874830260988
323.80750017682294 832.7702510792044 714.4084091066985
280.837027836178 766.6210944584282 657.4887067997189
261.4640297244435 753.7450914687897 646.2900203081202
247.51541966315062 750.227723210348 643.1310642833797
217.35698605516126 690.0437427492366 591.4160804089352
198.59358028764655 658.1182228061938 563.8777793147879
167.0625802743392 576.0549262424008 493.4762312978444
163.85784675076948 586.2986399184883 502.1614324153114
157.4235763261359 583.0624054521572 499.30183483223993
158.48915217096587 606.1421204647519 518.8758323229686
162.21292249755217 639.2802662395575 547.1366495328407
149.91263844595417 607.5927464474768 519.9202420551883
156.0801929821214 649.3572358171924 555.5600346704438
156.18974000447295 665.5134670185714 569.3872368572871
153.24701354375767 667.9798631495404 571.4046383317417
150.97927828596875 672.1984364822987 574.9156595620799
149.16414063873708 677.3816141476415 579.2463734113752
147.91839979335705 684.2210957393985 584.9880438184128
147.2056134347225 692.7162386140485 592.1396888700999
146.49325824614886 700.4713282609247 598.6534239910688
138.10180817527348 670.491210224985 572.8083974125468
137.3371944876826 676.0042281425855 577.4050402147519
137.43646073460695 685.1933667369744 585.1398915529821
137.75576818746546 694.9913220335992 593.392609617536
137.44878255376238 701.134436404813 598.5236917918127
145.38157238472854 749.0464408983852 639.2966506626125
144.22528866705784 750.156642036417 640.1209143207208
142.1003556439505 745.6061172465571 636.1189832816223
139.41340130115415 737.446233408408 629.0439472919952
133.97555951793044 713.9771507267225 608.9194402696638
125.60494624382855 673.9557495895594 574.692148118495
116.0123617927778 626.3792253143305 534.0397059359829
106.44117753403627 577.9652649409226 492.69113104749067
97.57721211436908 532.5458039114371 453.9119672817359
87.56852166956213 480.10532701516615 409.16451748346844
77.97932319316489 429.2559344738358 365.78834173257883
68.5037168814158 378.41795284842766 322.435579221643
59.67640374859372 330.6409642110291 281.7029024669014

VECTORS L float
24.13112694263616 -53.71173184298879 -45.99425472149523
79.3740033776407 -95.93953660145105 -81.36785211264007
130.09627665574934 -108.81000132784378 -91.53737231762916
742.0694376713474 -470.48113294292466 -406.7982160083654
785.1818577707818 -403.7414919184494 -352.45976993432663
921.8075298330301 -400.7294843212754 -350.5935474286715
1066.9890690387444 -403.99861405935013 -352.7214110979393
1121.1023700335527 -376.98671859496943 -328.89262843723685
1172.9235580552313 -355.5431706587182 -310.38807084750607
1352.7470153848135 -373.9938424591131 -327.208881725415
1674.024034269211 -426.4963240823943 -373.73169473042265
1834.8004908404228 -434.37880527686985 -381.1768896477226
1836.5069499133867 -407.41195947374104 -357.4904235023553
1791.747733259339 -374.59917210496025 -328.5432563395148
1882.368484643194 -372.85545047771734 -326.685663033264
1967.7629496276875 -370.8063817290336 -324.7587565856189
1918.4927962457382 -345.32885281820825 -302.16594340649203
1914.9804114849162 -330.36655374118266 -288.86147468459825
1766.7826561900451 -293.0672219431009 -256.021352992596
1866.1878119456499 -298.38200671805026 -260.570691687019
1914.8483802786213 -295.8226546982074 -258.2790659151462
2092.2606707833525 -313.26568647037914 -273.1233245777728
2267.4874076658116 -329.5320359713158 -287.2270237569433
2212.3908402786237 -312.705161486133 -272.48017827536523
2419.002281058493 -333.13603742342485 -290.2189437277952
2584.426352026891 -347.61480256275553 -302.6385847606614
2665.395262264942 -350.5473028627896 -305.04709407146873
2743.166585450667 -353.28775938918284 -307.3178280347491
2826.4810156252265 -356.98111615770995 -310.3984337190062
2911.5940741004947 -361.1028585098647 -313.85965013245726
2999.840291791835 -365.801086701661 -317.8253054741505
3083.6429277243587 -370.1481580672444 -321.47937371224117
2981.6250172132245 -352.6307786783808 -306.09182653593945
3061.4195784101853 -357.23640434610587 -309.92707683594097
3138.2908925934585 -361.6359654322312 -313.64299545349223
3212.2697010228285 -365.8633191014063 -317.2214237470174
3280.787278991257 -369.66139429934526 -320.38478441590297
3526.767130062485 -393.50312743407534 -340.9603874671612
3564.714711839832 -394.0825166875839 -341.3392470687416
3573.8686832850294 -391.7392478676665 -339.1894236999357
3546.8353033056987 -385.70749197912 -333.90009908791814
3472.460997149625 -374.9175101175272 -324.41462088738626
3320.219269785904 -356.1405790418904 -308.0135557294009
3107.4993853091405 -331.31786280433636 -286.4538254791803
2884.769256856237 -305.8904199352715 -264.39322895063265
2658.687402362282 -280.51168576924454 -242.43023170453054
2409.8445884995904 -253.1412418438578 -218.71903732573438
2165.895567646039 -226.6357664655555 -195.7698334877518