# vtk DataFile Version 4.0
[MyVLM domain - lattices] 
ASCII
DATASET UNSTRUCTURED_GRID
POINTS 152 float
0.0 -1.9817278671777903 -1.059045966330383
0.0 -4.135531479843028 -0.43788291770328014
0.0 -6.23846278995536 0.2029522486405646
0.0 -8.305203507478698 0.8231218660963386
0.0 -10.335871276247161 1.4223027108862416
0.0 -12.317840085836814 2.03518446154785
0.0 -14.240651168122454 2.6905023473404523
0.0 -16.101604915758674 3.395673478486978
0.0 -17.917164235725306 4.105466389801731
0.0 -19.69406998842179 4.801360719549565
0.0 -21.432237283446337 5.4835897021925195
0.0 -23.13154188450319 6.152494674147862
0.0 -24.79184716424974 6.808451015954288
0.0 -26.412028707677244 7.454548032458429
0.0 -27.99283667520052 8.088724674859598
0.0 -29.535915440904468 8.706463062490398
0.0 -31.04150977930099 9.307090682906491
0.0 -32.50921632372541 9.891715776910873
0.0 -33.93874447038322 10.46113677186696
0.0 -35.330094303073714 11.015353437538085
0.0 -36.683265903358205 11.554365549836337
0.0 -37.998259350560076 12.078172890822566
0.0 -39.27507472176472 12.586775248706363
0.0 -40.51371209181958 13.080172417846082
0.0 -41.71417153333412 13.558364198748837
0.0 -42.876453116679876 14.02135039807047
0.0 -44.00055690999037 14.469130828615606
0.0 -45.086482979161225 14.90170530933761
0.0 -46.13423193407024 15.319072164610885
0.0 -47.1438113387652 15.721210612385034
0.0 -48.11522273087979 16.108116428046127
0.0 -49.048465028116894 16.479792585181162
0.0 -49.943537190715034 16.836241940511247
0.0 -50.800438221448466 17.177467233891637
0.0 -51.61916716562711 17.503471088311723
0.0 -52.399723111096606 17.81425600989503
0.0 -53.14196085915442 18.11022092879813
0.0 -53.845421265749586 18.39262733293331
0.0 -54.50937573295982 18.663477028639907
0.0 -55.13344523475046 18.923811381389562
0.0 -55.717895344433636 19.172900734503987
0.0 -56.26263916354905 19.410983839540602
0.0 -56.76364883037162 19.649127155637785
0.0 -57.22101578127533 19.887079463422644
0.0 -57.63778968575421 20.116461864823606
0.0 -58.016048807465744 20.331564377369972
0.0 -58.35631938486751 20.530941172782416
0.0 -58.65809832826562 20.715974478634738
0.0 -58.92182664394999 20.885452640103622
0.0 -59.14837801701869 21.036975227110435
0.0 -59.338508771884946 21.168464255408004
-0.7686761955390344 -0.8691618669649526 1.9977039969073458
-0.8409029948616161 -2.9199825231370364 2.9018103930880668
-0.8940476007249757 -4.945454650939556 3.7554629137575417
-0.9506443374492793 -6.929549042255356 4.602701446269403
-1.0210144815146838 -8.872759138984282 5.4421702701460095
-1.048631451549771 -10.785523292124907 6.245190251722432
-0.9920275022819518 -12.674955844427458 6.992214894938169
-0.9074715353829097 -14.547921098148223 7.664384684343762
-0.8388231939293685 -16.390697415666487 8.299399509460054
-0.7803448823218929 -18.19631528307248 8.91640795237873
-0.7251531968841737 -19.964012309441244 9.517504664950875
-0.671766762046156 -21.692711694986894 10.105648130273519
-0.6188683613166902 -23.38385990857512 10.67686420780022
-0.5668565661826578 -25.03793198066263 11.229847762077608
-0.5162677046190278 -26.65464150489351 11.765385688101361
-0.4681223452427161 -28.232062616072078 12.288769257009516
-0.42442582165628834 -29.769973682521144 12.800607396830594
-0.3846819074085718 -31.268779535623942 13.299787842480493
-0.3476243488905531 -32.72873698264142 13.785605021808594
-0.3131098246080671 -34.149827466787706 14.258109919165046
-0.28048746260446866 -35.53201948012594 14.717389101894902
-0.2502235469699514 -36.875317050550066 15.163431503450512
-0.2227998260917326 -38.17972001954613 15.596237559345386
-0.19746739264611052 -39.44519758222598 16.015891905314135
-0.17533279734900953 -40.67176201713005 16.422360806344148
-0.15613374469432648 -41.85939329677388 16.81569928749679
-0.13998404755873647 -43.0080807207078 17.19593674801584
-0.12578653595324127 -44.117796035261236 17.563150814223327
-0.11250427274737486 -45.18851841425286 17.917398705582112
-0.10008179164308317 -46.22024376348787 18.25869167079993
-0.08845752889585208 -47.21296910739095 18.587037885202854
-0.07764231497362577 -48.16669288926354 18.902441625784984
-0.06766212708627829 -49.081413610377844 19.204907010267057
-0.0584684819534103 -49.95712904260073 19.49444016039463
-0.050013688763705585 -50.79383717234244 19.77104660845998
-0.042252254921319045 -51.59153619864796 20.03473130254645
-0.03513536582041269 -52.35033714707686 20.28518920243609
-0.028615518964613278 -53.07059731925713 20.521438629974025
-0.022687693716904638 -53.75327718734838 20.74084070958982
-0.017408965386693863 -54.39887354775042 20.942030504392896
-0.013252482528008399 -55.00657783701166 21.127229524208627
-0.010166684094042405 -55.57643136595765 21.296324268476663
-0.00760098697125575 -56.11320732940505 21.436200492219598
-0.005464879873870877 -56.616921310348204 21.546815381512307
-0.0039015967321000085 -57.08397613340542 21.638052094489815
-0.002883995165670249 -57.51199087630255 21.71645216133788
-0.0022477517166190047 -57.900544009349915 21.78317372536046
-0.00179874084072329 -58.25053891658077 21.835734759325074
-0.0014595970466816986 -58.56161458900666 21.87512712727578
-0.0012027506489664258 -58.832816566056685 21.903973188078893
-0.0010073243559101815 -59.06331860469459 21.924543025819464
-0.603592196400244 -2.185586564665848 1.650201785744072
-0.6506064733449719 -4.2462882240035205 2.467111156434264
-0.6917594768153456 -6.271084672127349 3.2625708993522173
-0.7393720571114861 -8.255999915930596 4.047504965778602
-0.7761172248991705 -10.203569831926442 4.814946092254927
-0.7652471076868961 -12.117491082952046 5.554737781108764
-0.712312139124323 -14.001360863951023 6.256996820459153
-0.6548605234921042 -15.854328086616015 6.92406155621252
-0.607188028594223 -17.6715340400455 7.569281186858455
-0.564561779702275 -19.450911256176163 8.198336034216362
-0.5238449845988737 -21.19174389765424 8.813192845251695
-0.48398817126106725 -22.894137982429868 9.41356033804042
-0.4446468478122555 -24.558656442455028 9.997891869755774
-0.4061716015506322 -26.185323229943272 10.566121632231868
-0.369146268698154 -27.77360805987522 11.119706571585327
-0.3347055625871267 -29.322941764498136 11.660210463364653
-0.3034153983993225 -30.83337321968271 12.187499022218828
-0.27461484611217185 -32.30506379361309 12.701128892705636
-0.24777531506198255 -33.73806651521804 13.200954379040748
-0.22259898270470088 -35.1323626308966 13.687027006319283
-0.19901662859040753 -36.48794185574329 14.159375032086892
-0.1773837648981315 -37.80480566032667 14.617994415989576
-0.15760020702669117 -39.08294245236257 15.062917007566375
-0.13980007124817 -40.322345302902725 15.494161843946221
-0.124299953266251 -41.523011323965726 15.911736859792764
-0.11104417209489861 -42.684929009889416 16.315673666652998
-0.09966396881699166 -43.80808376963234 16.70601235308384
-0.08935905326273105 -44.892457282721715 17.0828032541706
-0.07971977414642176 -45.9380412257572 17.446069238267754
-0.07070224520210072 -46.94483408528518 17.795814463554937
-0.06228744145105419 -47.91283421862002 18.132043443273847
-0.05448916577246402 -48.8420402147195 18.454760054231066
-0.04729897838988322 -49.7324504213874 18.76396883579849
-0.04068081401891846 -50.584063003988135 19.059674828595895
-0.03459972888188424 -51.39687629871187 19.341882603903255
-0.029020357778149403 -52.17091300092818 19.6105298067051
-0.023906581794384738 -52.90627319048825 19.86534146987022
-0.019238704755569217 -53.60330256481576 20.105367797533095
-0.015036247163849435 -54.26240914662584 20.3294877564972
-0.011498042968013347 -54.88346184168379 20.538061525212264
-0.00878218748326905 -55.46619526461132 20.73181824401256
-0.006662876649486808 -56.0119005100011 20.907210659658396
-0.004899700066922485 -56.521881316363334 21.060656780032016
-0.0035124287272390825 -56.9951872247863 21.194767969531576
-0.0025445969616638467 -57.430217440292985 21.31394237620958
-0.0019244050808584702 -57.82624660616132 21.420172901280925
-0.0015174347090033604 -58.18345831136564 21.512955138184218
-0.0012218767077768707 -58.50204818612224 21.591751597317618
-0.0009983803858680466 -58.781687265769826 21.657466101659757
-0.0008287781268287279 -59.02191153764468 21.711373515526688

CELLS 100 350
4 0 51 52 1
4 1 52 53 2
4 2 53 54 3
4 3 54 55 4
4 4 55 56 5
4 5 56 57 6
4 6 57 58 7
4 7 58 59 8
4 8 59 60 9
4 9 60 61 10
4 10 61 62 11
4 11 62 63 12
4 12 63 64 13
4 13 64 65 14
4 14 65 66 15
4 15 66 67 16
4 16 67 68 17
4 17 68 69 18
4 18 69 70 19
4 19 70 71 20
4 20 71 72 21
4 21 72 73 22
4 22 73 74 23
4 23 74 75 24
4 24 75 76 25
4 25 76 77 26
4 26 77 78 27
4 27 78 79 28
4 28 79 80 29
4 29 80 81 30
4 30 81 82 31
4 31 82 83 32
4 32 83 84 33
4 33 84 85 34
4 34 85 86 35
4 35 86 87 36
4 36 87 88 37
4 37 88 89 38
4 38 89 90 39
4 39 90 91 40
4 40 91 92 41
4 41 92 93 42
4 42 93 94 43
4 43 94 95 44
4 44 95 96 45
4 45 96 97 46
4 46 97 98 47
4 47 98 99 48
4 48 99 100 49
4 49 100 101 50
1 102
1 103
1 104
1 105
1 106
1 107
1 108
1 109
1 110
1 111
1 112
1 113
1 114
1 115
1 116
1 117
1 118
1 119
1 120
1 121
1 122
1 123
1 124
1 125
1 126
1 127
1 128
1 129
1 130
1 131
1 132
1 133
1 134
1 135
1 136
1 137
1 138
1 139
1 140
1 141
1 142
1 143
1 144
1 145
1 146
1 147
1 148
1 149
1 150
1 151

CELL_TYPES 100
9
9
9
9
9
9
9
9
9
9
9
9
9
9
9
9
9
9
9
9
9
9
9
9
9
9
9
9
9
9
9
9
9
9
9
9
9
9
9
9
9
9
9
9
9
9
9
9
9
9
1
1
1
1
1
1
1
1
1
1
1
1
1
1
1
1
1
1
1
1
1
1
1
1
1
1
1
1
1
1
1
1
1
1
1
1
1
1
1
1
1
1
1
1
1
1
1
1
1
1

CELL_DATA 100

VECTORS S float
-0.0 -0.0 0.0
-3.927016901712815e-17 -6.1842729924486985e-15 3.4986173473016067e-15
-0.0 -0.0 0.0
1.2971273456796999e-19 -7.755881227956738e-16 4.328093716336338e-16
0.0 -0.0 0.0
-4.453050177115211e-17 1.2413209115815103e-14 -6.917994522839394e-15
3.8532312794310436e-17 -1.2406665104257257e-14 6.9297595909421745e-15
-3.626272839160742e-17 1.240217777870093e-14 -6.937799586079544e-15
-1.4906756806372724e-16 4.959677730204467e-14 -2.777249948954545e-14
0.0 -0.0 0.0
-8.655543211549485e-17 2.478979973893676e-14 -1.3901507256657394e-14
0.0 -0.0 0.0
0.0 -0.0 0.0
8.211735978856351e-17 -2.4778421534488415e-14 1.3921804837905837e-14
0.0 -0.0 0.0
7.06381720114098e-17 -2.4770285350512377e-14 1.3936338861019519e-14
0.0 -0.0 0.0
1.2314389997288772e-16 -4.952895822395516e-14 2.7893393494067157e-14
-5.712647582254371e-17 2.4761988270808084e-14 -1.3951137601946265e-14
-5.559821625514752e-17 2.4762777217652058e-14 -1.3949743375904719e-14
0.0 -0.0 0.0
0.0 -0.0 0.0
4.8123602219675434e-17 -2.475722315106925e-14 1.39596258156652e-14
4.6651546998339816e-17 -2.4755789089702444e-14 1.3962173796570794e-14
9.088277480194654e-17 -4.9508786417613156e-14 2.792930496023256e-14
-8.48343651421326e-17 4.9505703239763436e-14 -2.793478866310305e-14
0.0 -0.0 0.0
-3.947572644161828e-17 2.4750064073628597e-14 -1.3972341856847654e-14
-3.817786246820574e-17 2.4748688798283714e-14 -1.3974781292129033e-14
3.706333471628062e-17 -2.474732805784242e-14 1.39771938261248e-14
-3.606141184598797e-17 2.474583282773721e-14 -1.3979843496354851e-14
0.0 -0.0 0.0
-3.4596574920021606e-17 2.4742910795878224e-14 -1.3985018247057549e-14
0.0 -0.0 0.0
-3.278412912812862e-17 2.4740033072383782e-14 -1.3990112784554301e-14
-3.221061669775653e-17 2.4738509365412628e-14 -1.3992808288541648e-14
0.0 -0.0 0.0
0.0 -0.0 0.0
3.032049748598036e-17 -2.4734025826017447e-14 1.4000736196773734e-14
-2.971406958820004e-17 2.4732594542088717e-14 -1.4003265734714459e-14
2.9429887198910097e-17 -2.4731231178277098e-14 1.400567403714189e-14
0.0 -0.0 0.0
-2.780117808363656e-17 2.4728591014987196e-14 -1.4010338341892664e-14
0.0 -0.0 0.0
-2.676962542027242e-17 2.4725785943549673e-14 -1.4015290214877193e-14
2.6686312697207508e-17 -2.4724857940709975e-14 1.4016927430743935e-14
0.0 -0.0 0.0
0.0 -0.0 0.0
0.0 -0.0 0.0
1.274091983394242e-17 -1.2360962636975883e-14 7.01105071247006e-15
-0.0 -0.0 0.0
-3.927016901712815e-17 -6.1842729924486985e-15 3.4986173473016067e-15
-0.0 -0.0 0.0
1.2971273456796999e-19 -7.755881227956738e-16 4.328093716336338e-16
0.0 -0.0 0.0
-4.453050177115211e-17 1.2413209115815103e-14 -6.917994522839394e-15
3.8532312794310436e-17 -1.2406665104257257e-14 6.9297595909421745e-15
-3.626272839160742e-17 1.240217777870093e-14 -6.937799586079544e-15
-1.4906756806372724e-16 4.959677730204467e-14 -2.777249948954545e-14
0.0 -0.0 0.0
-8.655543211549485e-17 2.478979973893676e-14 -1.3901507256657394e-14
0.0 -0.0 0.0
0.0 -0.0 0.0
8.211735978856351e-17 -2.4778421534488415e-14 1.3921804837905837e-14
0.0 -0.0 0.0
7.06381720114098e-17 -2.4770285350512377e-14 1.3936338861019519e-14
0.0 -0.0 0.0
1.2314389997288772e-16 -4.952895822395516e-14 2.7893393494067157e-14
-5.712647582254371e-17 2.4761988270808084e-14 -1.3951137601946265e-14
-5.559821625514752e-17 2.4762777217652058e-14 -1.3949743375904719e-14
0.0 -0.0 0.0
0.0 -0.0 0.0
4.8123602219675434e-17 -2.475722315106925e-14 1.39596258156652e-14
4.6651546998339816e-17 -2.4755789089702444e-14 1.3962173796570794e-14
9.088277480194654e-17 -4.9508786417613156e-14 2.792930496023256e-14
-8.48343651421326e-17 4.9505703239763436e-14 -2.793478866310305e-14
0.0 -0.0 0.0
-3.947572644161828e-17 2.4750064073628597e-14 -1.3972341856847654e-14
-3.817786246820574e-17 2.4748688798283714e-14 -1.3974781292129033e-14
3.706333471628062e-17 -2.474732805784242e-14 1.39771938261248e-14
-3.606141184598797e-17 2.474583282773721e-14 -1.3979843496354851e-14
0.0 -0.0 0.0
-3.4596574920021606e-17 2.4742910795878224e-14 -1.3985018247057549e-14
0.0 -0.0 0.0
-3.278412912812862e-17 2.4740033072383782e-14 -1.3990112784554301e-14
-3.221061669775653e-17 2.4738509365412628e-14 -1.3992808288541648e-14
0.0 -0.0 0.0
0.0 -0.0 0.0
3.032049748598036e-17 -2.4734025826017447e-14 1.4000736196773734e-14
-2.971406958820004e-17 2.4732594542088717e-14 -1.4003265734714459e-14
2.9429887198910097e-17 -2.4731231178277098e-14 1.400567403714189e-14
0.0 -0.0 0.0
-2.780117808363656e-17 2.4728591014987196e-14 -1.4010338341892664e-14
0.0 -0.0 0.0
-2.676962542027242e-17 2.4725785943549673e-14 -1.4015290214877193e-14
2.6686312697207508e-17 -2.4724857940709975e-14 1.4016927430743935e-14
0.0 -0.0 0.0
0.0 -0.0 0.0
0.0 -0.0 0.0
1.274091983394242e-17 -1.2360962636975883e-14 7.01105071247006e-15

SCALARS Gamma float
LOOKUP_TABLE default
-0.0
-0.0
-0.0
51.20737365996841
54.84313354389869
54.86539956092115
52.701305880802785
47.98737538378601
44.92816491191707
47.548254470814214
54.15390238365007
54.79850074543244
50.857616422084504
45.99174907950914
44.96970392695295
44.20067818746726
40.625145027473636
38.464199642658905
33.744632949774406
33.96093143779136
33.45535844838174
35.1366694414912
36.772859499477846
34.71671531938753
36.80913295173626
38.06836083059736
38.177692723066116
38.28633316649156
38.49669534325484
38.76121952956005
39.121002290682256
39.416519109344456
37.44022012906942
37.758162111925124
38.07556979227503
38.38322605482501
38.6355032370523
40.96715317966291
40.891564387075405
40.521562718905365
39.797251409386334
38.56638775790621
36.5244696652251
33.94107329318648
31.267748570850475
28.628408672020296
25.787912883628636
23.04913408129097
20.27928751172408
17.715857079676724
-0.0
-0.0
-0.0
51.20737365996841
54.84313354389869
54.86539956092115
52.701305880802785
47.98737538378601
44.92816491191707
47.548254470814214
54.15390238365007
54.79850074543244
50.857616422084504
45.99174907950914
44.96970392695295
44.20067818746726
40.625145027473636
38.464199642658905
33.744632949774406
33.96093143779136
33.45535844838174
35.1366694414912
36.772859499477846
34.71671531938753
36.80913295173626
38.06836083059736
38.177692723066116
38.28633316649156
38.49669534325484
38.76121952956005
39.121002290682256
39.416519109344456
37.44022012906942
37.758162111925124
38.07556979227503
38.38322605482501
38.6355032370523
40.96715317966291
40.891564387075405
40.521562718905365
39.797251409386334
38.56638775790621
36.5244696652251
33.94107329318648
31.267748570850475
28.628408672020296
25.787912883628636
23.04913408129097
20.27928751172408
17.715857079676724

VECTORS Ftot float
115.56991318890758 -19.70470137765037 -34.12954393406298
139.25075235880922 -43.92642774734681 -76.08280465340817
142.64206429368778 -65.26328221855798 -113.03932067124917
1272.7357195044797 6.36422953244878 11.023168901231635
1301.7581132607363 110.71320848795035 191.7609021700964
1394.9112892964745 144.15729952341894 249.68776705648696
1477.1291922714413 140.89483727115257 244.03701667778597
1466.487990523369 137.92756466385015 238.89754976203085
1481.0493967442187 147.83504459773428 256.05780838248734
1674.7185409667559 189.43055394010744 328.1033439301837
2034.901384148767 247.48631220993425 428.65886692546104
2192.2779351483555 276.574712655251 479.041454407659
2159.26261655375 277.5038666456932 480.65079632716015
2071.6513223854395 255.76034231877642 442.9899074573303
2142.6874482277517 248.46298045441682 430.35050594704387
2216.2147139890694 247.768041931919 429.14683711794095
2137.7794365996506 225.25166926678276 390.14733565976974
2115.5274747464086 214.20641247209716 371.01638970872887
1935.7752379512256 184.95121327307297 320.3448983104705
2024.6248267026378 187.26186349944697 324.34706190107084
2067.067728423746 186.85108313437428 323.63556943801325
2248.555124818291 190.91383132758156 330.67245572700693
2428.6288598672586 202.05028764774335 349.9613638897987
2362.024790269123 192.44347258443392 333.32187210122873
2575.265576520878 206.42526738494203 357.5390510767112
2737.473930790922 207.12241722458282 358.7465500194575
2815.2548165195053 206.80134755338503 358.1904410361735
2890.536295280547 207.74572987084633 359.82615919178613
2971.833692117018 208.6943382325205 361.4691970706905
3055.515484660694 210.4511468823502 364.512078911372
3144.9976224528577 213.16896591851054 369.2194795677796
3228.0256914623287 215.39131139945368 373.0686948527442
3119.410044635515 207.4808881982903 359.36743995895756
3198.5045365316882 208.08501973410216 360.41382647343835
3275.2520335111285 211.18484569492932 365.782882532212
3349.412231575431 214.80472587940986 372.0526989290441
3417.5623312567445 216.3272925123719 374.6898616952435
3669.4726813814573 231.82056912058871 401.5250039563935
3706.2086290707734 232.15897668614352 402.11114305360013
3713.2693581298304 230.71969205669157 399.61822894883636
3683.6601777458877 229.3452580512016 397.2376394196773
3604.03885544031 221.07603714634774 382.91492867345966
3443.6989638081427 207.2390632533638 358.9485868678073
3225.8567760695933 192.86488777551784 334.0517846232674
2993.333767851629 177.83397057264304 308.0174723435271
2758.1074405261315 164.7251421018134 285.3123154043447
2499.0296468773104 148.335027694378 256.92380450879983
2245.234530416828 132.41710511963453 229.35315385839644
1984.2310500649892 116.82035899112195 202.33879713105944
1740.0944248626556 101.94855090129012 176.5800699190568
115.56991318890758 -19.70470137765037 -34.12954393406298
139.25075235880922 -43.92642774734681 -76.08280465340817
142.64206429368778 -65.26328221855798 -113.03932067124917
1272.7357195044797 6.36422953244878 11.023168901231635
1301.7581132607363 110.71320848795035 191.7609021700964
1394.9112892964745 144.15729952341894 249.68776705648696
1477.1291922714413 140.89483727115257 244.03701667778597
1466.487990523369 137.92756466385015 238.89754976203085
1481.0493967442187 147.83504459773428 256.05780838248734
1674.7185409667559 189.43055394010744 328.1033439301837
2034.901384148767 247.48631220993425 428.65886692546104
2192.2779351483555 276.574712655251 479.041454407659
2159.26261655375 277.5038666456932 480.65079632716015
2071.6513223854395 255.76034231877642 442.9899074573303
2142.6874482277517 248.46298045441682 430.35050594704387
2216.2147139890694 247.768041931919 429.14683711794095
2137.7794365996506 225.25166926678276 390.14733565976974
2115.5274747464086 214.20641247209716 371.01638970872887
1935.7752379512256 184.95121327307297 320.3448983104705
2024.6248267026378 187.26186349944697 324.34706190107084
2067.067728423746 186.85108313437428 323.63556943801325
2248.555124818291 190.91383132758156 330.67245572700693
2428.6288598672586 202.05028764774335 349.9613638897987
2362.024790269123 192.44347258443392 333.32187210122873
2575.265576520878 206.42526738494203 357.5390510767112
2737.473930790922 207.12241722458282 358.7465500194575
2815.2548165195053 206.80134755338503 358.1904410361735
2890.536295280547 207.74572987084633 359.82615919178613
2971.833692117018 208.6943382325205 361.4691970706905
3055.515484660694 210.4511468823502 364.512078911372
3144.9976224528577 213.16896591851054 369.2194795677796
3228.0256914623287 215.39131139945368 373.0686948527442
3119.410044635515 207.4808881982903 359.36743995895756
3198.5045365316882 208.08501973410216 360.41382647343835
3275.2520335111285 211.18484569492932 365.782882532212
3349.412231575431 214.80472587940986 372.0526989290441
3417.5623312567445 216.3272925123719 374.6898616952435
3669.4726813814573 231.82056912058871 401.5250039563935
3706.2086290707734 232.15897668614352 402.11114305360013
3713.2693581298304 230.71969205669157 399.61822894883636
3683.6601777458877 229.3452580512016 397.2376394196773
3604.03885544031 221.07603714634774 382.91492867345966
3443.6989638081427 207.2390632533638 358.9485868678073
3225.8567760695933 192.86488777551784 334.0517846232674
2993.333767851629 177.83397057264304 308.0174723435271
2758.1074405261315 164.7251421018134 285.3123154043447
2499.0296468773104 148.335027694378 256.92380450879983
2245.234530416828 132.41710511963453 229.35315385839644
1984.2310500649892 116.82035899112195 202.33879713105944
1740.0944248626556 101.94855090129012 176.5800699190568

VECTORS D float
91.4874422357231 14.981062752661439 27.374180579687195
59.953858601372765 18.33839964480904 33.08851935405684
12.626617245611481 5.6218037691662595 10.09584271557243
531.2653878613165 309.0278209958604 553.6141576305828
516.5292211536481 369.3854563409972 660.8910374033397
473.89083090709636 400.6487613640791 715.8482482126916
410.90144486005073 399.67313637502343 713.2682896579461
346.03697678987817 379.46065720840807 676.5243399702856
308.59406060494945 375.56013811296134 669.0276895810105
321.551748684926 428.901005688924 763.4822199081278
359.8652910512209 520.5699919564909 926.0634345074953
356.54217328074424 554.7008790467023 986.2539914170185
323.67899222905277 537.8141010584121 955.795621135209
280.7137233912093 495.1923344256881 879.7015240351548
261.2964511500878 486.88738814701674 864.6483803024273
247.646850459437 485.30239424290886 861.315556802179
217.64733545250175 446.7368668673066 792.5849800061067
198.90633467999595 426.17654039721106 755.8630672910351
167.32246698084342 373.0984114033194 661.5302785683987
163.20930607274536 377.8967158807314 670.1698940563276
156.83075822100923 375.906645029155 666.4975503864015
158.24950599064385 391.57623181459877 694.062313037572
162.097088508734 413.2862815054557 732.3992874669067
149.88502274604608 392.99726926179244 696.3074148868375
156.10482494359098 420.1555178090919 744.2792644979613
155.8773473184908 429.92624005105534 761.4368361859033
152.9230807301113 431.51888198289004 764.1056561138198
150.64394702558425 434.2440953480677 768.777525934378
148.81725648600775 437.59191028958645 774.5483995337289
147.56279590025298 442.01968801354894 782.2269043421871
147.04438890557196 448.0074546527835 792.6422747893544
146.33288393034658 453.0632685196604 801.406386923208
138.1190620984845 434.07662968087374 767.6458257427238
137.36053423539775 437.6949089345983 773.8868165188786
137.4404760885245 443.6411552310878 784.2103316339823
137.74794723199923 450.0017356816502 795.2610352987989
137.4352611953731 454.01208724865864 802.1550429771378
145.20854208567056 484.676374186695 856.1292733367995
144.04705262978774 485.427600484156 857.255722845875
141.92383566156437 482.52883990361937 851.9422000181621
139.24588824299852 477.31056089301285 842.5428010962326
133.81842687853765 462.1702975355195 815.6439695288731
125.46790613801454 436.3297936137176 769.8838240096305
116.2095069549903 406.46285487244376 716.9791495518018
106.61773960175695 375.05902061982914 661.4757740264329
97.73283764634603 345.5865567374954 609.403910713841
87.70463850500558 311.563157562285 549.331213280471
78.09569105369269 278.5631030434743 491.08598154936686
68.60358888533841 245.5760381224956 432.8844215046337
59.76172623328304 214.57429576647763 378.2005782308182
91.4874422357231 14.981062752661439 27.374180579687195
59.953858601372765 18.33839964480904 33.08851935405684
12.626617245611481 5.6218037691662595 10.09584271557243
531.2653878613165 309.0278209958604 553.6141576305828
516.5292211536481 369.3854563409972 660.8910374033397
473.89083090709636 400.6487613640791 715.8482482126916
410.90144486005073 399.67313637502343 713.2682896579461
346.03697678987817 379.46065720840807 676.5243399702856
308.59406060494945 375.56013811296134 669.0276895810105
321.551748684926 428.901005688924 763.4822199081278
359.8652910512209 520.5699919564909 926.0634345074953
356.54217328074424 554.7008790467023 986.2539914170185
323.67899222905277 537.8141010584121 955.795621135209
280.7137233912093 495.1923344256881 879.7015240351548
261.2964511500878 486.88738814701674 864.6483803024273
247.646850459437 485.30239424290886 861.315556802179
217.64733545250175 446.7368668673066 792.5849800061067
198.90633467999595 426.17654039721106 755.8630672910351
167.32246698084342 373.0984114033194 661.5302785683987
163.20930607274536 377.8967158807314 670.1698940563276
156.83075822100923 375.906645029155 666.4975503864015
158.24950599064385 391.57623181459877 694.062313037572
162.097088508734 413.2862815054557 732.3992874669067
149.88502274604608 392.99726926179244 696.3074148868375
156.10482494359098 420.1555178090919 744.2792644979613
155.8773473184908 429.92624005105534 761.4368361859033
152.9230807301113 431.51888198289004 764.1056561138198
150.64394702558425 434.2440953480677 768.777525934378
148.81725648600775 437.59191028958645 774.5483995337289
147.56279590025298 442.01968801354894 782.2269043421871
147.04438890557196 448.0074546527835 792.6422747893544
146.33288393034658 453.0632685196604 801.406386923208
138.1190620984845 434.07662968087374 767.6458257427238
137.36053423539775 437.6949089345983 773.8868165188786
137.4404760885245 443.6411552310878 784.2103316339823
137.74794723199923 450.0017356816502 795.2610352987989
137.4352611953731 454.01208724865864 802.1550429771378
145.20854208567056 484.676374186695 856.1292733367995
144.04705262978774 485.427600484156 857.255722845875
141.92383566156437 482.52883990361937 851.9422000181621
139.24588824299852 477.31056089301285 842.5428010962326
133.81842687853765 462.1702975355195 815.6439695288731
125.46790613801454 436.3297936137176 769.8838240096305
116.2095069549903 406.46285487244376 716.9791495518018
106.61773960175695 375.05902061982914 661.4757740264329
97.73283764634603 345.5865567374954 609.403910713841
87.70463850500558 311.563157562285 549.331213280471
78.09569105369269 278.5631030434743 491.08598154936686
68.60358888533841 245.5760381224956 432.8844215046337
59.76172623328304 214.57429576647763 378.2005782308182

VECTORS L float
24.0824709531845 -34.68576413031182 -61.50372451375018
79.29689375743646 -62.264827392155844 -109.17132400746503
130.0154470480763 -70.88508598772425 -123.13516338682165
741.4703316431633 -302.6635914634115 -542.5909887293511
785.2288921070885 -258.6722478530468 -469.1301352332433
921.0204583893778 -256.49146184066024 -466.1604811562047
1066.2277474113907 -258.7782991038709 -469.2312729801601
1120.451013733491 -241.53309254455792 -437.6267902082548
1172.4553361392693 -227.725093515227 -412.96988119852324
1353.1667922818306 -239.47045174881657 -435.3788759779442
1675.036093097546 -273.0836797465565 -497.4045675820345
1835.7357618676115 -278.1261663914514 -507.21253700935983
1835.5836243246972 -260.31023441271896 -475.14482480804895
1790.937598994231 -239.43199210691182 -436.7116165778246
1881.390997077664 -238.4244076925999 -434.29787435538356
1968.5678635296329 -237.5343523109898 -432.16871968423794
1920.132101147149 -221.48519760052395 -402.437644346337
1916.6211400664124 -211.97012792511396 -384.84667758230614
1768.4527709703823 -188.14719813024647 -341.18538025792833
1861.4155206298922 -190.63485238128428 -345.82283215525655
1910.2369702027365 -189.05556189478074 -342.8619809483882
2090.305618827648 -200.6624004870173 -363.3898573105653
2266.531771358525 -211.23599385771237 -382.43792357710805
2212.139767523078 -200.55379667735863 -362.98554278560897
2419.1607515772866 -213.73025042415006 -386.7402134212502
2581.5965834724316 -222.80382282647247 -402.690286166446
2662.331735789394 -224.71753442950504 -405.91521507764634
2739.892348254963 -226.49836547722137 -408.9513667425919
2823.0164356310106 -228.89757205706604 -413.07920246303865
2907.952688760441 -231.56854113119877 -417.7148254308151
2997.953233547286 -234.8384887342729 -423.422795221575
3081.692807531983 -237.67195712020677 -428.33769207046373
2981.2909825370307 -226.59574148258343 -408.2783857837663
3061.1440022962906 -229.6098892004961 -413.47299004544016
3137.8115574226044 -232.4563095361585 -418.4274491017704
3211.6642843434315 -235.1970098022402 -423.2083363697547
3280.127070061372 -237.68479473628665 -427.4651812818944
3524.2641392957876 -252.85580506610617 -454.6042693804062
3562.1615764409867 -253.26862379801258 -455.144579792275
3571.3455224682666 -251.80914784692777 -452.32397106932586
3544.4142895028895 -247.9653028418113 -445.30516167655526
3470.220428561772 -241.09426038917195 -432.72904085541364
3318.231057670128 -229.09073036035383 -410.9352371418233
3109.647269114603 -213.59796709692603 -382.92736492853453
2886.7160282498726 -197.2250500471861 -353.4583016829058
2660.3746028797855 -180.86141463568205 -324.09159530949626
2411.325008372305 -163.22812986790697 -292.4074087716711
2167.138839363135 -146.1459979238399 -261.7328276909705
1915.6274611796507 -128.75567913137365 -230.54562437357427
1680.3326986293723 -112.62574486518753 -201.6205083117614
24.0824709531845 -34.68576413031182 -61.50372451375018
79.29689375743646 -62.264827392155844 -109.17132400746503