# vtk DataFile Version 4.0
[MyVLM domain - lattices] 
ASCII
DATASET UNSTRUCTURED_GRID
POINTS 152 float
0.0 -0.07370322297134191 -2.2457496595287263
0.0 -1.6885480093072283 -3.8004167785459817
0.0 -3.2949931980555984 -5.301191132345043
0.0 -4.865446200189252 -6.7809562880280545
0.0 -6.399685917622568 -8.239975740032868
0.0 -7.921441488006235 -9.649970203315117
0.0 -9.450368965799766 -10.987514504356444
0.0 -10.991541953206182 -12.246562159504009
0.0 -12.5140203058142 -13.463986197015346
0.0 -14.005135350073616 -14.654884554107305
0.0 -15.465046627752706 -15.819067096304373
0.0 -16.893987626712185 -16.956255563609727
0.0 -18.29221512236334 -18.066143943004466
0.0 -19.66184232367902 -19.1462138101033
0.0 -21.001459390246797 -20.19814534728273
0.0 -22.307975909679886 -21.225621564607287
0.0 -23.580931856373088 -22.22919069924466
0.0 -24.821085311682968 -23.207949305014704
0.0 -26.028982432092057 -24.16124649796722
0.0 -27.204623060109206 -25.089082465792853
0.0 -28.34800704244926 -25.991457391169746
0.0 -29.45913423003305 -26.868371451763526
0.0 -30.538004477987414 -27.71982482022732
0.0 -31.584617645645174 -28.54581766420172
0.0 -32.59897359654516 -29.346350146314826
0.0 -33.58107219843218 -30.121422424182235
0.0 -34.53091332325705 -30.87103465040702
0.0 -35.4484968471766 -31.595186972579757
0.0 -36.3338216239954 -32.29388075668293
0.0 -37.18687343795373 -32.96713294439926
0.0 -38.00764939924548 -33.61494697966557
0.0 -38.79615154192395 -34.237320438391535
0.0 -39.55238182010146 -34.83425099175676
0.0 -40.2763421079494 -35.405736406210785
0.0 -40.96803419969816 -35.951774543473064
0.0 -41.627459809637216 -36.47236336053299
0.0 -42.254891822065204 -36.967177646547256
0.0 -42.85119314553528 -37.435189027147615
0.0 -43.4177330962296 -37.87476561485455
0.0 -43.9552240100839 -38.28505848075752
0.0 -44.46316677253481 -38.666662446430536
0.0 -44.94172469926611 -39.019382879820725
0.0 -45.39846769415902 -39.33419832078206
0.0 -45.8332239130417 -39.61131356522368
0.0 -46.240261852075456 -39.857559153436334
0.0 -46.61567565321424 -40.07758990577854
0.0 -46.958476311667425 -40.27258447226264
0.0 -47.26960932678082 -40.44141605064648
0.0 -47.54824587784174 -40.58507239099199
0.0 -47.79274397397113 -40.705510341828315
0.0 -48.00168219022888 -40.804423891434425
-0.7686761955390344 -2.1646433440459605 0.2461357416613129
-0.8409029948616161 -3.973032778948514 -1.0778738470992335
-0.8940476007249757 -5.725053611754169 -2.40515790409881
-0.9506443374492793 -7.450830899632398 -3.699814784228595
-1.0210144815146838 -9.149437275159055 -4.962949680947967
-1.048631451549771 -10.80125505552107 -6.2179420382277755
-0.9920275022819518 -12.392913649950188 -7.4807263056511974
-0.9074715353829097 -13.911512390092257 -8.766676901076158
-0.8388231939293685 -15.382839519181841 -10.04506059298118
-0.7803448823218929 -16.819993438801895 -11.30026731422252
-0.7251531968841737 -18.224406975205074 -12.530589488966019
-0.671766762046156 -19.598103850017125 -13.73361533969379
-0.6188683613166902 -20.938365590999467 -14.912584615462523
-0.5668565661826578 -22.24429943292246 -16.068561272441983
-0.5162677046190278 -23.51644364366451 -17.200903827954313
-0.4681223452427161 -24.758417665851628 -18.305298798246763
-0.42442582165628834 -25.97063803078699 -19.38124978064234
-0.3846819074085718 -27.152343904343645 -20.42966350194523
-0.3476243488905531 -28.303052646745428 -21.451115149842593
-0.3131098246080671 -29.42279913334181 -22.445563161511387
-0.28048746260446866 -30.511642579684356 -23.412936966605336
-0.2502235469699514 -31.569575415808597 -24.35324558665675
-0.2227998260917326 -32.596597939623344 -25.266488666631755
-0.19746739264611052 -33.59276804538076 -26.15259721084735
-0.17533279734900953 -34.55806265697313 -27.011598720337787
-0.15613374469432648 -35.49251941375922 -27.843448338262046
-0.13998404755873647 -36.39615842600617 -28.64812209813702
-0.12578653595324127 -37.26903279324555 -29.42555671840519
-0.11250427274737486 -38.111181655895145 -30.17570555333305
-0.10008179164308317 -38.922612708524206 -30.89855943289005
-0.08845752889585208 -39.70333154338513 -31.594111692489296
-0.07764231497362577 -40.453341086114186 -32.26235884549326
-0.06766212708627829 -41.172644153398245 -32.90329753510524
-0.0584684819534103 -41.861244932757906 -33.516922770832544
-0.050013688763705585 -42.519147208503945 -34.103230042709164
-0.042252254921319045 -43.14635436532472 -34.662215317020625
-0.03513536582041269 -43.74265774342209 -35.19412726483096
-0.028615518964613278 -44.307385835389624 -35.69976615750428
-0.022687693716904638 -44.838733544025665 -36.18128322611562
-0.017408965386693863 -45.335767197508325 -36.63979117741301
-0.013252482528008399 -45.800006398055345 -37.07347901999415
-0.010166684094042405 -46.231373506710895 -37.48243928036357
-0.00760098697125575 -46.62089785158141 -37.87736278897842
-0.005464879873870877 -46.96855014621728 -38.258284448070235
-0.0039015967321000085 -47.28109086894221 -38.61714743330908
-0.002883995165670249 -47.56299468993959 -38.94861904042823
-0.0022477517166190047 -47.815053825887055 -39.25175514235598
-0.00179874084072329 -48.03557047016503 -39.52857910623079
-0.0014595970466816986 -48.2252230977385 -39.77828235707559
-0.0012027506489664258 -48.385805507718125 -39.99872712835591
-0.0010073243559101815 -48.51887052907213 -40.18806283057015
-0.603592196400244 -2.5219099501577493 -1.0676725942985583
-0.6506064733449719 -4.25972504743386 -2.4438378955606437
-0.6917594768153456 -5.961011616550569 -3.799633185669414
-0.7393720571114861 -7.633242080273272 -5.126153177948827
-0.7761172248991705 -9.271650549708646 -6.429077637609402
-0.7652471076868961 -10.869289571277474 -7.716686217413561
-0.712312139124323 -12.41939862989166 -8.997035785505316
-0.6548605234921042 -13.923577248355333 -10.268220104836423
-0.607188028594223 -15.390956816229876 -11.519356809091718
-0.564561779702275 -16.825422902480906 -12.745815257497162
-0.5238449845988737 -18.228320841266438 -13.94599214323669
-0.48398817126106725 -19.599451384015662 -15.120124921510389
-0.4446468478122555 -20.937756564726016 -16.269474427102658
-0.4061716015506322 -22.243191367960844 -17.39409430732187
-0.369146268698154 -23.516752403559384 -18.492796848811654
-0.3347055625871267 -24.759509356996105 -19.56430725006491
-0.3034153983993225 -25.971370371680997 -20.60873498150276
-0.27461484611217185 -27.152032174630275 -21.626441469793175
-0.24777531506198255 -28.301395104057875 -22.61754548722775
-0.22259898270470088 -29.41949440520462 -23.582005030164098
-0.19901662859040753 -30.506349407370145 -24.51979706283994
-0.1773837648981315 -31.561957346789537 -25.430924878982047
-0.15760020702669117 -32.58634000983061 -26.3153625146083
-0.13980007124817 -33.5795104186565 -27.173094450508994
-0.124299953266251 -34.5414740008968 -28.004114218287068
-0.11104417209489861 -35.47225238012318 -28.8083960479733
-0.09966396881699166 -36.371872978523605 -29.585907259076667
-0.08935905326273105 -37.24037022732426 -30.33660681805967
-0.07971977414642176 -38.0777597694009 -31.060476082468934
-0.07070224520210072 -38.884044449115905 -31.757511662525356
-0.06228744145105419 -39.659227353708424 -32.42770987900059
-0.05448916577246402 -40.40331113507034 -33.071067571492975
-0.04729897838988322 -41.11629889831491 -33.687581039472605
-0.04068081401891846 -41.79819409142913 -34.27724617378862
-0.03459972888188424 -42.448999841352666 -34.84005924789943
-0.029020357778149403 -43.06867349474285 -35.37607109407938
-0.023906581794384738 -43.65702696300445 -35.885505867587575
-0.019238704755569217 -44.21341054750134 -36.36913784910773
-0.015036247163849435 -44.73705741636443 -36.82788091327475
-0.011498042968013347 -45.22821394616371 -37.26144143992619
-0.00878218748326905 -45.68737889826245 -37.669225028415546
-0.006662876649486808 -46.11212580853776 -38.0541234260786
-0.004899700066922485 -46.500004450074606 -38.41905669964397
-0.0035124287272390825 -46.85280110132445 -38.76189604534975
-0.0025445969616638467 -47.173524272741886 -39.079056060053354
-0.0019244050808584702 -47.463537189045205 -39.368912115799226
-0.0015174347090033604 -47.72249481582556 -39.63187540858368
-0.0012218767077768707 -47.95002948854164 -39.8683841039447
-0.0009983803858680466 -48.146759458522844 -40.07770139863935
-0.0008287781268287279 -48.31355678432134 -40.258788013755115

CELLS 100 350
4 0 51 52 1
4 1 52 53 2
4 2 53 54 3
4 3 54 55 4
4 4 55 56 5
4 5 56 57 6
4 6 57 58 7
4 7 58 59 8
4 8 59 60 9
4 9 60 61 10
4 10 61 62 11
4 11 62 63 12
4 12 63 64 13
4 13 64 65 14
4 14 65 66 15
4 15 66 67 16
4 16 67 68 17
4 17 68 69 18
4 18 69 70 19
4 19 70 71 20
4 20 71 72 21
4 21 72 73 22
4 22 73 74 23
4 23 74 75 24
4 24 75 76 25
4 25 76 77 26
4 26 77 78 27
4 27 78 79 28
4 28 79 80 29
4 29 80 81 30
4 30 81 82 31
4 31 82 83 32
4 32 83 84 33
4 33 84 85 34
4 34 85 86 35
4 35 86 87 36
4 36 87 88 37
4 37 88 89 38
4 38 89 90 39
4 39 90 91 40
4 40 91 92 41
4 41 92 93 42
4 42 93 94 43
4 43 94 95 44
4 44 95 96 45
4 45 96 97 46
4 46 97 98 47
4 47 98 99 48
4 48 99 100 49
4 49 100 101 50
1 102
1 103
1 104
1 105
1 106
1 107
1 108
1 109
1 110
1 111
1 112
1 113
1 114
1 115
1 116
1 117
1 118
1 119
1 120
1 121
1 122
1 123
1 124
1 125
1 126
1 127
1 128
1 129
1 130
1 131
1 132
1 133
1 134
1 135
1 136
1 137
1 138
1 139
1 140
1 141
1 142
1 143
1 144
1 145
1 146
1 147
1 148
1 149
1 150
1 151

CELL_TYPES 100
9
9
9
9
9
9
9
9
9
9
9
9
9
9
9
9
9
9
9
9
9
9
9
9
9
9
9
9
9
9
9
9
9
9
9
9
9
9
9
9
9
9
9
9
9
9
9
9
9
9
1
1
1
1
1
1
1
1
1
1
1
1
1
1
1
1
1
1
1
1
1
1
1
1
1
1
1
1
1
1
1
1
1
1
1
1
1
1
1
1
1
1
1
1
1
1
1
1
1
1

CELL_DATA 100

VECTORS S float
-0.0 -0.0 -0.0
-4.045124211983952e-17 -6.1209928272502695e-15 -3.60817245151981e-15
1.024613637161029e-16 1.2250111796514939e-14 7.202267308175252e-15
1.1993805036148e-19 -7.625627461306212e-16 -4.553668291055044e-16
-3.7614133472991516e-17 1.2195060924613918e-14 7.295715589200069e-15
-8.77760060716201e-17 2.4398794663134136e-14 1.4576854300749927e-14
-3.812764289613246e-17 1.2205610122819192e-14 7.278050532193348e-15
-1.0714339384182354e-16 3.6631940093298316e-14 2.1808828737998998e-14
3.65914697030762e-17 -1.2214010735658516e-14 -7.263951717222694e-15
7.998910295446085e-17 -2.4435099175832533e-14 -1.4515960076996386e-14
0.0 -0.0 -0.0
0.0 -0.0 -0.0
-8.653023171192089e-17 2.4443978823339666e-14 1.4500964752368643e-14
0.0 -0.0 -0.0
0.0 -0.0 -0.0
1.425270693580678e-16 -4.890678508021203e-14 -2.897033529211761e-14
0.0 -0.0 -0.0
0.0 -0.0 -0.0
0.0 -0.0 -0.0
0.0 -0.0 -0.0
0.0 -0.0 -0.0
4.9003371957415545e-17 -2.4468836954113416e-14 -1.445915570594862e-14
0.0 -0.0 -0.0
0.0 -0.0 -0.0
0.0 -0.0 -0.0
0.0 -0.0 -0.0
8.065964010727065e-17 -4.895240553949279e-14 -2.889342059543587e-14
0.0 -0.0 -0.0
7.545099200824152e-17 -4.89584737057262e-14 -2.888315127091891e-14
3.660014266284775e-17 -2.4480725888831527e-14 -1.443905423951884e-14
3.560179231588644e-17 -2.4482222227326682e-14 -1.4436519465248236e-14
-3.46525764670101e-17 2.4483730947927198e-14 1.443396290056104e-14
0.0 -0.0 -0.0
-3.301981466560936e-17 2.4486761783664787e-14 1.442882441462953e-14
3.2337639086127535e-17 -2.448827349395993e-14 -1.4426260170551273e-14
3.1785696779670997e-17 -2.4489771002659315e-14 -1.4423719106149536e-14
0.0 -0.0 -0.0
3.06136078305158e-17 -2.449243097525398e-14 -1.441920437041347e-14
3.0007310641707067e-17 -2.4493828801399506e-14 -1.441683103720636e-14
0.0 -0.0 -0.0
0.0 -0.0 -0.0
-2.8427898393882176e-17 2.4497803871605978e-14 1.441007856568576e-14
-2.758919208181902e-17 2.449905963459761e-14 1.4407945127714308e-14
0.0 -0.0 -0.0
0.0 -0.0 -0.0
-2.658116882732004e-17 2.450231794230428e-14 1.4402405210311693e-14
5.239990938999872e-17 -4.9006497994215286e-14 -2.8801643640211473e-14
3.875320417162748e-17 -3.675613617585499e-14 -2.1599085101929243e-14
0.0 -0.0 -0.0
0.0 -0.0 -0.0
-0.0 -0.0 -0.0
-4.045124211983952e-17 -6.1209928272502695e-15 -3.60817245151981e-15
1.024613637161029e-16 1.2250111796514939e-14 7.202267308175252e-15
1.1993805036148e-19 -7.625627461306212e-16 -4.553668291055044e-16
-3.7614133472991516e-17 1.2195060924613918e-14 7.295715589200069e-15
-8.77760060716201e-17 2.4398794663134136e-14 1.4576854300749927e-14
-3.812764289613246e-17 1.2205610122819192e-14 7.278050532193348e-15
-1.0714339384182354e-16 3.6631940093298316e-14 2.1808828737998998e-14
3.65914697030762e-17 -1.2214010735658516e-14 -7.263951717222694e-15
7.998910295446085e-17 -2.4435099175832533e-14 -1.4515960076996386e-14
0.0 -0.0 -0.0
0.0 -0.0 -0.0
-8.653023171192089e-17 2.4443978823339666e-14 1.4500964752368643e-14
0.0 -0.0 -0.0
0.0 -0.0 -0.0
1.425270693580678e-16 -4.890678508021203e-14 -2.897033529211761e-14
0.0 -0.0 -0.0
0.0 -0.0 -0.0
0.0 -0.0 -0.0
0.0 -0.0 -0.0
0.0 -0.0 -0.0
4.9003371957415545e-17 -2.4468836954113416e-14 -1.445915570594862e-14
0.0 -0.0 -0.0
0.0 -0.0 -0.0
0.0 -0.0 -0.0
0.0 -0.0 -0.0
8.065964010727065e-17 -4.895240553949279e-14 -2.889342059543587e-14
0.0 -0.0 -0.0
7.545099200824152e-17 -4.89584737057262e-14 -2.888315127091891e-14
3.660014266284775e-17 -2.4480725888831527e-14 -1.443905423951884e-14
3.560179231588644e-17 -2.4482222227326682e-14 -1.4436519465248236e-14
-3.46525764670101e-17 2.4483730947927198e-14 1.443396290056104e-14
0.0 -0.0 -0.0
-3.301981466560936e-17 2.4486761783664787e-14 1.442882441462953e-14
3.2337639086127535e-17 -2.448827349395993e-14 -1.4426260170551273e-14
3.1785696779670997e-17 -2.4489771002659315e-14 -1.4423719106149536e-14
0.0 -0.0 -0.0
3.06136078305158e-17 -2.449243097525398e-14 -1.441920437041347e-14
3.0007310641707067e-17 -2.4493828801399506e-14 -1.441683103720636e-14
0.0 -0.0 -0.0
0.0 -0.0 -0.0
-2.8427898393882176e-17 2.4497803871605978e-14 1.441007856568576e-14
-2.758919208181902e-17 2.449905963459761e-14 1.4407945127714308e-14
0.0 -0.0 -0.0
0.0 -0.0 -0.0
-2.658116882732004e-17 2.450231794230428e-14 1.4402405210311693e-14
5.239990938999872e-17 -4.9006497994215286e-14 -2.8801643640211473e-14
3.875320417162748e-17 -3.675613617585499e-14 -2.1599085101929243e-14
0.0 -0.0 -0.0
0.0 -0.0 -0.0

SCALARS Gamma float
LOOKUP_TABLE default
-0.0
-0.0
-0.0
51.45064638353156
55.19865864822715
55.198309079102074
52.97736222969828
48.2164582289022
45.10286627414674
47.821316386384424
54.54196200432245
55.185507605157724
51.33841055295592
46.48213300630088
45.444020473856625
44.634339562632796
41.06484717097796
38.90295325502611
34.19874871242224
34.57139550776697
33.905354387032176
35.52530158049716
37.14004765852622
35.03848251187215
37.12769298529403
38.404085285249096
38.51208138498711
38.61720667211601
38.82817449490998
39.09327356771029
39.425207523069396
39.7209829216433
37.72813674508842
38.03857238649539
38.353482905532324
38.659090500070164
38.90941461565289
41.23316379964374
41.1507901392388
40.77261125541091
40.038996515218685
38.7966209266846
36.7385182813228
34.09369606230329
31.41034396835276
28.75682137673822
25.904206253136703
23.150605538042335
20.36906552783596
17.79470027961885
-0.0
-0.0
-0.0
51.45064638353156
55.19865864822715
55.198309079102074
52.97736222969828
48.2164582289022
45.10286627414674
47.821316386384424
54.54196200432245
55.185507605157724
51.33841055295592
46.48213300630088
45.444020473856625
44.634339562632796
41.06484717097796
38.90295325502611
34.19874871242224
34.57139550776697
33.905354387032176
35.52530158049716
37.14004765852622
35.03848251187215
37.12769298529403
38.404085285249096
38.51208138498711
38.61720667211601
38.82817449490998
39.09327356771029
39.425207523069396
39.7209829216433
37.72813674508842
38.03857238649539
38.353482905532324
38.659090500070164
38.90941461565289
41.23316379964374
41.1507901392388
40.77261125541091
40.038996515218685
38.7966209266846
36.7385182813228
34.09369606230329
31.41034396835276
28.75682137673822
25.904206253136703
23.150605538042335
20.36906552783596
17.79470027961885

VECTORS Ftot float
116.33171940026541 19.812041333977174 -34.31546219210298
140.07927212589607 44.0808476640689 -76.35026779487083
143.3973749511299 65.42264631922615 -113.31534739050817
1283.1537043521055 -5.883946147487624 10.191293676447676
1312.2473320302654 -111.80126603457984 193.64547312241598
1405.1356826383155 -145.26364073305882 251.60400624208862
1486.9127278524033 -141.60970007737933 245.2751953786102
1475.2993497656337 -138.40662607774587 239.7273084708422
1488.3834498649342 -148.18713938407134 256.6676544415013
1685.4213731640393 -190.61067095965177 330.14736656690883
2050.6226486889345 -249.40504438450947 431.98220853793936
2209.117429806476 -278.2596042838583 481.9597723136507
2180.4507748546293 -280.587158827703 485.9912150409775
2094.258715327144 -259.2109309809154 448.96650233617294
2166.2485311361534 -251.864839406038 436.24269849143167
2238.393822548221 -250.94770307867716 434.6541717749755
2161.40832587443 -228.4280190317617 395.64893483531984
2140.131128232764 -217.49150285740657 376.70633316353803
1962.2969264934281 -188.1595761206246 325.9019457715439
2061.273683903344 -191.7252849577796 332.0779346424937
2095.166604164409 -190.24796075302208 329.5191340606024
2273.509203583445 -193.70351785261698 335.5043345255561
2452.9912852819816 -204.846301253441 354.8042015135183
2384.0412268906093 -195.0186679385346 337.78224129394397
2597.708184119586 -209.0799579168343 362.137109956318
2761.743844428414 -210.04449992537116 363.80774572113836
2840.0761542345463 -209.69011772774374 363.1939377495497
2915.8308425571868 -210.63592727906578 364.83212794672346
2997.6872452835114 -211.65635734195286 366.59956466121463
3081.915102470638 -213.4517995073047 369.7093617136555
3169.802499002949 -215.9560790326048 374.0469010878298
3253.294627756006 -218.21396529938787 377.95767481960996
3143.714116887022 -210.12577115092492 363.9485116129909
3222.5062840967416 -210.83331307811406 365.1740101793677
3299.3981000169447 -213.9276957876614 370.5336382503663
3373.70000206447 -217.58518422158227 376.8685940460127
3441.992777997153 -219.08636436821138 379.468714331288
3693.7831419571426 -234.4290256319015 406.0429831633181
3730.1729086914233 -234.7305743300919 406.5652808295402
3736.724393185624 -233.2356030224784 403.9759145688958
3706.4818789681935 -231.72253160672503 401.3551980013309
3625.923289189476 -223.50580612123545 387.12341198861697
3464.2177680702675 -209.4870256087908 362.8421718809065
3240.5237176290575 -194.47535612988128 336.8411976370043
3007.1431846491273 -179.3341506120237 310.6158603922329
2770.6294660739027 -166.1027347431483 287.69837585126766
2510.440221064831 -149.58497308323072 259.08877342897733
2255.2504084714765 -133.51863964531694 231.26106762316803
1993.1342672705555 -117.7954643919491 204.0277292280254
1747.9445142970883 -102.80518989949752 178.06381218769562
116.33171940026541 19.812041333977174 -34.31546219210298
140.07927212589607 44.0808476640689 -76.35026779487083
143.3973749511299 65.42264631922615 -113.31534739050817
1283.1537043521055 -5.883946147487624 10.191293676447676
1312.2473320302654 -111.80126603457984 193.64547312241598
1405.1356826383155 -145.26364073305882 251.60400624208862
1486.9127278524033 -141.60970007737933 245.2751953786102
1475.2993497656337 -138.40662607774587 239.7273084708422
1488.3834498649342 -148.18713938407134 256.6676544415013
1685.4213731640393 -190.61067095965177 330.14736656690883
2050.6226486889345 -249.40504438450947 431.98220853793936
2209.117429806476 -278.2596042838583 481.9597723136507
2180.4507748546293 -280.587158827703 485.9912150409775
2094.258715327144 -259.2109309809154 448.96650233617294
2166.2485311361534 -251.864839406038 436.24269849143167
2238.393822548221 -250.94770307867716 434.6541717749755
2161.40832587443 -228.4280190317617 395.64893483531984
2140.131128232764 -217.49150285740657 376.70633316353803
1962.2969264934281 -188.1595761206246 325.9019457715439
2061.273683903344 -191.7252849577796 332.0779346424937
2095.166604164409 -190.24796075302208 329.5191340606024
2273.509203583445 -193.70351785261698 335.5043345255561
2452.9912852819816 -204.846301253441 354.8042015135183
2384.0412268906093 -195.0186679385346 337.78224129394397
2597.708184119586 -209.0799579168343 362.137109956318
2761.743844428414 -210.04449992537116 363.80774572113836
2840.0761542345463 -209.69011772774374 363.1939377495497
2915.8308425571868 -210.63592727906578 364.83212794672346
2997.6872452835114 -211.65635734195286 366.59956466121463
3081.915102470638 -213.4517995073047 369.7093617136555
3169.802499002949 -215.9560790326048 374.0469010878298
3253.294627756006 -218.21396529938787 377.95767481960996
3143.714116887022 -210.12577115092492 363.9485116129909
3222.5062840967416 -210.83331307811406 365.1740101793677
3299.3981000169447 -213.9276957876614 370.5336382503663
3373.70000206447 -217.58518422158227 376.8685940460127
3441.992777997153 -219.08636436821138 379.468714331288
3693.7831419571426 -234.4290256319015 406.0429831633181
3730.1729086914233 -234.7305743300919 406.5652808295402
3736.724393185624 -233.2356030224784 403.9759145688958
3706.4818789681935 -231.72253160672503 401.3551980013309
3625.923289189476 -223.50580612123545 387.12341198861697
3464.2177680702675 -209.4870256087908 362.8421718809065
3240.5237176290575 -194.47535612988128 336.8411976370043
3007.1431846491273 -179.3341506120237 310.6158603922329
2770.6294660739027 -166.1027347431483 287.69837585126766
2510.440221064831 -149.58497308323072 259.08877342897733
2255.2504084714765 -133.51863964531694 231.26106762316803
1993.1342672705555 -117.7954643919491 204.0277292280254
1747.9445142970883 -102.80518989949752 178.06381218769562

VECTORS D float
92.13926829164022 -16.34877551870571 26.799946303884894
60.58640954217333 -19.66308613703224 32.6777101895871
13.097663279305108 -6.139164977467994 10.255583375293238
536.9699009153032 -327.50126694610935 548.5789755424277
522.9159099271155 -390.99367846389606 656.2564974332048
479.3616734813994 -422.9165452097144 710.7658611119471
415.2979397953862 -420.8347293953784 707.9339366902387
349.5206390745697 -398.6486408164547 671.320873396647
311.4018711567683 -393.64296257488587 663.4617368963775
325.33858926144813 -449.97008188898064 759.2392828698578
364.53976361142384 -546.4448122286374 922.3766741348395
360.83331301426733 -581.4099111589658 981.7492117892173
328.6301604349499 -565.26604591588 954.8183818313919
285.4414408900823 -521.053938265849 880.4327987889325
265.67162903032647 -511.9798366687973 865.6803433635844
251.49144252148236 -509.63959930156375 861.5944012380687
221.2953099028863 -469.42551541693035 793.930210612883
202.44053095111457 -448.0034242093318 757.979270800426
170.66326791951536 -392.83447850104733 664.8630330241738
167.58066891677018 -400.1367754221208 677.4313598030395
160.02066172437455 -395.79697002016826 670.1835218562683
160.93719625832236 -410.8775057724492 695.8622873124924
164.7112136373834 -433.14489380945764 733.7208254696769
152.22472083979824 -411.5328859789936 697.2462419687524
158.46522890651505 -439.61320237794683 744.9617691652021
158.3475429803884 -450.00857206556685 762.7175583478787
155.34442037740354 -451.5194387230809 765.4162173470797
153.02366548124814 -454.207833070119 770.1389868915344
151.20114437261597 -457.63414635438204 776.1091366799461
149.9447869394186 -462.1404637612267 783.9171339276578
149.22768486503043 -467.75547647836856 793.6127765294319
148.517129376676 -472.8841035274009 802.4901921459694
140.1689416908756 -452.84888056611743 768.6611313356059
139.40088318680776 -456.495196546466 775.0244790011692
139.4642170209338 -462.4639756167249 785.3355010641604
139.77123536190578 -468.8997814749099 796.4444477239928
139.44086498523853 -472.85440929729594 803.3421168253667
147.1344057923182 -504.0925375220271 856.5629335789775
145.93437140837665 -504.62397236044995 857.647027573899
143.75979148201685 -501.36712947053456 852.2883825459634
141.00154791074843 -495.633129806299 842.7110161141298
135.53194272018507 -479.86621953008824 816.0622695671107
127.05366966802528 -452.83927001241557 770.2445762145633
117.34189492428443 -420.7605104294145 715.8086826767196
107.66569701527477 -388.1858915413048 660.5024656133274
98.68763574848508 -357.5763061162699 608.5144422632793
88.56607972199077 -322.31944198165763 548.5932726236293
78.85508767538703 -288.095666650466 490.40685716103746
69.27320542480413 -253.94487337973658 432.3234265303748
60.34779753848111 -221.8633554346385 377.7441870843499
92.13926829164022 -16.34877551870571 26.799946303884894
60.58640954217333 -19.66308613703224 32.6777101895871
13.097663279305108 -6.139164977467994 10.255583375293238
536.9699009153032 -327.50126694610935 548.5789755424277
522.9159099271155 -390.99367846389606 656.2564974332048
479.3616734813994 -422.9165452097144 710.7658611119471
415.2979397953862 -420.8347293953784 707.9339366902387
349.5206390745697 -398.6486408164547 671.320873396647
311.4018711567683 -393.64296257488587 663.4617368963775
325.33858926144813 -449.97008188898064 759.2392828698578
364.53976361142384 -546.4448122286374 922.3766741348395
360.83331301426733 -581.4099111589658 981.7492117892173
328.6301604349499 -565.26604591588 954.8183818313919
285.4414408900823 -521.053938265849 880.4327987889325
265.67162903032647 -511.9798366687973 865.6803433635844
251.49144252148236 -509.63959930156375 861.5944012380687
221.2953099028863 -469.42551541693035 793.930210612883
202.44053095111457 -448.0034242093318 757.979270800426
170.66326791951536 -392.83447850104733 664.8630330241738
167.58066891677018 -400.1367754221208 677.4313598030395
160.02066172437455 -395.79697002016826 670.1835218562683
160.93719625832236 -410.8775057724492 695.8622873124924
164.7112136373834 -433.14489380945764 733.7208254696769
152.22472083979824 -411.5328859789936 697.2462419687524
158.46522890651505 -439.61320237794683 744.9617691652021
158.3475429803884 -450.00857206556685 762.7175583478787
155.34442037740354 -451.5194387230809 765.4162173470797
153.02366548124814 -454.207833070119 770.1389868915344
151.20114437261597 -457.63414635438204 776.1091366799461
149.9447869394186 -462.1404637612267 783.9171339276578
149.22768486503043 -467.75547647836856 793.6127765294319
148.517129376676 -472.8841035274009 802.4901921459694
140.1689416908756 -452.84888056611743 768.6611313356059
139.40088318680776 -456.495196546466 775.0244790011692
139.4642170209338 -462.4639756167249 785.3355010641604
139.77123536190578 -468.8997814749099 796.4444477239928
139.44086498523853 -472.85440929729594 803.3421168253667
147.1344057923182 -504.0925375220271 856.5629335789775
145.93437140837665 -504.62397236044995 857.647027573899
143.75979148201685 -501.36712947053456 852.2883825459634
141.00154791074843 -495.633129806299 842.7110161141298
135.53194272018507 -479.86621953008824 816.0622695671107
127.05366966802528 -452.83927001241557 770.2445762145633
117.34189492428443 -420.7605104294145 715.8086826767196
107.66569701527477 -388.1858915413048 660.5024656133274
98.68763574848508 -357.5763061162699 608.5144422632793
88.56607972199077 -322.31944198165763 548.5932726236293
78.85508767538703 -288.095666650466 490.40685716103746
69.27320542480413 -253.94487337973658 432.3234265303748
60.34779753848111 -221.8633554346385 377.7441870843499

VECTORS L float
24.192451108625228 36.16081685268289 -61.11540849598787
79.49286258372274 63.743933801101164 -109.02797798445792
130.2997116718248 71.56181129669413 -123.57093076580144
746.1838034368022 321.61732079862185 -538.3876818659802
789.33142210315 279.1924124293162 -462.6110243107886
925.7740091569163 277.6529044766556 -459.1618548698584
1071.6147880570172 279.2250293179991 -462.65874131162855
1125.7787106910637 260.2420147387088 -431.5935649258047
1176.9815787081657 245.4558231908145 -406.7940824548762
1360.0827839025915 259.359410929329 -429.09191630294913
1686.0828850775104 297.0397678441279 -490.3944655969001
1848.2841167922088 303.15030687510756 -499.7894394755666
1851.8206144196797 284.67888708817696 -468.82716679041454
1808.8172744370615 261.8430072849336 -431.4662964527594
1900.5769021058272 260.1149972627593 -429.4376448721529
1986.9023800267387 258.6918962228865 -426.94022946309326
1940.1130159715442 240.99749638516872 -398.28127577756317
1937.6905972816496 230.51192135192534 -381.2729376368881
1791.6336585739134 204.67490238042282 -338.96108725262997
1893.6930149865739 208.41149046434123 -345.35342516054584
1935.145942440034 205.54900926714606 -340.66438779566573
2112.572007325123 217.17398791983223 -360.3579527869364
2288.280071644598 228.29859255601662 -378.9166239561587
2231.8165060508118 216.5142180404591 -359.46400067480874
2439.242955213071 230.53324446111253 -382.82465920888404
2603.3963014480255 239.9640721401957 -398.90981262674035
2684.731733857143 241.82932099533727 -402.2222795975301
2762.8071770759384 243.57190579105304 -405.3068589448107
2846.486100910895 245.97778901242899 -409.50957201873126
2931.97031553122 248.6886642539222 -414.2077722140027
3020.5748141379186 251.7993974457638 -419.5658754416023
3104.7774983793306 254.67013822801306 -424.5325173263595
3003.5451751961464 242.72310941519254 -404.7126197226152
3083.105400909935 245.66188346835193 -409.85046882180137
3159.933882996011 248.53627982906355 -414.80186281379423
3233.9287667025656 251.31459725332758 -419.57585367798015
3302.5519130119146 253.76804492908443 -423.87340249407845
3546.648736164824 269.6635118901256 -450.5199504156597
3584.2385372830468 269.8933980303579 -451.0817467443587
3592.964601703608 268.1315264480561 -448.31246797706734
3565.480331057445 263.910598199574 -441.35581811279906
3490.3913464692914 256.36041340885265 -428.93885757849336
3337.164098402242 243.3522444036247 -407.4024043336567
3123.1818227047734 226.28515429953333 -378.9674850397154
2899.4774876338533 208.85174092928108 -349.8866052210946
2671.9418303254183 191.47357137312176 -320.8160664120118
2421.87414134284 172.73446889842688 -289.50449919465194
2176.3953207960894 154.5770270051491 -259.14578953786946
1923.8610618457515 136.1494089877875 -228.2956973023493
1687.5967167586075 119.05816553514092 -199.68037489665423
24.192451108625228 36.16081685268289 -61.11540849598787
79.49286258372274 63.743933801101164 -109.02797798445792
130.2997116718248 71.56181129669413 -123.57093076580144