# vtk DataFile Version 4.0
[MyVLM domain - lattices] 
ASCII
DATASET UNSTRUCTURED_GRID
POINTS 152 float
0.0 -1.9080246442064461 1.1867036931983297
0.0 -2.446983470535806 3.3625338608426727
0.0 -2.9434695918997775 5.504143380985564
0.0 -3.4397573072894696 7.604078154124337
0.0 -3.9361853586246265 9.66227845091904
0.0 -4.396398597830621 11.685154664862882
0.0 -4.790282202322741 13.678016851696798
0.0 -5.110062962552552 15.642235637990881
0.0 -5.403143929911178 17.569452586816958
0.0 -5.688934638348252 19.456245273656737
0.0 -5.967190655693715 21.30265679849675
0.0 -6.237554257791098 23.10875023775743
0.0 -6.4996320418865015 24.874594958958582
0.0 -6.750186383998334 26.600761842561557
0.0 -6.991377284953843 28.286870022142136
0.0 -7.227939531224705 29.93208462709749
0.0 -7.460577922928034 31.536281382150946
0.0 -7.688131012042586 33.09966508192535
0.0 -7.90976203829131 34.622383269833946
0.0 -8.125471242964654 36.1044359033307
0.0 -8.335258860909104 37.54582294100584
0.0 -8.539125120527189 38.94654434258584
0.0 -8.737070243777477 40.30660006893341
0.0 -8.92909444617458 41.62599008204753
0.0 -9.115197936789151 42.904714345063375
0.0 -9.295380918247885 44.14277282225242
0.0 -9.469643586733516 45.34016547902233
0.0 -9.637986131984823 46.496892281917056
0.0 -9.800410310075055 47.612952921293505
0.0 -9.956937900811681 48.68834355678398
0.0 -10.107573331634532 49.72306340771137
0.0 -10.252313486193167 50.71711302357237
0.0 -10.391155370613799 51.67049293226767
0.0 -10.524096113499295 52.58320364010208
0.0 -10.651132965929182 53.455245631784436
0.0 -10.772263301459637 54.28661937042766
0.0 -10.887069037089454 55.07739857534503
0.0 -10.99422812021456 55.82781636008056
0.0 -11.09164263673048 56.538242643494094
0.0 -11.178221224666817 57.20886986214672
0.0 -11.25472857189908 57.83956318093415
0.0 -11.320914464283195 58.43036671936095
0.0 -11.365181136212852 58.983325476419466
0.0 -11.387791868233888 59.49839302864594
0.0 -11.397527833679014 59.97402101825955
0.0 -11.40037315425177 60.40915428314812
0.0 -11.397843073200344 60.803525645044665
0.0 -11.388489001485077 61.157390529280825
0.0 -11.373580766108526 61.470525031095214
0.0 -11.355634043047836 61.742485568938356
0.0 -11.336826581656343 61.97288814684203
-0.7686761955390344 1.2954814770809928 1.7515682552460277
-0.8409029948616161 1.0530502558114514 3.979684240187281
-0.8940476007249757 0.7795989608145761 6.160620817856318
-0.9506443374492793 0.5212818573769944 8.302516230497952
-1.0210144815146838 0.27667813617471637 10.405119951093917
-1.048631451549771 0.015731763396096277 12.463132289950137
-0.9920275022819518 -0.2820421944773468 14.472941200589283
-0.9074715353829097 -0.6364087080560505 16.431061585419823
-0.8388231939293685 -1.0078578964847429 18.344460102441126
-0.7803448823218929 -1.376321844270684 20.21667526660113
-0.7251531968841737 -1.7396053342362778 22.04809415391676
-0.671766762046156 -2.094607844969883 23.83926346996716
-0.6188683613166902 -2.44549431757577 25.58944882326258
-0.5668565661826578 -2.793632547740299 27.298409034519423
-0.5162677046190278 -3.1381978612291386 28.96628951605549
-0.4681223452427161 -3.4736449502205984 30.594068055256088
-0.42442582165628834 -3.799335651734306 32.181857177472736
-0.3846819074085718 -4.116435631280458 33.72945134442551
-0.3476243488905531 -4.425684335896158 35.23672017165097
-0.3131098246080671 -4.727028333446059 36.703673080676204
-0.28048746260446866 -5.020376900441766 38.130326068500004
-0.2502235469699514 -5.305741634741653 39.51667709010701
-0.2227998260917326 -5.583122079922975 40.862726225976886
-0.19746739264611052 -5.85242953684542 42.16848911616122
-0.17533279734900953 -6.113699360157126 43.433959526681654
-0.15613374469432648 -6.366873883014863 44.65914762575855
-0.13998404755873647 -6.6119222947018494 45.84405884615256
-0.12578653595324127 -6.8487632420159015 46.98870753262821
-0.11250427274737486 -7.0773367583579345 48.09310425891486
-0.10008179164308317 -7.297631054963895 49.15725110368967
-0.08845752889585208 -7.5096375640060495 50.181149577691826
-0.07764231497362577 -7.713351803149581 51.16480047127792
-0.06766212708627829 -7.908769456979835 52.10820454537197
-0.0584684819534103 -8.09588410984306 53.01136293122685
-0.050013688763705585 -8.27468996383875 53.874276651168806
-0.042252254921319045 -8.445181833323494 54.69694661956674
-0.03513536582041269 -8.60767940365502 55.47931646726669
-0.028615518964613278 -8.76321148386778 56.22120478747795
-0.022687693716904638 -8.914543643322988 56.92212393570507
-0.017408965386693863 -9.063106350242357 57.581821681805536
-0.013252482528008399 -9.20657143895658 58.200708544202406
-0.010166684094042405 -9.345057859247019 58.77876354883986
-0.00760098697125575 -9.492309477823904 59.31356328119764
-0.005464879873870877 -9.648371164131193 59.805099829582154
-0.0039015967321000085 -9.802885264463493 60.25519952779851
-0.002883995165670249 -9.948996186363232 60.66507120176571
-0.0022477517166190047 -10.085490183463127 61.03492886771605
-0.00179874084072329 -10.214968446416028 61.364313865555474
-0.0014595970466816986 -10.336391491268438 61.653409484350966
-0.0012027506489664258 -10.447011058338838 61.90270031643441
-0.0010073243559101815 -10.544448075622736 62.11260585638922
-0.603592196400244 0.33632338549188556 2.717874380042616
-0.6506064733449719 0.013436823430312607 4.91094905199488
-0.6917594768153456 -0.31007305557681697 7.062204085021588
-0.7393720571114861 -0.622757835657371 9.173658143727373
-0.7761172248991705 -0.9319192822178517 11.244023729864262
-0.7652471076868961 -1.2482015116746392 13.271423998522245
-0.712312139124323 -1.5819622340594355 15.254032605964372
-0.6548605234921042 -1.9307508382607643 17.192281661048835
-0.607188028594223 -2.2805772238157145 19.08863799595006
-0.564561779702275 -2.6254883536953564 20.944151291713393
-0.5238449845988737 -2.9634230563879127 22.759184988488244
-0.48398817126106725 -3.2946865984143203 24.533685259550655
-0.4446468478122555 -3.62089987772913 26.26736629685827
-0.4061716015506322 -3.9421318619825625 27.96021593955356
-0.369146268698154 -4.25685565631597 29.612503420396802
-0.3347055625871267 -4.563432407502182 31.22451771342936
-0.3034153983993225 -4.862002848001864 32.79623400372138
-0.27461484611217185 -5.153031618982968 34.3275703624986
-0.24777531506198255 -5.436671411160327 35.81849986626827
-0.22259898270470088 -5.712868225692155 37.269032036483146
-0.19901662859040753 -5.981592448373319 38.67917209492659
-0.1773837648981315 -6.242848313537319 40.04891929497137
-0.15760020702669117 -6.496602442532156 41.37827952217441
-0.13980007124817 -6.742834884246422 42.667256294454944
-0.124299953266251 -6.981537323069125 43.915851078079555
-0.11104417209489861 -7.212676629766442 45.12406971462601
-0.09966396881699166 -7.436210791108948 46.291919612160214
-0.08935905326273105 -7.652087055397675 47.41941007222997
-0.07971977414642176 -7.860281456356527 48.50654532073638
-0.07070224520210072 -8.060789636169504 49.55332612607998
-0.06228744145105419 -8.253606864911823 50.55975332227412
-0.05448916577246402 -8.4387290796494 51.525827625723714
-0.04729897838988322 -8.616151523072723 52.45154987527076
-0.04068081401891846 -8.785868912559238 53.33692100238417
-0.03459972888188424 -8.947876457359442 54.18194185180234
-0.029020357778149403 -9.102239506185578 54.98660090078412
-0.023906581794384738 -9.24924622748405 55.750847337457444
-0.019238704755569217 -9.389892017314668 56.474505646640466
-0.015036247163849435 -9.525351730261667 57.15736866977157
-0.011498042968013347 -9.655247895520338 57.79950296513809
-0.00878218748326905 -9.778816366349133 58.40104327242774
-0.006662876649486808 -9.899774701463603 58.96133408573661
-0.004899700066922485 -10.021876866289002 59.4797134796756
-0.0035124287272390825 -10.142386123462119 59.95666401488093
-0.0025445969616638467 -10.25669316755137 60.392998436262545
-0.0019244050808584702 -10.362709417116399 60.78908501707976
-0.0015174347090033604 -10.46096349554036 61.144830546767516
-0.0012218767077768707 -10.552018697580873 61.46013570126193
-0.0009983803858680466 -10.634927807247273 61.735167500298715
-0.0008287781268287279 -10.708354753323611 61.97016152928141

CELLS 100 350
4 0 51 52 1
4 1 52 53 2
4 2 53 54 3
4 3 54 55 4
4 4 55 56 5
4 5 56 57 6
4 6 57 58 7
4 7 58 59 8
4 8 59 60 9
4 9 60 61 10
4 10 61 62 11
4 11 62 63 12
4 12 63 64 13
4 13 64 65 14
4 14 65 66 15
4 15 66 67 16
4 16 67 68 17
4 17 68 69 18
4 18 69 70 19
4 19 70 71 20
4 20 71 72 21
4 21 72 73 22
4 22 73 74 23
4 23 74 75 24
4 24 75 76 25
4 25 76 77 26
4 26 77 78 27
4 27 78 79 28
4 28 79 80 29
4 29 80 81 30
4 30 81 82 31
4 31 82 83 32
4 32 83 84 33
4 33 84 85 34
4 34 85 86 35
4 35 86 87 36
4 36 87 88 37
4 37 88 89 38
4 38 89 90 39
4 39 90 91 40
4 40 91 92 41
4 41 92 93 42
4 42 93 94 43
4 43 94 95 44
4 44 95 96 45
4 45 96 97 46
4 46 97 98 47
4 47 98 99 48
4 48 99 100 49
4 49 100 101 50
1 102
1 103
1 104
1 105
1 106
1 107
1 108
1 109
1 110
1 111
1 112
1 113
1 114
1 115
1 116
1 117
1 118
1 119
1 120
1 121
1 122
1 123
1 124
1 125
1 126
1 127
1 128
1 129
1 130
1 131
1 132
1 133
1 134
1 135
1 136
1 137
1 138
1 139
1 140
1 141
1 142
1 143
1 144
1 145
1 146
1 147
1 148
1 149
1 150
1 151

CELL_TYPES 100
9
9
9
9
9
9
9
9
9
9
9
9
9
9
9
9
9
9
9
9
9
9
9
9
9
9
9
9
9
9
9
9
9
9
9
9
9
9
9
9
9
9
9
9
9
9
9
9
9
9
1
1
1
1
1
1
1
1
1
1
1
1
1
1
1
1
1
1
1
1
1
1
1
1
1
1
1
1
1
1
1
1
1
1
1
1
1
1
1
1
1
1
1
1
1
1
1
1
1
1

CELL_DATA 100

VECTORS S float
4.6440770828808e-19 1.3552731833364498e-18 -1.1101305871003339e-16
-0.0 -0.0 0.0
1.6016538154317999e-18 1.7447916002879597e-18 -2.2203197288597948e-16
-4.3982783275e-21 4.0760853490362996e-19 -2.775258210855912e-17
-1.17778930078299e-18 6.9335665745691995e-18 -4.4403351762245596e-16
-2.81254918734287e-18 1.3613030197444149e-17 -8.880696370200505e-16
2.42624700387091e-18 -1.269974784674111e-17 8.880843062182311e-16
0.0 -0.0 0.0
-2.3402682724912297e-18 1.169822546001142e-17 -8.880982940454908e-16
5.1836963052858e-18 -2.2911663368262158e-17 1.77620151048758e-15
0.0 -0.0 0.0
-2.7763969323208997e-18 1.0986694648780389e-17 -8.881061250671455e-16
2.79961814222055e-18 -1.0907720214606909e-17 8.881070256444262e-16
2.59862271681229e-18 -1.0553519989691919e-17 8.88111916143914e-16
0.0 -0.0 0.0
2.2269516844348e-18 -9.994090269285229e-18 8.881193974161901e-16
-2.0513678379804997e-18 9.77086161585232e-18 -8.881223042882601e-16
0.0 -0.0 0.0
0.0 -0.0 0.0
8.557185526716999e-19 -4.64594214933238e-18 4.44064082394148e-16
-8.337661239214199e-19 4.62902629092482e-18 -4.440643008111566e-16
1.5432270221960999e-18 -9.120521637915239e-18 8.881302493195591e-16
-1.4931506201942599e-18 9.00943958814337e-18 -8.881314687142578e-16
0.0 -0.0 0.0
-1.40705846177152e-18 8.81603635301196e-18 -8.881335501547721e-16
1.3120686611951199e-18 -8.71979080903487e-18 8.881346457295126e-16
0.0 -0.0 0.0
1.2232896486883399e-18 -8.55820521640564e-18 8.881363442101224e-16
-1.1843573640170999e-18 8.482403495109339e-18 -8.881371241816166e-16
-1.15158308625197e-18 8.40919655390268e-18 -8.881378634484204e-16
0.0 -0.0 0.0
0.0 -0.0 0.0
5.415717069423999e-19 -4.09478120599762e-18 4.4407000098206836e-16
0.0 -0.0 0.0
1.53689870587987e-18 -1.199573268578432e-17 1.332212737173375e-15
5.037197359135899e-19 -3.95278899555125e-18 4.440713321425255e-16
0.0 -0.0 0.0
9.7184407316598e-19 -7.733653925976659e-18 8.881442176454579e-16
-4.7637810055942e-19 3.82312827470443e-18 -4.4407249752642135e-16
-4.6733297207999e-19 3.7810343132019896e-18 -4.440728675394035e-16
0.0 -0.0 0.0
4.5156227898322e-19 -3.70230540092829e-18 4.44073547209783e-16
4.3853220162744995e-19 -3.66493469019876e-18 4.4407387026088087e-16
4.3112748292298e-19 -3.63043067102518e-18 4.4407416093203317e-16
4.2463468883066997e-19 -3.59835657340145e-18 4.4407442824441567e-16
-4.2347930003133997e-19 3.56949020111867e-18 -4.440746623150656e-16
0.0 -0.0 0.0
0.0 -0.0 0.0
0.0 -0.0 0.0
0.0 -0.0 0.0
4.6440770828808e-19 1.3552731833364498e-18 -1.1101305871003339e-16
-0.0 -0.0 0.0
1.6016538154317999e-18 1.7447916002879597e-18 -2.2203197288597948e-16
-4.3982783275e-21 4.0760853490362996e-19 -2.775258210855912e-17
-1.17778930078299e-18 6.9335665745691995e-18 -4.4403351762245596e-16
-2.81254918734287e-18 1.3613030197444149e-17 -8.880696370200505e-16
2.42624700387091e-18 -1.269974784674111e-17 8.880843062182311e-16
0.0 -0.0 0.0
-2.3402682724912297e-18 1.169822546001142e-17 -8.880982940454908e-16
5.1836963052858e-18 -2.2911663368262158e-17 1.77620151048758e-15
0.0 -0.0 0.0
-2.7763969323208997e-18 1.0986694648780389e-17 -8.881061250671455e-16
2.79961814222055e-18 -1.0907720214606909e-17 8.881070256444262e-16
2.59862271681229e-18 -1.0553519989691919e-17 8.88111916143914e-16
0.0 -0.0 0.0
2.2269516844348e-18 -9.994090269285229e-18 8.881193974161901e-16
-2.0513678379804997e-18 9.77086161585232e-18 -8.881223042882601e-16
0.0 -0.0 0.0
0.0 -0.0 0.0
8.557185526716999e-19 -4.64594214933238e-18 4.44064082394148e-16
-8.337661239214199e-19 4.62902629092482e-18 -4.440643008111566e-16
1.5432270221960999e-18 -9.120521637915239e-18 8.881302493195591e-16
-1.4931506201942599e-18 9.00943958814337e-18 -8.881314687142578e-16
0.0 -0.0 0.0
-1.40705846177152e-18 8.81603635301196e-18 -8.881335501547721e-16
1.3120686611951199e-18 -8.71979080903487e-18 8.881346457295126e-16
0.0 -0.0 0.0
1.2232896486883399e-18 -8.55820521640564e-18 8.881363442101224e-16
-1.1843573640170999e-18 8.482403495109339e-18 -8.881371241816166e-16
-1.15158308625197e-18 8.40919655390268e-18 -8.881378634484204e-16
0.0 -0.0 0.0
0.0 -0.0 0.0
5.415717069423999e-19 -4.09478120599762e-18 4.4407000098206836e-16
0.0 -0.0 0.0
1.53689870587987e-18 -1.199573268578432e-17 1.332212737173375e-15
5.037197359135899e-19 -3.95278899555125e-18 4.440713321425255e-16
0.0 -0.0 0.0
9.7184407316598e-19 -7.733653925976659e-18 8.881442176454579e-16
-4.7637810055942e-19 3.82312827470443e-18 -4.4407249752642135e-16
-4.6733297207999e-19 3.7810343132019896e-18 -4.440728675394035e-16
0.0 -0.0 0.0
4.5156227898322e-19 -3.70230540092829e-18 4.44073547209783e-16
4.3853220162744995e-19 -3.66493469019876e-18 4.4407387026088087e-16
4.3112748292298e-19 -3.63043067102518e-18 4.4407416093203317e-16
4.2463468883066997e-19 -3.59835657340145e-18 4.4407442824441567e-16
-4.2347930003133997e-19 3.56949020111867e-18 -4.440746623150656e-16
0.0 -0.0 0.0
0.0 -0.0 0.0
0.0 -0.0 0.0
0.0 -0.0 0.0

SCALARS Gamma float
LOOKUP_TABLE default
-0.0
-0.0
-0.0
50.97538201821198
54.53423458260467
54.50780518274213
52.431669948810814
47.779331347639975
44.779324037635604
47.32208496733576
53.81246438253134
54.43123210486749
50.36241546209024
45.474825387327044
44.465335608394646
43.67395211772622
40.08848983193711
37.929408373041625
33.19619288385451
33.502063256574516
33.10080608727205
34.741988390313416
36.39275937322918
34.379682543763835
36.472564554849306
37.71193490646562
37.822958594779394
37.93492855314477
38.150177714545954
38.420942157812924
38.747790564896896
39.059756336239175
37.11694305734998
37.43942637795268
37.76496273072925
38.07996567828419
38.33914429080281
40.66777459951432
40.600309251654956
40.23916819070315
39.52407822367074
38.30429058033184
36.27827289905102
33.6719091693233
31.018743912962243
28.406554167383188
25.58900840707069
22.877366300812653
20.12865678607669
17.58462346930845
-0.0
-0.0
-0.0
50.97538201821198
54.53423458260467
54.50780518274213
52.431669948810814
47.779331347639975
44.779324037635604
47.32208496733576
53.81246438253134
54.43123210486749
50.36241546209024
45.474825387327044
44.465335608394646
43.67395211772622
40.08848983193711
37.929408373041625
33.19619288385451
33.502063256574516
33.10080608727205
34.741988390313416
36.39275937322918
34.379682543763835
36.472564554849306
37.71193490646562
37.822958594779394
37.93492855314477
38.150177714545954
38.420942157812924
38.747790564896896
39.059756336239175
37.11694305734998
37.43942637795268
37.76496273072925
38.07996567828419
38.33914429080281
40.66777459951432
40.600309251654956
40.23916819070315
39.52407822367074
38.30429058033184
36.27827289905102
33.6719091693233
31.018743912962243
28.406554167383188
25.58900840707069
22.877366300812653
20.12865678607669
17.58462346930845

VECTORS Ftot float
114.83662879301151 -39.350749547037935 2.18440540916894e-14
138.42860424117822 -87.65631026591397 4.865902695545135e-14
141.9574196240698 -130.31163305245414 7.233748769566848e-14
1262.9911677873556 13.628239365540852 -7.565192564363081e-15
1292.0685641971158 219.4807700225907 -1.2183630217076767e-13
1383.6004969940523 285.8617366586234 -1.58685140948866e-13
1467.451202411863 280.35195077452187 -1.5562659537422395e-13
1458.3370540537737 274.94481927996867 -1.5262503443300961e-13
1474.6835031703922 295.0152590436039 -1.6376636660297953e-13
1665.0678918607914 376.7167027708954 -2.091197785885566e-13
2020.5736561666142 491.5073493286705 -2.7284138799858086e-13
2176.1446777561714 549.9234847925002 -3.052688572993633e-13
2138.4009751512003 548.8503598907981 -3.046731533122792e-13
2048.6365134265316 504.4414932156184 -2.8002128017213286e-13
2118.8819645174813 489.95590320655964 -2.7198016239546435e-13
2189.503540076134 487.880183715509 -2.708279066096506e-13
2109.4212540812696 442.8676904352124 -2.458409533918658e-13
2086.1890292888215 420.5377627512385 -2.334453534653847e-13
1904.4338232675395 362.29196430250755 -2.011124402026565e-13
1997.3677681461943 367.887631996596 -2.0421865975872057e-13
2045.6357815702172 368.45368968814523 -2.0453288489993265e-13
2223.4325775069838 376.2132662868208 -2.0884031520052867e-13
2403.731872681535 398.37480471019825 -2.2114244030990283e-13
2339.3409411303624 379.5506321730365 -2.1069292542476624e-13
2552.017553881116 407.3075189340473 -2.2610109281175968e-13
2712.2407595615605 408.11140773576074 -2.2654734074020995e-13
2789.501290818231 407.5483164810938 -2.262347623022618e-13
2864.432610970707 409.4352348140156 -2.2728221239166037e-13
2945.5455840239733 411.2724188961338 -2.2830205442588153e-13
3029.174626717076 414.8251551822592 -2.302742192385204e-13
3115.7961039558613 419.59720420414953 -2.3292323858789163e-13
3199.597621232977 424.2577249235645 -2.355103472926101e-13
3093.1814417776563 409.10111408451553 -2.2709673812821262e-13
3172.250479933437 409.98394749760934 -2.2758680911927514e-13
3249.268326301225 416.2977299141083 -2.310916624249104e-13
3323.6818946045887 423.5500979422767 -2.351175354088743e-13
3392.0575479156832 426.7362002343735 -2.368861774706227e-13
3643.3719804597604 457.8417264904236 -2.5415321319189697e-13
3680.5046229713817 458.6065848200486 -2.5457779485596e-13
3688.0585739458375 455.84124125747564 -2.5304272080887633e-13
3658.9851492653206 453.3828533305332 -2.516780413689003e-13
3580.1696069489553 436.6656371607965 -2.423981222192616e-13
3421.051642725585 409.3500800376304 -2.2723494199496052e-13
3200.646589959041 380.0889847774714 -2.1099177115317148e-13
2969.847869829337 350.46566407598186 -1.9454752479884738e-13
2737.067023679455 324.72178434984835 -1.802568007912805e-13
2480.0611561002825 292.4224290219167 -1.6232705680847128e-13
2228.7788779382977 261.1285114699886 -1.4495544291003564e-13
1969.7387594812465 230.38937432499233 -1.2789179400229324e-13
1727.4219579180478 201.06334761516788 -1.116125789652838e-13
114.83662879301151 -39.350749547037935 2.18440540916894e-14
138.42860424117822 -87.65631026591397 4.865902695545135e-14
141.9574196240698 -130.31163305245414 7.233748769566848e-14
1262.9911677873556 13.628239365540852 -7.565192564363081e-15
1292.0685641971158 219.4807700225907 -1.2183630217076767e-13
1383.6004969940523 285.8617366586234 -1.58685140948866e-13
1467.451202411863 280.35195077452187 -1.5562659537422395e-13
1458.3370540537737 274.94481927996867 -1.5262503443300961e-13
1474.6835031703922 295.0152590436039 -1.6376636660297953e-13
1665.0678918607914 376.7167027708954 -2.091197785885566e-13
2020.5736561666142 491.5073493286705 -2.7284138799858086e-13
2176.1446777561714 549.9234847925002 -3.052688572993633e-13
2138.4009751512003 548.8503598907981 -3.046731533122792e-13
2048.6365134265316 504.4414932156184 -2.8002128017213286e-13
2118.8819645174813 489.95590320655964 -2.7198016239546435e-13
2189.503540076134 487.880183715509 -2.708279066096506e-13
2109.4212540812696 442.8676904352124 -2.458409533918658e-13
2086.1890292888215 420.5377627512385 -2.334453534653847e-13
1904.4338232675395 362.29196430250755 -2.011124402026565e-13
1997.3677681461943 367.887631996596 -2.0421865975872057e-13
2045.6357815702172 368.45368968814523 -2.0453288489993265e-13
2223.4325775069838 376.2132662868208 -2.0884031520052867e-13
2403.731872681535 398.37480471019825 -2.2114244030990283e-13
2339.3409411303624 379.5506321730365 -2.1069292542476624e-13
2552.017553881116 407.3075189340473 -2.2610109281175968e-13
2712.2407595615605 408.11140773576074 -2.2654734074020995e-13
2789.501290818231 407.5483164810938 -2.262347623022618e-13
2864.432610970707 409.4352348140156 -2.2728221239166037e-13
2945.5455840239733 411.2724188961338 -2.2830205442588153e-13
3029.174626717076 414.8251551822592 -2.302742192385204e-13
3115.7961039558613 419.59720420414953 -2.3292323858789163e-13
3199.597621232977 424.2577249235645 -2.355103472926101e-13
3093.1814417776563 409.10111408451553 -2.2709673812821262e-13
3172.250479933437 409.98394749760934 -2.2758680911927514e-13
3249.268326301225 416.2977299141083 -2.310916624249104e-13
3323.6818946045887 423.5500979422767 -2.351175354088743e-13
3392.0575479156832 426.7362002343735 -2.368861774706227e-13
3643.3719804597604 457.8417264904236 -2.5415321319189697e-13
3680.5046229713817 458.6065848200486 -2.5457779485596e-13
3688.0585739458375 455.84124125747564 -2.5304272080887633e-13
3658.9851492653206 453.3828533305332 -2.516780413689003e-13
3580.1696069489553 436.6656371607965 -2.423981222192616e-13
3421.051642725585 409.3500800376304 -2.2723494199496052e-13
3200.646589959041 380.0889847774714 -2.1099177115317148e-13
2969.847869829337 350.46566407598186 -1.9454752479884738e-13
2737.067023679455 324.72178434984835 -1.802568007912805e-13
2480.0611561002825 292.4224290219167 -1.6232705680847128e-13
2228.7788779382977 261.1285114699886 -1.4495544291003564e-13
1969.7387594812465 230.38937432499233 -1.2789179400229324e-13
1727.4219579180478 201.06334761516788 -1.116125789652838e-13

VECTORS D float
90.69641865969326 31.07869059726422 0.7588317343764358
59.18356754250232 37.47645356671194 0.6868539993510974
12.120366491185038 11.12604578783682 0.17486338550895672
525.8655507733513 629.3825779286582 9.160546086622169
510.98613111787637 750.8782133993151 10.369555227660912
468.04286832965676 812.8778308559586 10.978122055863896
406.6356110618502 811.6702288827883 10.496085499141172
342.89158097399667 770.9414799476348 9.615723082385633
306.22522394243634 763.5306228127763 9.25044474304212
318.44887450209484 869.6822963102699 10.288880877712206
355.7783476205167 1053.5555052762986 12.214543458657207
352.5032292001584 1122.4757699439792 12.784068626918023
318.6777378660322 1083.7848128983633 12.306450934281596
275.83244302697267 995.5179158438168 11.02274791557251
256.7622144255567 978.4790398608776 10.599096934429772
243.03214396537248 973.6351133941132 10.347005590651147
213.26118440872068 894.7263894951071 9.350931241027249
194.6701779514019 852.420138066498 8.779373187549778
163.3598963586718 744.3317784179964 7.568486345102944
159.97077309800662 756.4010654178104 7.605446526975935
154.36385985479043 755.0386306010289 7.580862295082249
155.55072825169577 785.5878770631949 7.797190951872207
159.42397351920863 829.5886412254338 8.147537832064527
147.46276823324635 789.0884168034905 7.674692839789999
153.640407759871 843.8852365955331 8.13339602645226
153.28632776300523 862.7084951453074 8.243699820969097
150.3856909038283 865.8480162880254 8.20590793085711
148.14818948936707 871.2420533879211 8.191355062552221
146.35492299043392 877.8672129753545 8.189149160364208
145.14994491180647 886.8009969025983 8.208333374408971
144.39765178127487 897.555564318523 8.292970958156488
143.80201190922318 908.0882076527973 8.29462083217539
135.84063615515106 870.5131579383574 7.861358492545205
135.0614087762215 877.4258841409107 7.834546984277999
135.19716788281957 889.5282534471046 7.8536696884055655
135.54053712292696 902.3610279148395 7.878392601277121
135.28103611323064 910.5368262434745 7.862211198892327
143.05697285126493 972.6144361966168 8.312652647039089
141.94083129923564 974.1380942236565 8.234325269534233
139.87114519489734 968.3065203555382 8.097395819505419
137.2742086758192 957.9685537683739 7.927726897301077
131.8774158870956 927.1088014397303 7.595338829675203
123.6533631141897 875.1792073742241 7.100730006539007
114.22458958654936 813.4379751743295 6.539188878178378
104.79888604928715 750.4933940149165 5.981073050706562
96.09241616800149 691.6139468603847 5.467585212991407
86.23928118407115 623.4902299562833 4.892692488817871
76.81650982978167 557.5705482371362 4.346198607551624
67.48554739011915 491.5321806809954 3.8087025692542493
58.79090790292313 429.4632650321295 3.3106069594630156
90.69641865969326 31.07869059726422 0.7588317343764358
59.18356754250232 37.47645356671194 0.6868539993510974
12.120366491185038 11.12604578783682 0.17486338550895672
525.8655507733513 629.3825779286582 9.160546086622169
510.98613111787637 750.8782133993151 10.369555227660912
468.04286832965676 812.8778308559586 10.978122055863896
406.6356110618502 811.6702288827883 10.496085499141172
342.89158097399667 770.9414799476348 9.615723082385633
306.22522394243634 763.5306228127763 9.25044474304212
318.44887450209484 869.6822963102699 10.288880877712206
355.7783476205167 1053.5555052762986 12.214543458657207
352.5032292001584 1122.4757699439792 12.784068626918023
318.6777378660322 1083.7848128983633 12.306450934281596
275.83244302697267 995.5179158438168 11.02274791557251
256.7622144255567 978.4790398608776 10.599096934429772
243.03214396537248 973.6351133941132 10.347005590651147
213.26118440872068 894.7263894951071 9.350931241027249
194.6701779514019 852.420138066498 8.779373187549778
163.3598963586718 744.3317784179964 7.568486345102944
159.97077309800662 756.4010654178104 7.605446526975935
154.36385985479043 755.0386306010289 7.580862295082249
155.55072825169577 785.5878770631949 7.797190951872207
159.42397351920863 829.5886412254338 8.147537832064527
147.46276823324635 789.0884168034905 7.674692839789999
153.640407759871 843.8852365955331 8.13339602645226
153.28632776300523 862.7084951453074 8.243699820969097
150.3856909038283 865.8480162880254 8.20590793085711
148.14818948936707 871.2420533879211 8.191355062552221
146.35492299043392 877.8672129753545 8.189149160364208
145.14994491180647 886.8009969025983 8.208333374408971
144.39765178127487 897.555564318523 8.292970958156488
143.80201190922318 908.0882076527973 8.29462083217539
135.84063615515106 870.5131579383574 7.861358492545205
135.0614087762215 877.4258841409107 7.834546984277999
135.19716788281957 889.5282534471046 7.8536696884055655
135.54053712292696 902.3610279148395 7.878392601277121
135.28103611323064 910.5368262434745 7.862211198892327
143.05697285126493 972.6144361966168 8.312652647039089
141.94083129923564 974.1380942236565 8.234325269534233
139.87114519489734 968.3065203555382 8.097395819505419
137.2742086758192 957.9685537683739 7.927726897301077
131.8774158870956 927.1088014397303 7.595338829675203
123.6533631141897 875.1792073742241 7.100730006539007
114.22458958654936 813.4379751743295 6.539188878178378
104.79888604928715 750.4933940149165 5.981073050706562
96.09241616800149 691.6139468603847 5.467585212991407
86.23928118407115 623.4902299562833 4.892692488817871
76.81650982978167 557.5705482371362 4.346198607551624
67.48554739011915 491.5321806809954 3.8087025692542493
58.79090790292313 429.4632650321295 3.3106069594630156

VECTORS L float
24.140210133318273 -70.42944014430216 -0.7588317343764138
79.24503669867592 -125.13276383262591 -0.6868539993510486
129.83705313288476 -141.43767884029097 -0.17486338550888428
737.1256170140043 -615.7543385631175 -9.16054608662218
781.0824330792395 -531.3974433767246 -10.369555227661037
915.5576286643959 -527.0160941973351 -10.978122055864054
1060.8155913500132 -531.3182781082662 -10.496085499141325
1115.4454730797775 -495.9966606676662 -9.61572308238579
1168.458279227956 -468.5153637691724 -9.250444743042284
1346.6190173586965 -492.9655935393743 -10.288880877712412
1664.7953085460972 -562.0481559476282 -12.21454345865748
1823.6414485560128 -572.552285151479 -12.784068626918327
1819.7232372851684 -534.9344530075653 -12.306450934281903
1772.8040703995591 -491.07642262819843 -11.02274791557279
1862.1197500919245 -488.523136654318 -10.599096934430044
1946.4713961107618 -485.7549296786042 -10.347005590651419
1896.160069672549 -451.85869905989466 -9.350931241027496
1891.51885133742 -431.8823753152594 -8.779373187550013
1741.073926908868 -382.03981411548864 -7.568486345103146
1837.396995048188 -388.5134334212145 -7.605446526976141
1891.2719217154272 -386.5849409128837 -7.580862295082453
2067.8818492552878 -409.374610776374 -7.79719095187241
2244.3078991623265 -431.2138365152356 -8.14753783206475
2191.878172897116 -409.53778463045404 -7.674692839790211
2398.377146121245 -436.5777176614857 -8.133396026452484
2558.9544317985556 -454.59708740954676 -8.243699820969324
2639.115599914403 -458.2996998069314 -8.205907930857334
2716.2844214813404 -461.8068185739055 -8.191355062552448
2799.190661033539 -466.59479407922055 -8.189149160364435
2884.02468180527 -471.97584172033913 -8.2083333744092
2971.398452174587 -477.9583601143735 -8.292970958156722
3055.7956093237535 -483.8304827292329 -8.294620832175625
2957.3408056225053 -461.41204385384185 -7.861358492545429
3037.189071157216 -467.44193664330146 -7.8345469842782265
3114.071158418406 -473.23052353299624 -7.8536696884058
3188.141357481663 -478.81092997256314 -7.878392601277359
3256.776511802453 -483.80062600910105 -7.862211198892564
3500.3150076084958 -514.772709706193 -8.312652647039343
3538.5637916721475 -515.5315094036077 -8.234325269534489
3548.1874287509404 -512.4652790980623 -8.097395819505671
3521.7109405895026 -504.5857004378412 -7.927726897301334