# vtk DataFile Version 4.0
[MyVLM domain - lattices] 
ASCII
DATASET UNSTRUCTURED_GRID
POINTS 152 float
0.0 0.3173868304691335 -2.2244301063855865
0.0 -1.0029597229297489 -4.035893192909114
0.0 -2.3243926679718347 -5.792823691600289
0.0 -3.6140284375549805 -7.522814191486315
0.0 -4.871603537241333 -9.226085790652812
0.0 -6.12539725207526 -10.87890935144909
0.0 -7.39883475557512 -12.461628819415637
0.0 -8.697962531393749 -13.969170592349434
0.0 -9.98590755127362 -15.432474814661765
0.0 -11.247571877997881 -16.864210159902825
0.0 -12.483145646042036 -18.264217086304345
0.0 -13.692907115402921 -19.63226210600561
0.0 -14.877162299099423 -20.96808844359533
0.0 -16.038429621516844 -22.269582890100665
0.0 -17.175028900278683 -23.538155285934035
0.0 -18.283277125320396 -24.77689604348222
0.0 -19.3626260594743 -25.986265188350426
0.0 -20.41397914892056 -27.165504639182096
0.0 -21.437987277609352 -28.31406823949468
0.0 -22.43465025785003 -29.431956146779346
0.0 -23.403967906964457 -30.51916851432124
0.0 -24.34594004728701 -31.57570549119952
0.0 -25.26056650616456 -32.60156722228737
0.0 -26.14784711595651 -33.59675384825195
0.0 -27.007781714034767 -34.561265505554445
0.0 -27.840370142783723 -35.495102326450024
0.0 -28.64561224960032 -36.39826443898789
0.0 -29.423507886893976 -37.27075196701123
0.0 -30.174055688682202 -38.112566056715444
0.0 -30.89723871328228 -38.92372092386026
0.0 -31.593053516757394 -39.70421945825178
0.0 -32.26150252319786 -40.45405962583672
0.0 -32.902588061424076 -41.17323947250275
0.0 -33.5163123649865 -41.861757124078494
0.0 -34.102677572165675 -42.51961078633354
0.0 -34.66168572597222 -43.146798744978426
0.0 -35.193662037249425 -43.7430481157145
0.0 -35.699634880365544 -44.30749598998864
0.0 -36.18123614280012 -44.838773051618666
0.0 -36.63931475346366 -45.336166964668834
0.0 -37.07327589078216 -45.80017684370254
0.0 -37.4833141868085 -46.23063937303599
0.0 -37.878451101688704 -46.619984648787955
0.0 -38.25848183951363 -46.96838451513028
0.0 -38.61657585999253 -47.281570475901674
0.0 -38.94807834276689 -47.56344838914816
0.0 -39.25181063782436 -47.81500725966037
0.0 -39.5288995474071 -48.03530158809252
0.0 -39.778357321453186 -48.22516019515727
0.0 -39.998227111433465 -48.38622507173369
0.0 -40.18681492906898 -48.51991764276188
-0.7686761955390344 -2.1744985707209294 -0.13348998531095768
-0.8409029948616161 -3.7255026543765224 -1.7514084232678166
-0.8940476007249757 -5.220425896218094 -3.362763277901707
-0.9506443374492793 -6.695169941354469 -4.937429492043157
-1.0210144815146838 -8.148629596326264 -6.476334433116312
-1.048631451549771 -9.557425417162634 -7.999095783934241
-0.9920275022819518 -10.905622954280398 -9.519084135265201
-0.9074715353829097 -12.177847789821634 -11.049200155463344
-0.8388231939293685 -13.40483315530782 -12.56365560129411
-0.7803448823218929 -14.602189117882697 -14.049352071174532
-0.7251531968841737 -15.77162325338042 -15.504856738851963
-0.671766762046156 -16.915547339318888 -16.928145882700655
-0.6188683613166902 -18.030721626641398 -18.32193797495919
-0.5668565661826578 -19.11608215917819 -19.68712578085721
-0.5162677046190278 -20.172270419607127 -21.02317103251631
-0.4681223452427161 -21.20359989168095 -22.32645428731047
-0.42442582165628834 -22.21056697807665 -23.59655901393651
-0.3846819074085718 -23.192264951990058 -24.834246046521407
-0.3476243488905531 -24.148118625734 -26.039998024841303
-0.3131098246080671 -25.07816956213152 -27.213780073546726
-0.28048746260446866 -25.982488331528895 -28.35553297708614
-0.2502235469699514 -26.861065912393812 -29.46526430542397
-0.2227998260917326 -27.71390265976015 -30.542973760651435
-0.19746739264611052 -28.5410675693109 -31.588603448516366
-0.17533279734900953 -29.34253314001183 -32.60217644512646
-0.15613374469432648 -30.118344228703936 -33.58365511112297
-0.13998404755873647 -30.86852480187034 -34.533019336238766
-0.12578653595324127 -31.59313814106856 -35.450216020942264
-0.11250427274737486 -32.2922308920321 -36.33520602481568
-0.10008179164308317 -32.96581222479152 -37.18798165328977
-0.08845752889585208 -33.61388880393369 -38.008537314112125
-0.07764231497362577 -34.23646411609615 -38.796870081646475
-0.06766212708627829 -34.83354151807561 -39.55297713920596
-0.0584684819534103 -35.40512600036476 -40.27685429926998
-0.050013688763705585 -35.95122207292959 -40.96849777752775
-0.042252254921319045 -36.471833769484604 -41.627904189290916
-0.03513536582041269 -36.966712418965734 -42.255282194357605
-0.028615518964613278 -37.4350577500089 -42.85130330013428
-0.022687693716904638 -37.87471853153907 -43.41777260382259
-0.017408965386693863 -38.28458205680818 -43.95562377724441
-0.013252482528008399 -38.66645931721856 -44.463337218182
-0.010166684094042405 -39.020257786265674 -44.94099056559119
-0.00760098697125575 -39.33528663349236 -45.397554491365554
-0.005464879873870877 -39.61151095666709 -45.83305828195469
-0.0039015967321000085 -39.85698758011979 -46.24074145903491
-0.002883995165670249 -40.07704920811722 -46.6161293524228
-0.0022477517166190047 -40.27263996773103 -46.95842974544074
-0.00179874084072329 -40.4417364918228 -47.26934044470831
-0.0014595970466816986 -40.5851473553696 -47.5481829752605
-0.0012027506489664258 -40.705010324905885 -47.79316353798669
-0.0010073243559101815 -40.80317598993326 -48.00272930391863
-0.603592196400244 -2.2981970709691217 -1.4893773156288774
-0.6506064733449719 -3.77064225533568 -3.1464039985022465
-0.6917594768153456 -5.210651077280563 -4.777027024115149
-0.7393720571114861 -6.627128823479813 -6.373773969702192
-0.7761172248991705 -8.01439572872291 -7.941410724156696
-0.7652471076868961 -9.364172140247435 -9.486884741057883
-0.712312139124323 -10.668401189909371 -11.016956535493838
-0.6548605234921042 -11.928989114756966 -12.530026584660446
-0.607188028594223 -13.156818281105382 -14.016963498996313
-0.564561779702275 -14.356519329728657 -15.47388170953583
-0.5238449845988737 -15.529695567442857 -16.89943588212098
-0.48398817126106725 -16.6761095390479 -18.29382526532256
-0.4446468478122555 -17.79450040975938 -19.658107825143148
-0.4061716015506322 -18.884814532268933 -20.992328577019407
-0.369146268698154 -19.948239619932913 -22.295490911112072
-0.3347055625871267 -20.986050474258438 -23.5665251419467
-0.3034153983993225 -21.998137624824373 -24.805523126113282
-0.27461484611217185 -22.98413964496276 -26.012788136595617
-0.24777531506198255 -23.943937762381992 -27.18841983517976
-0.22259898270470088 -24.877573980724467 -28.332382976624896
-0.19901662859040753 -25.78507133575245 -29.444658231631383
-0.1773837648981315 -26.66642653373918 -30.525248363964142
-0.15760020702669117 -27.521665538666777 -31.57413158725534
-0.13980007124817 -28.350803869744936 -32.59129487934186
-0.124299953266251 -29.15384799537073 -33.576732812594095
-0.11104417209489861 -29.930823685513364 -34.530423763440396
-0.09966396881699166 -30.681763620663872 -35.45234030969277
-0.08935905326273105 -31.406708834359772 -36.34244802012506
-0.07971977414642176 -32.10567796905442 -37.200731251861505
-0.07070224520210072 -32.77867441452691 -38.02718716053971
-0.06228744145105419 -33.425701850005595 -38.821812658920535
-0.05448916577246402 -34.04676343589215 -39.584605095112096
-0.04729897838988322 -34.64186287271646 -40.31556136400113
-0.04068081401891846 -35.2110042696294 -41.01467801760065
-0.03459972888188424 -35.75419135317256 -41.68195192897099
-0.029020357778149403 -36.27137329107158 -42.317425751454806
-0.023906581794384738 -36.76232592806736 -42.92128757364735
-0.019238704755569217 -37.226274983476195 -43.494187094184745
-0.015036247163849435 -37.66230658266319 -44.03689114493607
-0.011498042968013347 -38.07071434579076 -44.54915334933133
-0.00878218748326905 -38.45209267350542 -45.03047494600727
-0.006662876649486808 -38.80354981847141 -45.483282399086775
-0.004899700066922485 -39.12216571396009 -45.91002593548487
-0.0035124287272390825 -39.410069163733354 -46.308919276750096
-0.0025445969616638467 -39.67084557093381 -46.67695391242787
-0.0019244050808584702 -39.906119563516995 -47.01276661779989
-0.0015174347090033604 -40.11547994548662 -47.316702427275004
-0.0012218767077768707 -40.29848855130469 -47.58912900539453
-0.0009983803858680466 -40.45588218421413 -47.82942810082906
-0.0008287781268287279 -40.588700123127474 -48.03672765502644

CELLS 100 350
4 0 51 52 1
4 1 52 53 2
4 2 53 54 3
4 3 54 55 4
4 4 55 56 5
4 5 56 57 6
4 6 57 58 7
4 7 58 59 8
4 8 59 60 9
4 9 60 61 10
4 10 61 62 11
4 11 62 63 12
4 12 63 64 13
4 13 64 65 14
4 14 65 66 15
4 15 66 67 16
4 16 67 68 17
4 17 68 69 18
4 18 69 70 19
4 19 70 71 20
4 20 71 72 21
4 21 72 73 22
4 22 73 74 23
4 23 74 75 24
4 24 75 76 25
4 25 76 77 26
4 26 77 78 27
4 27 78 79 28
4 28 79 80 29
4 29 80 81 30
4 30 81 82 31
4 31 82 83 32
4 32 83 84 33
4 33 84 85 34
4 34 85 86 35
4 35 86 87 36
4 36 87 88 37
4 37 88 89 38
4 38 89 90 39
4 39 90 91 40
4 40 91 92 41
4 41 92 93 42
4 42 93 94 43
4 43 94 95 44
4 44 95 96 45
4 45 96 97 46
4 46 97 98 47
4 47 98 99 48
4 48 99 100 49
4 49 100 101 50
1 102
1 103
1 104
1 105
1 106
1 107
1 108
1 109
1 110
1 111
1 112
1 113
1 114
1 115
1 116
1 117
1 118
1 119
1 120
1 121
1 122
1 123
1 124
1 125
1 126
1 127
1 128
1 129
1 130
1 131
1 132
1 133
1 134
1 135
1 136
1 137
1 138
1 139
1 140
1 141
1 142
1 143
1 144
1 145
1 146
1 147
1 148
1 149
1 150
1 151

CELL_TYPES 100
9
9
9
9
9
9
9
9
9
9
9
9
9
9
9
9
9
9
9
9
9
9
9
9
9
9
9
9
9
9
9
9
9
9
9
9
9
9
9
9
9
9
9
9
9
9
9
9
9
9
1
1
1
1
1
1
1
1
1
1
1
1
1
1
1
1
1
1
1
1
1
1
1
1
1
1
1
1
1
1
1
1
1
1
1
1
1
1
1
1
1
1
1
1
1
1
1
1
1
1

CELL_DATA 100

VECTORS S float
-1.4129543969319038e-17 -2.6945201997423685e-15 -2.3154126484719206e-15
-0.0 -0.0 -0.0
9.893777528288438e-17 1.081545642896219e-14 9.217619285174535e-15
0.0 -0.0 -0.0
0.0 -0.0 -0.0
8.507526671200793e-17 -2.150555823713921e-14 -1.8582176784605292e-14
-7.295334407094838e-17 2.1523353692829303e-14 1.856161336116223e-14
0.0 -0.0 -0.0
0.0 -0.0 -0.0
-7.814442703491096e-17 2.1548465268779437e-14 1.8532433864850177e-14
-8.189271949978159e-17 2.155432091151573e-14 1.852560688809424e-14
0.0 -0.0 -0.0
0.0 -0.0 -0.0
0.0 -0.0 -0.0
0.0 -0.0 -0.0
0.0 -0.0 -0.0
0.0 -0.0 -0.0
0.0 -0.0 -0.0
5.54492413163417e-17 -2.1586590039459878e-14 -1.8488094082307274e-14
0.0 -0.0 -0.0
1.0223410834174942e-16 -4.3184173951950884e-14 -3.6963372898857625e-14
0.0 -0.0 -0.0
0.0 -0.0 -0.0
4.294994145490304e-17 -2.160400369218979e-14 -1.8467775900651787e-14
4.192585923989504e-17 -2.1605328778070232e-14 -1.8466228027405422e-14
-3.932643909407755e-17 2.160687275237461e-14 1.8464427157109316e-14
-3.7828769667299617e-17 2.1608315216618585e-14 1.8462742196915153e-14
0.0 -0.0 -0.0
-7.10788951108366e-17 4.32224473848323e-14 3.6918684397488184e-14
-7.058428002091674e-17 4.321886990343025e-14 3.692287326190974e-14
3.4216335466819237e-17 -2.1611756589420922e-14 -1.8458720792848147e-14
-3.3201951822206755e-17 2.161404805255854e-14 1.8456039427742933e-14
-3.259035251132354e-17 2.1616274877641055e-14 1.8453432342778498e-14
-3.150924769327563e-17 2.161840202226145e-14 1.8450942201348634e-14
0.0 -0.0 -0.0
-3.018037751293184e-17 2.1622705190929954e-14 1.8445901341958327e-14
-2.935647135589402e-17 2.1624807550863494e-14 1.8443437953158917e-14
-2.884838157450223e-17 2.162682803999778e-14 1.8441069482152128e-14
-2.821248137386635e-17 2.162880347166896e-14 1.8438753520401844e-14
0.0 -0.0 -0.0
-2.727950205740146e-17 2.163251726907708e-14 1.8434397722143392e-14
-5.3190403156531796e-17 4.3268558174952753e-14 3.6864662103795365e-14
-2.5770781575445308e-17 2.163596928954016e-14 1.8430348225554727e-14
-2.528119184284071e-17 2.163753394443208e-14 1.8428511947827056e-14
2.4850668761744138e-17 -2.163898936986081e-14 -1.8426803532941602e-14
0.0 -0.0 -0.0
-2.435628548716823e-17 2.1641528582471983e-14 1.8423821925206547e-14
-2.3936057449948318e-17 2.1643018403372285e-14 1.8422072315642412e-14
-1.186039515395951e-17 1.0821975808228489e-14 9.210488080103202e-15
1.1728628175151079e-17 -1.082238216700193e-14 -9.210010771286792e-15
-1.4129543969319038e-17 -2.6945201997423685e-15 -2.3154126484719206e-15
-0.0 -0.0 -0.0
9.893777528288438e-17 1.081545642896219e-14 9.217619285174535e-15
0.0 -0.0 -0.0
0.0 -0.0 -0.0
8.507526671200793e-17 -2.150555823713921e-14 -1.8582176784605292e-14
-7.295334407094838e-17 2.1523353692829303e-14 1.856161336116223e-14
0.0 -0.0 -0.0
0.0 -0.0 -0.0
-7.814442703491096e-17 2.1548465268779437e-14 1.8532433864850177e-14
-8.189271949978159e-17 2.155432091151573e-14 1.852560688809424e-14
0.0 -0.0 -0.0
0.0 -0.0 -0.0
0.0 -0.0 -0.0
0.0 -0.0 -0.0
0.0 -0.0 -0.0
0.0 -0.0 -0.0
0.0 -0.0 -0.0
5.54492413163417e-17 -2.1586590039459878e-14 -1.8488094082307274e-14
0.0 -0.0 -0.0
1.0223410834174942e-16 -4.3184173951950884e-14 -3.6963372898857625e-14
0.0 -0.0 -0.0
0.0 -0.0 -0.0
4.294994145490304e-17 -2.160400369218979e-14 -1.8467775900651787e-14
4.192585923989504e-17 -2.1605328778070232e-14 -1.8466228027405422e-14
-3.932643909407755e-17 2.160687275237461e-14 1.8464427157109316e-14
-3.7828769667299617e-17 2.1608315216618585e-14 1.8462742196915153e-14
0.0 -0.0 -0.0
-7.10788951108366e-17 4.32224473848323e-14 3.6918684397488184e-14
-7.058428002091674e-17 4.321886990343025e-14 3.692287326190974e-14
3.4216335466819237e-17 -2.1611756589420922e-14 -1.8458720792848147e-14
-3.3201951822206755e-17 2.161404805255854e-14 1.8456039427742933e-14
-3.259035251132354e-17 2.1616274877641055e-14 1.8453432342778498e-14
-3.150924769327563e-17 2.161840202226145e-14 1.8450942201348634e-14
0.0 -0.0 -0.0
-3.018037751293184e-17 2.1622705190929954e-14 1.8445901341958327e-14
-2.935647135589402e-17 2.1624807550863494e-14 1.8443437953158917e-14
-2.884838157450223e-17 2.162682803999778e-14 1.8441069482152128e-14
-2.821248137386635e-17 2.162880347166896e-14 1.8438753520401844e-14
0.0 -0.0 -0.0
-2.727950205740146e-17 2.163251726907708e-14 1.8434397722143392e-14
-5.3190403156531796e-17 4.3268558174952753e-14 3.6864662103795365e-14
-2.5770781575445308e-17 2.163596928954016e-14 1.8430348225554727e-14
-2.528119184284071e-17 2.163753394443208e-14 1.8428511947827056e-14
2.4850668761744138e-17 -2.163898936986081e-14 -1.8426803532941602e-14
0.0 -0.0 -0.0
-2.435628548716823e-17 2.1641528582471983e-14 1.8423821925206547e-14
-2.3936057449948318e-17 2.1643018403372285e-14 1.8422072315642412e-14
-1.186039515395951e-17 1.0821975808228489e-14 9.210488080103202e-15
1.1728628175151079e-17 -1.082238216700193e-14 -9.210010771286792e-15

SCALARS Gamma float
LOOKUP_TABLE default
-0.0
-0.0
-0.0
51.94070761834003
55.92225199622341
55.84492512635478
53.49229980699848
48.64244585161655
45.42188346633395
48.24889192661714
55.196917169483015
55.768073431726165
52.10859844837379
47.33588933190701
46.34199697640279
45.562864057690135
41.98457213233619
39.78871004165265
35.085176838696135
35.48802057697934
34.91740338964066
36.43623638132856
37.94727645685512
35.71268365829888
37.77277779759879
39.0622704539331
39.14665279204958
39.230997603770334
39.417541052702106
39.741260287000046
40.05120059080243
40.32676834946688
38.2836096839593
38.57546201881565
38.87389430852001
39.16315041106448
39.39689069717026
41.74829539154021
41.645427590963195
41.2461957257464
40.49144897257797
39.22545433986525
37.13646531984223
34.45611798269152
31.74517125305017
29.05496062460095
26.171611905061614
23.394890914325586
20.58314955780901
17.981146108911293
-0.0
-0.0
-0.0
51.94070761834003
55.92225199622341
55.84492512635478
53.49229980699848
48.64244585161655
45.42188346633395
48.24889192661714
55.196917169483015
55.768073431726165
52.10859844837379
47.33588933190701
46.34199697640279
45.562864057690135
41.98457213233619
39.78871004165265
35.085176838696135
35.48802057697934
34.91740338964066
36.43623638132856
37.94727645685512
35.71268365829888
37.77277779759879
39.0622704539331
39.14665279204958
39.230997603770334
39.417541052702106
39.741260287000046
40.05120059080243
40.32676834946688
38.2836096839593
38.57546201881565
38.87389430852001
39.16315041106448
39.39689069717026
41.74829539154021
41.645427590963195
41.2461957257464
40.49144897257797
39.22545433986525
37.13646531984223
34.45611798269152
31.74517125305017
29.05496062460095
26.171611905061614
23.394890914325586
20.58314955780901
17.981146108911293

VECTORS Ftot float
117.85713076530037 25.66643325526814 -30.58806404104528
141.76211123625774 57.02376275013033 -67.95827412070764
144.96663013423125 84.53054801965484 -100.73958428638095
1304.6488644912454 -6.267259500960885 7.469029025990324
1334.348332456185 -146.65010672243142 174.7707915407818
1426.1986830417898 -189.63875578929157 226.00266850698404
1505.6086916634144 -183.82644375783957 219.07582476222257
1492.0723583304116 -179.1740627646386 213.5313329994583
1502.135331718153 -191.40128863113011 228.1031733533104
1702.6187594225678 -247.47563106399517 294.92997240003524
2078.0327005379713 -324.98760982907413 387.30515156240415
2235.528539999817 -361.2388053374377 430.5076440453314
2215.144510320064 -367.1537073513333 437.5567497702343
2134.024871177424 -341.0703427934399 406.47180635142035
2209.6711468087415 -332.027352360387 395.69479001503447
2285.3072119387352 -331.35868311007636 394.8979010337195
2210.126629504281 -302.206100188816 360.15520560390684
2189.059494917548 -288.129010816392 343.3787837710508
2013.4086303387426 -249.94706333047102 297.87531068246113
2116.085900633837 -255.14439389268472 304.06924805187896
2157.835423170428 -254.42848642182804 303.2160627515205
2332.132965656535 -257.5021724732465 306.87913914580514
2506.5983541055625 -271.3155087106349 323.3412322324245
2430.137728635874 -257.6922493319266 307.1056639250061
2643.058681812886 -275.74572853912457 328.62096262900917
2809.178006466128 -277.45354588392644 330.6562600851715
2887.002802710014 -276.6787154447898 329.73285312567907
2962.164112829672 -277.72223669940337 330.9764733298132
3043.196691593113 -278.91608226625533 332.39924307311173
3132.3912610329803 -281.9773503708523 336.0475203346593
3219.596866002478 -285.03387108261603 339.6901398737422
3302.4405126014863 -287.7861895532498 342.9702252990835
3189.6538641395796 -276.7112262699381 329.77159801834773
3267.6274160035937 -277.8400690901795 331.1169005048446
3343.855303854593 -281.6552950545443 335.6637097544351
3417.4031851079967 -286.28593939872394 341.18229678763726
3484.883779068122 -287.99671936482036 343.22112495837086
3739.517150103239 -307.88905141133534 366.92788313988194
3774.612095421579 -308.09203438017397 367.1697888222309
3779.74465107256 -305.9644560822363 364.6342397421382
3748.0399880487885 -303.6286827190639 361.8505734450915
3665.604450537696 -293.179881753118 349.3981773556238
3501.3800733648013 -274.7125573027779 327.38967709632806
3274.6404058291528 -254.955072560363 303.8436236739298
3038.896173480699 -235.09935927138716 280.1805060282723
2799.073786268742 -217.66973191046827 259.4086850033189
2536.1020615245607 -196.01605109035492 233.6028330930605
2278.797977691363 -175.07625839755747 208.64775992324115
2013.8600856813168 -154.44022076289355 184.0546879352211
1766.061676853632 -134.78208779485774 160.6270373468698
117.85713076530037 25.66643325526814 -30.58806404104528
141.76211123625774 57.02376275013033 -67.95827412070764
144.96663013423125 84.53054801965484 -100.73958428638095
1304.6488644912454 -6.267259500960885 7.469029025990324
1334.348332456185 -146.65010672243142 174.7707915407818
1426.1986830417898 -189.63875578929157 226.00266850698404
1505.6086916634144 -183.82644375783957 219.07582476222257
1492.0723583304116 -179.1740627646386 213.5313329994583
1502.135331718153 -191.40128863113011 228.1031733533104
1702.6187594225678 -247.47563106399517 294.92997240003524
2078.0327005379713 -324.98760982907413 387.30515156240415
2235.528539999817 -361.2388053374377 430.5076440453314
2215.144510320064 -367.1537073513333 437.5567497702343
2134.024871177424 -341.0703427934399 406.47180635142035
2209.6711468087415 -332.027352360387 395.69479001503447
2285.3072119387352 -331.35868311007636 394.8979010337195
2210.126629504281 -302.206100188816 360.15520560390684
2189.059494917548 -288.129010816392 343.3787837710508
2013.4086303387426 -249.94706333047102 297.87531068246113
2116.085900633837 -255.14439389268472 304.06924805187896
2157.835423170428 -254.42848642182804 303.2160627515205
2332.132965656535 -257.5021724732465 306.87913914580514
2506.5983541055625 -271.3155087106349 323.3412322324245
2430.137728635874 -257.6922493319266 307.1056639250061
2643.058681812886 -275.74572853912457 328.62096262900917
2809.178006466128 -277.45354588392644 330.6562600851715
2887.002802710014 -276.6787154447898 329.73285312567907
2962.164112829672 -277.72223669940337 330.9764733298132
3043.196691593113 -278.91608226625533 332.39924307311173
3132.3912610329803 -281.9773503708523 336.0475203346593
3219.596866002478 -285.03387108261603 339.6901398737422
3302.4405126014863 -287.7861895532498 342.9702252990835
3189.6538641395796 -276.7112262699381 329.77159801834773
3267.6274160035937 -277.8400690901795 331.1169005048446
3343.855303854593 -281.6552950545443 335.6637097544351
3417.4031851079967 -286.28593939872394 341.18229678763726
3484.883779068122 -287.99671936482036 343.22112495837086
3739.517150103239 -307.88905141133534 366.92788313988194
3774.612095421579 -308.09203438017397 367.1697888222309
3779.74465107256 -305.9644560822363 364.6342397421382
3748.0399880487885 -303.6286827190639 361.8505734450915
3665.604450537696 -293.179881753118 349.3981773556238
3501.3800733648013 -274.7125573027779 327.38967709632806
3274.6404058291528 -254.955072560363 303.8436236739298
3038.896173480699 -235.09935927138716 280.1805060282723
2799.073786268742 -217.66973191046827 259.4086850033189
2536.1020615245607 -196.01605109035492 233.6028330930605
2278.797977691363 -175.07625839755747 208.64775992324115
2013.8600856813168 -154.44022076289355 184.0546879352211
1766.061676853632 -134.78208779485774 160.6270373468698

VECTORS D float
93.5812950075104 -20.95000506439433 23.809125705771383
61.970435678997426 -25.449473224838208 29.269627690400146
14.080903692484068 -8.360827485569754 9.659005144434799
548.6348953157449 -424.1379895993641 491.13039063232986
536.0785264381739 -508.01395499632343 589.375067924967
490.148887792462 -548.5595729973431 637.1040125288307
423.56756662921657 -544.4376877198674 632.9743734189491
356.0254002624361 -515.1736792129984 599.4748321201258
316.5300095161225 -507.7180355123863 591.2179214240018
331.32771104210684 -581.9122715780567 678.0117430527282
372.5810801846065 -709.0326456460552 826.5979598610534
367.43725857512396 -752.3418462854288 877.4451563026365
336.6918093051851 -735.7760442044761 858.3877330882852
293.81908305751904 -681.2665826273156 795.0366127966845
274.02183638964874 -670.7312295739913 782.975160827683
259.81450417773067 -668.415148421005 780.4968253570652
229.00268851457028 -616.8416393628949 720.4759281251871
209.647560655751 -589.2484522692491 688.4310739788244
177.24573714473223 -518.2564517500937 605.6447815029851
174.23438243578417 -528.5408240110467 617.8142419800735
167.27658190328714 -525.1442221102391 613.9867395696791
167.33059617815067 -542.4122502718891 634.3165353131093
170.54081599011323 -569.6126380342224 666.2662285757492
157.18803952469284 -539.7088531545867 631.7286573172274
163.3067123162637 -575.485945441417 673.6844045352033
163.25597404845126 -589.4441990203859 690.1089305699262
160.00147813500777 -590.9306007111185 691.9376988597579
157.4936258004085 -594.0885557143367 695.7282494061683
155.49405143469573 -598.2093841578909 700.6513476685417
154.65531688588797 -605.5723261691012 709.1286647787703
153.7786227805119 -612.4571508664566 717.3593856000704
152.92028094483078 -618.7417969586991 724.8896620410198
144.16905957439405 -591.9694337469665 693.6851790890901
143.3547340024899 -596.727626838199 699.4122356340499
143.29939271245453 -604.1017662521313 708.2157620656379
143.51244900957644 -612.1581968393633 717.8205735189089
143.05257442174127 -616.8921917645781 723.5296629204216
150.91389149339136 -657.409215274111 771.21501472213
149.58458663729687 -657.7486353761085 771.7732169328594
147.2711462562086 -653.2039099349603 766.5943657547454
144.3313792178667 -645.2932912376435 757.4565638074291
138.76915241487072 -624.9940221973364 733.7642569310542
130.04389322706047 -589.647934488625 692.3882163718677
120.06599559727306 -547.7550076823792 643.3022382377699
110.15825541401 -505.3581814478341 593.6014785789816
100.93353746747557 -465.36487642979836 546.7024672422573
90.57291652588927 -419.4677855735218 492.8472565350263
80.70902928144349 -375.1381465965211 440.8327970605892
70.89235427319369 -330.64659385998345 388.58855470348357
61.753144771975165 -288.8672731992743 339.51711712700734
93.5812950075104 -20.95000506439433 23.809125705771383
61.970435678997426 -25.449473224838208 29.269627690400146
14.080903692484068 -8.360827485569754 9.659005144434799
548.6348953157449 -424.1379895993641 491.13039063232986
536.0785264381739 -508.01395499632343 589.375067924967
490.148887792462 -548.5595729973431 637.1040125288307
423.56756662921657 -544.4376877198674 632.9743734189491
356.0254002624361 -515.1736792129984 599.4748321201258
316.5300095161225 -507.7180355123863 591.2179214240018
331.32771104210684 -581.9122715780567 678.0117430527282
372.5810801846065 -709.0326456460552 826.5979598610534
367.43725857512396 -752.3418462854288 877.4451563026365
336.6918093051851 -735.7760442044761 858.3877330882852
293.81908305751904 -681.2665826273156 795.0366127966845
274.02183638964874 -670.7312295739913 782.975160827683
259.81450417773067 -668.415148421005 780.4968253570652
229.00268851457028 -616.8416393628949 720.4759281251871
209.647560655751 -589.2484522692491 688.4310739788244
177.24573714473223 -518.2564517500937 605.6447815029851
174.23438243578417 -528.5408240110467 617.8142419800735
167.27658190328714 -525.1442221102391 613.9867395696791
167.33059617815067 -542.4122502718891 634.3165353131093
170.54081599011323 -569.6126380342224 666.2662285757492
157.18803952469284 -539.7088531545867 631.7286573172274
163.3067123162637 -575.485945441417 673.6844045352033
163.25597404845126 -589.4441990203859 690.1089305699262
160.00147813500777 -590.9306007111185 691.9376988597579
157.4936258004085 -594.0885557143367 695.7282494061683
155.49405143469573 -598.2093841578909 700.6513476685417
154.65531688588797 -605.5723261691012 709.1286647787703
153.7786227805119 -612.4571508664566 717.3593856000704
152.92028094483078 -618.7417969586991 724.8896620410198
144.16905957439405 -591.9694337469665 693.6851790890901
143.3547340024899 -596.727626838199 699.4122356340499
143.29939271245453 -604.1017662521313 708.2157620656379
143.51244900957644 -612.1581968393633 717.8205735189089
143.05257442174127 -616.8921917645781 723.5296629204216
150.91389149339136 -657.409215274111 771.21501472213
149.58458663729687 -657.7486353761085 771.7732169328594
147.2711462562086 -653.2039099349603 766.5943657547454
144.3313792178667 -645.2932912376435 757.4565638074291
138.76915241487072 -624.9940221973364 733.7642569310542
130.04389322706047 -589.647934488625 692.3882163718677
120.06599559727306 -547.7550076823792 643.3022382377699
110.15825541401 -505.3581814478341 593.6014785789816
100.93353746747557 -465.36487642979836 546.7024672422573
90.57291652588927 -419.4677855735218 492.8472565350263
80.70902928144349 -375.1381465965211 440.8327970605892
70.89235427319369 -330.64659385998345 388.58855470348357
61.753144771975165 -288.8672731992743 339.51711712700734

VECTORS L float
24.27583575778995 46.61643831966247 -54.39718974681668
79.79167555726033 82.47323597496852 -97.2279018111078
130.88572644174718 92.89137550522459 -110.39858943081576
756.0139691755004 417.87073009840327 -483.66136160633965
798.2698060180112 361.36384827389224 -414.6042763841853
936.0497952493278 358.9208172080514 -411.10134402184644
1082.0411250341983 360.61124396202797 -413.89854865672635
1136.0469580679755 335.99961644835975 -385.94349912066764
1185.6053222020305 316.3167468812561 -363.11474807069123
1371.291048380461 334.4366405140614 -383.0817706526928
1705.451620353365 384.04503581698106 -439.2928082986491
1868.0912814246935 391.1030409479912 -446.937512257305
1878.452701014879 368.6223368531431 -420.83098331805127
1840.2057881199046 340.19623983387584 -388.56480644526425
1935.6493104190936 338.70387721360436 -387.2803708126486
2025.4927077610048 337.0564653109289 -385.59892432334595
1981.1239409897105 314.63553917407893 -360.3207225212803
1979.4119342617964 301.11944145285725 -345.0522902077735
1836.1628931940106 268.30938841962245 -307.7694708205238
1941.851518198053 273.3964301183619 -313.7449939281944
1990.5588412671411 270.71573568841086 -310.7706768181586
2164.8023694783847 284.9100777986427 -327.43739616730437
2336.057538115449 298.2971293235874 -342.9249963433246
2272.949689111181 282.0166038226603 -324.6229933922214
2479.751969496622 299.74021690229233 -345.06344190619404
2645.9220324176767 311.9906531364595 -359.45267048475483
2727.0013245750074 314.25188526632877 -362.2048457340789
2804.6704870292633 316.36631901493354 -364.7517760763552
2887.7026401584176 319.29330189163556 -368.25210459542996
2977.735944147093 323.59497579824887 -373.0811444441109
3065.818243221966 327.42327978384054 -377.66924572632814
3149.520231656656 330.9556074054493 -381.91943674193635
3045.4848045651866 315.2582074770284 -363.91358107074234
3124.272682001104 318.8875577480195 -368.29533512920534
3200.555911142139 322.44647119758685 -372.5520523112027
3273.8907360984217 325.8722574406394 -376.63827673127156
3341.8312046463816 328.89547239975786 -380.3085379620507
3588.6032586098477 349.52016386277563 -404.28713158224804
3625.0275087842833 349.65660099593447 -404.6034281106285
3632.473504816351 347.23945385272395 -401.96012601260713
3603.7086088309215 341.66460851857977 -395.6059903623377
3526.835298122826 331.8141404442186 -384.3660795754307
3371.336180137742 314.93537718584685 -364.9985392755393
3154.5744102318804 292.7999351220164 -339.45861456384046
2928.7379180666894 270.258822176447 -313.42097255070934
2698.1402488012673 247.69514451933006 -287.29378223893855