# vtk DataFile Version 4.0
[MyVLM domain - lattices] 
ASCII
DATASET UNSTRUCTURED_GRID
POINTS 152 float
0.0 -0.46255384127745625 -2.1988332456712483
0.0 -2.3228306188684114 -3.4494666234704146
0.0 -4.165477027163427 -4.648484563065644
0.0 -5.9690298420653125 -5.833062459087513
0.0 -7.73331707979413 -7.0034981961809475
0.0 -9.476796732766893 -8.12782159367396
0.0 -11.214758497115968 -9.179550121033003
0.0 -12.951148934758978 -10.151848132501536
0.0 -14.661900885762357 -11.086401171878386
0.0 -16.337159871477724 -12.000277696864647
0.0 -17.97704999337022 -12.893262757417402
0.0 -19.581752872753935 -13.765041776192898
0.0 -21.151468245441627 -14.615268800615366
0.0 -22.687839896208388 -15.441096711937634
0.0 -24.189771163893372 -16.244424983008965
0.0 -25.654858134404115 -17.029417315174545
0.0 -27.08274297134313 -17.796693499255618
0.0 -28.474015357324962 -18.54523217500346
0.0 -29.82910012667615 -19.274297507779696
0.0 -31.147997156890323 -19.983889709771578
0.0 -32.43070632873281 -20.674008987499644
0.0 -33.67722752624058 -21.34465554181771
0.0 -34.88756063672234 -21.995829567912853
0.0 -36.06170555075844 -22.627531255305456
0.0 -37.19966216220093 -23.239760787849157
0.0 -38.30143036817355 -23.83251834373089
0.0 -39.3670100690717 -24.40580409547085
0.0 -40.3964011685625 -24.959618209922514
0.0 -41.38960277506417 -25.493962231350793
0.0 -42.346603830678674 -26.00885531259693
0.0 -43.26740208753589 -26.504301347086166
0.0 -44.151999127848406 -26.980297594345934
0.0 -45.00039647164578 -27.436841421607795
0.0 -45.81259557677455 -27.87393030380749
0.0 -46.588597838898195 -28.291561823584924
0.0 -47.32840459149721 -28.689733671284163
0.0 -48.03222810087429 -29.068078190884204
0.0 -48.70073959072768 -29.425432788836424
0.0 -49.33500419996296 -29.759952590439276
0.0 -49.935576027574086 -30.07067786808279
0.0 -50.50206683135177 -30.35828107699906
0.0 -51.034603648346284 -30.622542182562597
0.0 -51.539074818475186 -30.85326228086398
0.0 -52.01534667070214 -31.050672896929623
0.0 -52.458960886484334 -31.222496064991972
0.0 -52.86687924760851 -31.373994133360924
0.0 -53.238332444915805 -31.5064995845863
0.0 -53.574055946336514 -31.618738550845535
0.0 -53.87340504380519 -31.71182769926402
0.0 -54.1351024951548 -31.78797927816864
0.0 -54.358042628061646 -31.849108368200557
-0.7686761955390344 -2.089016524724535 0.618282758673899
-0.8409029948616161 -4.099844312983734 -0.3715886195170257
-0.8940476007249757 -6.0557284703139835 -1.3744730244484986
-0.9506443374492793 -7.980102131327324 -2.3497830763918683
-1.0210144815146838 -9.872243932224755 -3.2987682140977395
-1.048631451549771 -11.716894024716236 -4.247859270120257
-0.9920275022819518 -13.50365193548308 -5.215070392670152
-0.9074715353829097 -15.222482725954801 -6.217782605202345
-0.8388231939293685 -16.893446088357834 -7.2212515015964485
-0.7803448823218929 -18.52673077041038 -8.207829653139038
-0.7251531968841737 -20.123451313082942 -9.175586618242088
-0.671766762046156 -21.685181892351565 -10.121795844135024
-0.6188683613166902 -23.209807912199146 -11.05011991855696
-0.5668565661826578 -24.696634924555916 -11.961761660847964
-0.5162677046190278 -26.146081627503705 -12.855995864657263
-0.4681223452427161 -27.560963447609133 -13.727946068126485
-0.42442582165628834 -28.941604388708694 -14.577051080148976
-0.3846819074085718 -30.287412626912598 -15.404335969771017
-0.3476243488905531 -31.598012735121046 -16.210450995803956
-0.3131098246080671 -32.87343184154013 -16.995349170816542
-0.28048746260446866 -34.11371600769208 -17.758950713912014
-0.2502235469699514 -35.31885934518985 -18.501265824075873
-0.2227998260917326 -36.48886208576537 -19.222294099936676
-0.19746739264611052 -37.62376926315238 -19.921957540779502
-0.17533279734900953 -38.72356292732561 -20.600287236960142
-0.15613374469432648 -39.78827235650867 -21.257232477107735
-0.13998404755873647 -40.81791319371244 -21.892766166732656
-0.12578653595324127 -41.81252674304016 -22.506816765029555
-0.11250427274737486 -42.772143450332074 -23.09933153825621
-0.10008179164308317 -43.69676930090057 -23.670300119547488
-0.08845752889585208 -44.58640864474579 -24.219714974482137
-0.07764231497362577 -45.44106375760875 -24.747572161361067
-0.06766212708627829 -46.260736830482905 -25.253867885272317
-0.0584684819534103 -47.04543112068102 -25.738596504384667
-0.050013688763705585 -47.79514957187433 -26.20175292010998
-0.042252254921319045 -48.509894816883005 -26.64333257226997
-0.03513536582041269 -49.1895045471972 -27.063616587450174
-0.028615518964613278 -49.833456422780856 -27.46350968513187
-0.022687693716904638 -50.44034632727078 -27.845443866195872
-0.017408965386693863 -51.009447992917075 -28.21067706328489
-0.013252482528008399 -51.54194346040848 -28.557161921869387
-0.010166684094042405 -52.03777233735827 -28.88500304463159
-0.00760098697125575 -52.48995667976255 -29.20628658511861
-0.005464879873870877 -52.898473706807586 -29.521052000857253
-0.0039015967321000085 -53.26858213709797 -29.820190924041686
-0.002883995165670249 -53.60376264614453 -30.09767464784249
-0.0022477517166190047 -53.90463146912797 -30.352435821617266
-0.00179874084072329 -54.169867946942546 -30.586761894036645
-0.0014595970466816986 -54.39999983942275 -30.79973875825307
-0.0012027506489664258 -54.59642247457709 -30.988949635262614
-0.0010073243559101815 -54.76034373891803 -31.152302404255874
-0.603592196400244 -2.6689958716588342 -0.61352718145888
-0.6506064733449719 -4.619378249490623 -1.667017014804079
-0.6917594768153456 -6.530249834269082 -2.706789415584282
-0.7393720571114861 -8.40742313906446 -3.722776815842161
-0.7761172248991705 -10.247190960423 -4.7214002803136115
-0.7652471076868961 -12.044149138810102 -5.712020087884774
-0.712312139124323 -13.793038927023574 -6.703744655894003
-0.6548605234921042 -15.495104532932405 -7.694418953097037
-0.607188028594223 -17.15744891669309 -8.671740291618686
-0.564561779702275 -18.78309451441599 -9.630473658553177
-0.5238449845988737 -20.373087810303456 -10.568806490092705
-0.48398817126106725 -21.927273816480962 -11.487007233110527
-0.4446468478122555 -23.444829581489397 -12.38650128134597
-0.4061716015506322 -24.92572008953508 -13.267349283932786
-0.369146268698154 -26.370720565454498 -14.128208512066843
-0.3347055625871267 -27.78066307683759 -14.967637782407072
-0.3034153983993225 -29.15547617194149 -15.785760853002385
-0.27461484611217185 -30.494923946262748 -16.582986322438508
-0.24777531506198255 -31.79892887669375 -17.359448464676593
-0.22259898270470088 -33.067518379164966 -18.115099793932114
-0.19901662859040753 -34.300707489202395 -18.849914267910126
-0.1773837648981315 -35.49849405697857 -19.563895610221024
-0.15760020702669117 -36.66089502927926 -20.257014468170855
-0.13980007124817 -37.78792053554917 -20.929253297046692
-0.124299953266251 -38.87957479773467 -21.58060478422296
-0.11104417209489861 -39.935874635988576 -22.211039796340366
-0.09966396881699166 -40.956841380986496 -22.820521387585
-0.08935905326273105 -41.942501815467914 -23.40900316889132
-0.07971977414642176 -42.8928681074301 -23.976464064669848
-0.07070224520210072 -43.8079424693942 -24.522900242721494
-0.06228744145105419 -44.68772730280599 -25.048307543620215
-0.05448916577246402 -45.53222467047114 -25.552682394481735
-0.04729897838988322 -46.34143698773901 -26.03602061179828
-0.04068081401891846 -47.11536693666734 -26.498317550109544
-0.03459972888188424 -47.854016949583425 -26.939568996501116
-0.029020357778149403 -48.55735384807651 -27.359832417666095
-0.023906581794384738 -49.22523132519201 -27.759361224683342
-0.019238704755569217 -49.857144005105695 -28.139030754157364
-0.015036247163849435 -50.452495398512575 -28.499874155870543
-0.011498042968013347 -51.011477152362815 -28.841559487568084
-0.00878218748326905 -51.534477234124786 -29.163414769883076
-0.006662876649486808 -52.019608189772995 -29.468709169084647
-0.004899700066922485 -52.46496408111097 -29.76074386696515
-0.0035124287272390825 -52.8719343861129 -30.037112217077304
-0.0025445969616638467 -53.24285931047755 -30.293760864250675
-0.0019244050808584702 -53.57879925479272 -30.528853140790808
-0.0015174347090033604 -53.87948582993299 -30.742853910299196
-0.0012218767077768707 -54.14463304365469 -30.93625852587234
-0.0009983803858680466 -54.37472181011994 -31.108234019747467
-0.0008287781268287279 -54.57043047046273 -31.257605470615577

CELLS 100 350
4 0 51 52 1
4 1 52 53 2
4 2 53 54 3
4 3 54 55 4
4 4 55 56 5
4 5 56 57 6
4 6 57 58 7
4 7 58 59 8
4 8 59 60 9
4 9 60 61 10
4 10 61 62 11
4 11 62 63 12
4 12 63 64 13
4 13 64 65 14
4 14 65 66 15
4 15 66 67 16
4 16 67 68 17
4 17 68 69 18
4 18 69 70 19
4 19 70 71 20
4 20 71 72 21
4 21 72 73 22
4 22 73 74 23
4 23 74 75 24
4 24 75 76 25
4 25 76 77 26
4 26 77 78 27
4 27 78 79 28
4 28 79 80 29
4 29 80 81 30
4 30 81 82 31
4 31 82 83 32
4 32 83 84 33
4 33 84 85 34
4 34 85 86 35
4 35 86 87 36
4 36 87 88 37
4 37 88 89 38
4 38 89 90 39
4 39 90 91 40
4 40 91 92 41
4 41 92 93 42
4 42 93 94 43
4 43 94 95 44
4 44 95 96 45
4 45 96 97 46
4 46 97 98 47
4 47 98 99 48
4 48 99 100 49
4 49 100 101 50
1 102
1 103
1 104
1 105
1 106
1 107
1 108
1 109
1 110
1 111
1 112
1 113
1 114
1 115
1 116
1 117
1 118
1 119
1 120
1 121
1 122
1 123
1 124
1 125
1 126
1 127
1 128
1 129
1 130
1 131
1 132
1 133
1 134
1 135
1 136
1 137
1 138
1 139
1 140
1 141
1 142
1 143
1 144
1 145
1 146
1 147
1 148
1 149
1 150
1 151

CELL_TYPES 100
9
9
9
9
9
9
9
9
9
9
9
9
9
9
9
9
9
9
9
9
9
9
9
9
9
9
9
9
9
9
9
9
9
9
9
9
9
9
9
9
9
9
9
9
9
9
9
9
9
9
1
1
1
1
1
1
1
1
1
1
1
1
1
1
1
1
1
1
1
1
1
1
1
1
1
1
1
1
1
1
1
1
1
1
1
1
1
1
1
1
1
1
1
1
1
1
1
1
1
1

CELL_DATA 100

VECTORS S float
-1.439275644487383e-17 -3.323787102674051e-15 -1.2545942085773187e-15
-2.0233619970075257e-17 -3.327307918790645e-15 -1.2451454122760765e-15
5.176064865773532e-17 6.6571886005506374e-15 2.4831952613707064e-15
1.3294839649963999e-19 -8.299807890695339e-16 -3.162163457527929e-16
0.0 -0.0 -0.0
-8.942277293155655e-17 2.655647062698873e-14 1.0126175899710718e-14
0.0 -0.0 -0.0
-7.304233170938832e-17 2.6572259994285634e-14 1.0084801959393247e-14
-7.516655431197613e-17 2.657642151035078e-14 1.0073814403670205e-14
0.0 -0.0 -0.0
0.0 -0.0 -0.0
8.892492893757096e-17 -2.6584958625059642e-14 -1.0051150889684048e-14
0.0 -0.0 -0.0
0.0 -0.0 -0.0
0.0 -0.0 -0.0
-7.210174527300818e-17 2.659551166422574e-14 1.002332916763075e-14
6.66843091296348e-17 -2.65976644642197e-14 -1.0017652679046951e-14
0.0 -0.0 -0.0
2.932801611965218e-17 -1.3300518915075334e-14 -5.0043709088928214e-15
0.0 -0.0 -0.0
-2.7165372989362498e-17 1.3301713168280501e-14 5.001207910883377e-15
4.957134934236893e-17 -2.6606391760936002e-14 -9.99454986936566e-15
0.0 -0.0 -0.0
-2.33163622770487e-17 1.3304204936021774e-14 4.994594989001917e-15
0.0 -0.0 -0.0
0.0 -0.0 -0.0
-4.074675019517806e-17 2.661152648654291e-14 9.980910013855946e-15
7.892007936502553e-17 -5.3225052515418604e-14 -1.9956498293469958e-14
0.0 -0.0 -0.0
0.0 -0.0 -0.0
3.615884125939212e-17 -2.6615220459533045e-14 -9.971073130559651e-15
-3.51750495840553e-17 2.6616340552090622e-14 9.968086339781533e-15
0.0 -0.0 -0.0
0.0 -0.0 -0.0
0.0 -0.0 -0.0
-3.194641680238298e-17 2.6621409042042534e-14 9.95455307831675e-15
3.115824587179522e-17 -2.662243443235305e-14 -9.951812950668488e-15
3.073946012096215e-17 -2.6623424771246042e-14 -9.949164561997663e-15
-3.0126343092481836e-17 2.6624405063100384e-14 9.946542835866257e-15
2.954239142984866e-17 -2.6625357983432724e-14 -9.94399348589289e-15
0.0 -0.0 -0.0
5.726725290154353e-17 -5.325373714540208e-14 -1.98799011138243e-14
0.0 -0.0 -0.0
-1.3654924373186039e-17 1.3314270817223869e-14 4.967735689953744e-15
0.0 -0.0 -0.0
0.0 -0.0 -0.0
1.320907405117114e-17 -1.3315302067262013e-14 -4.9649721161865276e-15
2.6057681129511518e-17 -2.6631175635731204e-14 -9.928412370686824e-15
2.5845113920553098e-17 -2.6631675762508543e-14 -9.927071323256308e-15
1.2786904023803849e-17 -1.3316056134886743e-14 -4.96295045756148e-15
-1.439275644487383e-17 -3.323787102674051e-15 -1.2545942085773187e-15
-2.0233619970075257e-17 -3.327307918790645e-15 -1.2451454122760765e-15
5.176064865773532e-17 6.6571886005506374e-15 2.4831952613707064e-15
1.3294839649963999e-19 -8.299807890695339e-16 -3.162163457527929e-16
0.0 -0.0 -0.0
-8.942277293155655e-17 2.655647062698873e-14 1.0126175899710718e-14
0.0 -0.0 -0.0
-7.304233170938832e-17 2.6572259994285634e-14 1.0084801959393247e-14
-7.516655431197613e-17 2.657642151035078e-14 1.0073814403670205e-14
0.0 -0.0 -0.0
0.0 -0.0 -0.0
8.892492893757096e-17 -2.6584958625059642e-14 -1.0051150889684048e-14
0.0 -0.0 -0.0
0.0 -0.0 -0.0
0.0 -0.0 -0.0
-7.210174527300818e-17 2.659551166422574e-14 1.002332916763075e-14
6.66843091296348e-17 -2.65976644642197e-14 -1.0017652679046951e-14
0.0 -0.0 -0.0
2.932801611965218e-17 -1.3300518915075334e-14 -5.0043709088928214e-15
0.0 -0.0 -0.0
-2.7165372989362498e-17 1.3301713168280501e-14 5.001207910883377e-15
4.957134934236893e-17 -2.6606391760936002e-14 -9.99454986936566e-15
0.0 -0.0 -0.0
-2.33163622770487e-17 1.3304204936021774e-14 4.994594989001917e-15
0.0 -0.0 -0.0
0.0 -0.0 -0.0
-4.074675019517806e-17 2.661152648654291e-14 9.980910013855946e-15
7.892007936502553e-17 -5.3225052515418604e-14 -1.9956498293469958e-14
0.0 -0.0 -0.0
0.0 -0.0 -0.0
3.615884125939212e-17 -2.6615220459533045e-14 -9.971073130559651e-15
-3.51750495840553e-17 2.6616340552090622e-14 9.968086339781533e-15
0.0 -0.0 -0.0
0.0 -0.0 -0.0
0.0 -0.0 -0.0
-3.194641680238298e-17 2.6621409042042534e-14 9.95455307831675e-15
3.115824587179522e-17 -2.662243443235305e-14 -9.951812950668488e-15
3.073946012096215e-17 -2.6623424771246042e-14 -9.949164561997663e-15
-3.0126343092481836e-17 2.6624405063100384e-14 9.946542835866257e-15
2.954239142984866e-17 -2.6625357983432724e-14 -9.94399348589289e-15
0.0 -0.0 -0.0
5.726725290154353e-17 -5.325373714540208e-14 -1.98799011138243e-14
0.0 -0.0 -0.0
-1.3654924373186039e-17 1.3314270817223869e-14 4.967735689953744e-15
0.0 -0.0 -0.0
0.0 -0.0 -0.0
1.320907405117114e-17 -1.3315302067262013e-14 -4.9649721161865276e-15
2.6057681129511518e-17 -2.6631175635731204e-14 -9.928412370686824e-15
2.5845113920553098e-17 -2.6631675762508543e-14 -9.927071323256308e-15
1.2786904023803849e-17 -1.3316056134886743e-14 -4.96295045756148e-15

SCALARS Gamma float
LOOKUP_TABLE default
-0.0
-0.0
-0.0
51.19472338725024
54.80551440481179
54.841530431972
52.690288000058516
47.985680381807946
44.93051768628485
47.526551015850934
54.109591173656725
54.781259685884834
50.84391553481343
45.98701972566831
44.97436560763052
44.115006506960135
40.56122545802083
38.41615168624886
33.70570262011058
34.04793972066483
33.52645899002053
35.15281139032273
36.784718480037554
34.72528657526824
36.8170649801394
38.07713096757574
38.18797955992133
38.29911812387527
38.51282238192199
38.768122780618725
39.10743495752392
39.409921956160154
37.447094518621604
37.7543483467922
38.066147053965
38.36870148223695
38.61630302987552
40.94239093566161
40.86288262924646
40.489465525830155
39.76216280792668
38.53625740281251
36.496880715869494
33.87358194400218
31.207017045480832
28.575694238130062
25.74174549902557
23.010119506676162
20.24570260283546
17.687061441259548
-0.0
-0.0
-0.0
51.19472338725024
54.80551440481179
54.841530431972
52.690288000058516
47.985680381807946
44.93051768628485
47.526551015850934
54.109591173656725
54.781259685884834
50.84391553481343
45.98701972566831
44.97436560763052
44.115006506960135
40.56122545802083
38.41615168624886
33.70570262011058
34.04793972066483
33.52645899002053
35.15281139032273
36.784718480037554
34.72528657526824
36.8170649801394
38.07713096757574
38.18797955992133
38.29911812387527
38.51282238192199
38.768122780618725
39.10743495752392
39.409921956160154
37.447094518621604
37.7543483467922
38.066147053965
38.36870148223695
38.61630302987552
40.94239093566161
40.86288262924646
40.489465525830155
39.76216280792668
38.53625740281251
36.496880715869494
33.87358194400218
31.207017045480832
28.575694238130062
25.74174549902557
23.010119506676162
20.24570260283546
17.687061441259548

VECTORS Ftot float
115.48919096862318 13.493900837576247 -37.07418785160038
139.1722031792426 30.05259185104504 -82.56881750683186
142.57289603236092 44.63481089728216 -122.6331350619093
1272.1356626823292 -4.357128572523564 11.97111236666899
1300.320942465891 -75.6414435751533 207.82315819768365
1393.8309864127748 -98.5322419110739 270.71510973891463
1476.394123616135 -96.32660393185088 264.65516919550794
1466.0657982807331 -94.30588264450833 259.10328308752304
1480.779060499088 -101.0801833938365 277.71552142889664
1673.696826209912 -129.50017477776544 355.79880601733595
2032.9449230725922 -169.12812481610004 464.6757039269356
2191.692669984727 -189.15498058756486 519.6990379417095
2158.721064538107 -189.7683277527132 521.384195428241
2071.3980680448253 -174.92543426287745 480.6036807255475
2142.7877125345804 -169.9738142296651 466.9992164945774
2211.9342256949785 -169.06006772366806 464.4887186022451
2134.3637621490757 -153.7673129570806 422.47222019978915
2112.7883768770876 -146.2783555376606 401.89647879467566
1933.4143649456742 -126.32232882242754 347.0677460125399
2029.4841542672914 -128.5129673119953 353.0864757968155
2071.172683969231 -128.16656535893046 352.1347442527148
2249.6636887722707 -130.67468601480078 359.02574911998624
2429.5076087971133 -138.27537587543083 379.9084728843449
2362.703252541255 -131.6888092171291 361.8120297189283
2575.917227649246 -141.2509181987818 388.08370822838316
2738.190047370199 -141.73383506418088 389.41051141154094
2816.078008259351 -141.52226599185602 388.8292301626734
2891.5380631693747 -142.1830763790077 390.6447917799138
2973.0805700582905 -142.8534277224664 392.4865669591676
3056.0564913814046 -143.99947667338438 395.6353105734044
3143.9868041724735 -145.73279443878403 400.39756199457946
3227.5130890060655 -147.29510213709915 404.68996711794034
3120.3192134023416 -141.9734923422595 390.06896437147
3198.5078610070777 -142.3162043466564 391.01055786492645
3274.768006960829 -144.3986517116969 396.73203497757805
3348.4695027476464 -146.83801040919994 403.4341179169177
3416.1835227709894 -147.84740566060714 406.20740857746375
3667.5814925124596 -158.4131105417237 435.2364441589529
3703.9252662596296 -158.61582671001423 435.79340225388944
3710.6309154916403 -157.60556894707963 433.0177418623979
3680.695792861819 -156.65013038227872 430.3926959799313
3601.653922415299 -151.01072151611388 414.89854746107125
3441.473350672891 -141.56452609863783 388.9453388518002
3219.627976307886 -131.44278760823636 361.1360909037976
2987.6921239211406 -121.21094341315896 333.02433001844474
2753.1884714469456 -112.2937597773909 308.5245693340418
2494.700402471136 -101.12940018113925 277.850743440669
2241.563522504125 -90.2902441512318 248.07040700255308
1981.0592492014373 -79.66147266854944 218.8680973573401
1737.366350714265 -69.52388819963717 191.01531294118993
115.48919096862318 13.493900837576247 -37.07418785160038
139.1722031792426 30.05259185104504 -82.56881750683186
142.57289603236092 44.63481089728216 -122.6331350619093
1272.1356626823292 -4.357128572523564 11.97111236666899
1300.320942465891 -75.6414435751533 207.82315819768365
1393.8309864127748 -98.5322419110739 270.71510973891463
1476.394123616135 -96.32660393185088 264.65516919550794
1466.0657982807331 -94.30588264450833 259.10328308752304
1480.779060499088 -101.0801833938365 277.71552142889664
1673.696826209912 -129.50017477776544 355.79880601733595
2032.9449230725922 -169.12812481610004 464.6757039269356
2191.692669984727 -189.15498058756486 519.6990379417095
2158.721064538107 -189.7683277527132 521.384195428241
2071.3980680448253 -174.92543426287745 480.6036807255475
2142.7877125345804 -169.9738142296651 466.9992164945774
2211.9342256949785 -169.06006772366806 464.4887186022451
2134.3637621490757 -153.7673129570806 422.47222019978915
2112.7883768770876 -146.2783555376606 401.89647879467566
1933.4143649456742 -126.32232882242754 347.0677460125399
2029.4841542672914 -128.5129673119953 353.0864757968155
2071.172683969231 -128.16656535893046 352.1347442527148
2249.6636887722707 -130.67468601480078 359.02574911998624
2429.5076087971133 -138.27537587543083 379.9084728843449
2362.703252541255 -131.6888092171291 361.8120297189283
2575.917227649246 -141.2509181987818 388.08370822838316
2738.190047370199 -141.73383506418088 389.41051141154094
2816.078008259351 -141.52226599185602 388.8292301626734
2891.5380631693747 -142.1830763790077 390.6447917799138
2973.0805700582905 -142.8534277224664 392.4865669591676
3056.0564913814046 -143.99947667338438 395.6353105734044
3143.9868041724735 -145.73279443878403 400.39756199457946
3227.5130890060655 -147.29510213709915 404.68996711794034
3120.3192134023416 -141.9734923422595 390.06896437147
3198.5078610070777 -142.3162043466564 391.01055786492645
3274.768006960829 -144.3986517116969 396.73203497757805
3348.4695027476464 -146.83801040919994 403.4341179169177
3416.1835227709894 -147.84740566060714 406.20740857746375
3667.5814925124596 -158.4131105417237 435.2364441589529
3703.9252662596296 -158.61582671001423 435.79340225388944
3710.6309154916403 -157.60556894707963 433.0177418623979
3680.695792861819 -156.65013038227872 430.3926959799313
3601.653922415299 -151.01072151611388 414.89854746107125
3441.473350672891 -141.56452609863783 388.9453388518002
3219.627976307886 -131.44278760823636 361.1360909037976
2987.6921239211406 -121.21094341315896 333.02433001844474
2753.1884714469456 -112.2937597773909 308.5245693340418
2494.700402471136 -101.12940018113925 277.850743440669
2241.563522504125 -90.2902441512318 248.07040700255308
1981.0592492014373 -79.66147266854944 218.8680973573401
1737.366350714265 -69.52388819963717 191.01531294118993

VECTORS D float
91.34467391457072 -11.368357086000438 29.070193985838817
59.83631829848321 -13.56144495923566 35.26688324536987
12.57686103597134 -4.1095909630769585 10.755229780955489
530.98969244298 -225.55121030517347 592.2330336435188
515.8389194720505 -268.54463470304484 706.9545778665204
473.48431529733125 -290.6508516127144 766.429613789102
410.7309529661305 -289.40667530842205 764.255410968815
346.0227962366035 -274.3306323823056 725.3349375996316
308.6669696621052 -271.14069272805773 717.6180224697191
321.25385293519975 -308.9802869969677 818.7347149623259
359.3284718348894 -374.4651378532992 992.9082737013981
356.35984160361875 -398.9997408017277 1058.493797474837
323.5412828595927 -386.5068909003744 1025.9867993098082
280.66551644688667 -355.66599961965653 944.6161005086136
261.33153804507674 -349.55106930255954 928.7941367474323
246.89495185417462 -347.2168029511393 923.0675691774128
217.11960670579393 -319.5642595550041 849.9138165551271
198.51840816059902 -304.795217854573 810.9341739176512
167.03265943743807 -266.7392214925337 709.9131663221191
163.81366117024442 -271.3748456100837 722.4559678218507
157.32001416927685 -269.7103507794763 718.203171204308
158.363044929253 -280.14429842325484 746.5548044474725
162.18351067194754 -295.52256004115793 787.7293643819826
149.94903051250165 -280.88620931423804 748.9023567624489
156.1647394931703 -300.1737808333487 800.5299261824232
155.9425179543189 -307.04736319197576 819.071522736813
152.99783691124665 -308.0839424900359 822.0511104601565
150.73569641644062 -309.9386976519568 827.2192490609414
148.93263922891117 -312.2463223201549 833.602619221081
147.61195063272413 -315.2045101815821 841.6253889949622
146.94777648480195 -319.0862543817964 852.2517442236954
146.28581767038617 -322.62639524134454 861.9788517918606
138.16887994621908 -309.0767221847945 826.2484729211359
137.3329459322518 -311.38516852200763 832.6684568468916
137.37192772500072 -315.40132569915625 843.6603334889395
137.64125992558274 -319.71225107426835 855.4465167510081
137.29447025294692 -322.3569490036601 862.7779316277782
145.0292511839242 -343.92554881283365 920.7742056657398
143.8380120996122 -344.2546906701155 921.9192833021277
141.68861218527329 -342.00291495954184 916.1445927676623
138.99085897855133 -338.1253611963817 906.0021826714714
133.59192021265633 -327.33556775732455 877.2424282252929
125.26160375332623 -308.92877807541254 828.1208266091347
115.70899604126778 -287.06831885209783 769.7038603653746
106.17162984648095 -264.8279092830397 710.2292307512387
97.3407776459199 -243.98002183154918 654.4525636644393
87.36250195957173 -219.91871855273874 590.0210669828703
77.80331148281938 -196.60371616995022 527.5582111501772
68.35273060815466 -173.29628286025974 465.08550706949995
59.54734779199389 -151.39877501217973 406.37036986004966
91.34467391457072 -11.368357086000438 29.070193985838817
59.83631829848321 -13.56144495923566 35.26688324536987
12.57686103597134 -4.1095909630769585 10.755229780955489
530.98969244298 -225.55121030517347 592.2330336435188
515.8389194720505 -268.54463470304484 706.9545778665204
473.48431529733125 -290.6508516127144 766.429613789102
410.7309529661305 -289.40667530842205 764.255410968815
346.0227962366035 -274.3306323823056 725.3349375996316
308.6669696621052 -271.14069272805773 717.6180224697191
321.25385293519975 -308.9802869969677 818.7347149623259
359.3284718348894 -374.4651378532992 992.9082737013981
356.35984160361875 -398.9997408017277 1058.493797474837
323.5412828595927 -386.5068909003744 1025.9867993098082
280.66551644688667 -355.66599961965653 944.6161005086136
261.33153804507674 -349.55106930255954 928.7941367474323
246.89495185417462 -347.2168029511393 923.0675691774128
217.11960670579393 -319.5642595550041 849.9138165551271
198.51840816059902 -304.795217854573 810.9341739176512
167.03265943743807 -266.7392214925337 709.9131663221191
163.81366117024442 -271.3748456100837 722.4559678218507
157.32001416927685 -269.7103507794763 718.203171204308
158.363044929253 -280.14429842325484 746.5548044474725
162.18351067194754 -295.52256004115793 787.7293643819826
149.94903051250165 -280.88620931423804 748.9023567624489
156.1647394931703 -300.1737808333487 800.5299261824232
155.9425179543189 -307.04736319197576 819.071522736813
152.99783691124665 -308.0839424900359 822.0511104601565
150.73569641644062 -309.9386976519568 827.2192490609414
148.93263922891117 -312.2463223201549 833.602619221081
147.61195063272413 -315.2045101815821 841.6253889949622
146.94777648480195 -319.0862543817964 852.2517442236954
146.28581767038617 -322.62639524134454 861.9788517918606
138.16887994621908 -309.0767221847945 826.2484729211359
137.3329459322518 -311.38516852200763 832.6684568468916
137.37192772500072 -315.40132569915625 843.6603334889395
137.64125992558274 -319.71225107426835 855.4465167510081
137.29447025294692 -322.3569490036601 862.7779316277782
145.0292511839242 -343.92554881283365 920.7742056657398
143.8380120996122 -344.2546906701155 921.9192833021277
141.68861218527329 -342.00291495954184 916.1445927676623
138.99085897855133 -338.1253611963817 906.0021826714714
133.59192021265633 -327.33556775732455 877.2424282252929
125.26160375332623 -308.92877807541254 828.1208266091347
115.70899604126778 -287.06831885209783 769.7038603653746
106.17162984648095 -264.8279092830397 710.2292307512387
97.3407776459199 -243.98002183154918 654.4525636644393
87.36250195957173 -219.91871855273874 590.0210669828703
77.80331148281938 -196.60371616995022 527.5582111501772
68.35273060815466 -173.29628286025974 465.08550706949995
59.54734779199389 -151.39877501217973 406.37036986004966

VECTORS L float
24.14451705405248 24.862257923576692 -66.14438183743921
79.33588488075938 43.6140368102807 -117.83570075220172
129.99603499638957 48.74440186035912 -133.38836484286477
741.1459702393493 221.19408173264992 -580.2619212768499
784.4820229938405 192.90319112789157 -499.13141966883694
920.3466711154438 192.11860970164057 -495.7145040501875
1065.663170650004 193.08007137657123 -499.60024177330706
1120.0430020441297 180.02474973779735 -466.23165451210866
1172.1120908369828 170.06050933422128 -439.90250104082253
1352.4429732747126 179.48011221920225 -462.93590894499005
1673.6164512377022 205.33701303719914 -528.2325697744625
1835.3328283811086 209.84476021416273 -538.7947595331275
1835.179781678514 196.73856314766118 -504.6026038815673
1790.7325515979392 180.74056535677917 -464.0124197830663
1881.4561744895038 179.57725507289436 -461.79492025285464
1965.0392738408045 178.15673522747142 -458.578850575168
1917.2441554432821 165.79694659792355 -427.44159635533805
1914.2699687164882 158.5168623169124 -409.03769512297555
1766.3817055082366 140.41689267010622 -362.8454203095792
1865.6704930970475 142.86187829808844 -369.3694920250353
1913.8526697999541 141.54378542054582 -366.06842695159315
2091.300643843018 149.46961240845403 -387.5290553274864
2267.324098125166 157.2471841657271 -407.8208914976376
2212.7542220287537 149.197400097109 -387.0903270435207
2419.7524881560767 158.92286263456694 -412.4462179540401
2582.24752941588 165.31352812779483 -429.66101132527194
2663.080171348104 166.56167649817982 -433.221880297483
2740.802366752934 167.7556212729491 -436.57445728102743
2824.1479308293788 169.39289459768838 -441.11605226191307
2908.4445407486805 171.2050335081978 -445.9900784215579
2997.0390276876724 173.35345994301235 -451.854182229116
3081.22727133568 175.33129310424547 -457.28888467392045
2982.1503334561235 167.10322984253503 -436.17950854966614
3061.1749150748265 169.0689641753513 -441.6578989819655
3137.3960792358284 171.00267398745942 -446.9282985113616
3210.8282428220646 172.8742406650684 -452.0123988340904
3278.8890525180427 174.50954334305297 -456.57052305031453
3522.552241328535 185.5124382711099 -485.5377615067867
3560.087254160018 185.6388639601013 -486.1258810482385
3568.9423033063663 184.39734601246218 -483.12685090526423
3541.7049338832685 181.47523081410299 -475.60948669154016
3468.0620022026433 176.32484624121068 -462.3438807642217
3316.2117469195655 167.36425197677474 -439.1754877573346
3103.9189802666187 155.6255312438615 -408.5677694615769
2881.52049407466 143.61696586988072 -377.20490073279376
2655.847693801026 131.68626205415833 -345.92799433039744
2407.337900511565 118.78931837159949 -312.17032354220134
2163.760211021306 106.31347201871841 -279.48780414762405