# vtk DataFile Version 4.0
[MyVLM domain - lattices] 
ASCII
DATASET UNSTRUCTURED_GRID
POINTS 152 float
0.0 -0.6988332456712841 2.1355223700758437
0.0 0.28689701289315783 4.148741034866161
0.0 1.2831666428711836 6.108444234296433
0.0 2.252800249632219 8.036095192463856
0.0 3.1954999485313373 9.931865893148363
0.0 4.1432359202405245 11.77729834393294
0.0 5.122490695293331 13.557102848685224
0.0 6.140099919446296 15.267332845487589
0.0 7.154378048900593 16.93205549427361
0.0 8.148256625955126 18.56112527369165
0.0 9.121950600652813 20.154418082276585
0.0 10.075774550337403 21.711752298714313
0.0 11.010074427584673 23.232928187192083
0.0 11.927697351141791 24.716301962934807
0.0 12.826743848159499 26.162970287103317
0.0 13.7030502172926 27.575337073790088
0.0 14.55599666771985 28.9537601593926
0.0 15.38660455968999 30.297649861296332
0.0 16.19560972784138 31.606581345174707
0.0 16.983011959986776 32.88055473353412
0.0 17.74881104960563 34.119570145609245
0.0 18.49300679584414 35.32362769736309
0.0 19.21559900351521 36.49272750148697
0.0 19.91658748309847 37.62686966740052
0.0 20.59597205074028 38.7260543012517
0.0 21.253752528253706 39.79028150591677
0.0 21.889928743118556 40.819551381000316
0.0 22.504500528481344 41.813864022835254
0.0 23.097466340077176 42.77322032300332
0.0 23.668807025064798 43.697631339402584
0.0 24.218518690018957 44.587099319903146
0.0 24.746604075412243 45.441622682292426
0.0 25.25306581401308 46.26119990654086
0.0 25.73790643088573 47.04582953480193
0.0 26.201128343390284 47.795510171412126
0.0 26.642733861182684 48.51024048289097
0.0 27.06309064028394 49.18980820293577
0.0 27.46336127424265 49.833542107848274
0.0 27.84539063776038 50.44037705872292
0.0 28.210138458447116 51.00975895656573
0.0 28.55693228107072 51.54207604358601
0.0 28.885992140256715 52.03720128273346
0.0 29.207516939914512 52.489246334090545
0.0 29.521275155017698 52.898344868693606
0.0 29.819544751333815 53.26895520508543
0.0 30.097063380552985 53.60411556147929
0.0 30.352498560125376 53.904595247034045
0.0 30.587124157873557 54.16965879381941
0.0 30.799823506672134 54.39995090990082
0.0 30.98838435819423 54.59674883744531
0.0 31.150891631798686 54.7611582487766
-0.7686761955390344 2.118282758673898 0.5090596866287493
-0.8409029948616161 3.364775016846585 2.3717273407508217
-0.8940476007249757 4.5571781814883705 4.21819279114586
-0.9506443374492793 5.7360796323279075 6.025022903201827
-1.0210144815146838 6.900229930614592 7.792939040717718
-1.048631451549771 8.023198243794276 9.537201051983576
-0.9920275022819518 9.086970423656231 11.26820941031809
-0.9074715353829097 10.074165446745535 12.995999054291747
-0.8388231939293685 11.019527719182578 14.700510291678109
-0.7803448823218929 11.940704669680782 16.371554374758972
-0.7251531968841737 12.839626739828173 18.00801676256384
-0.671766762046156 13.719020482395326 19.60832327911666
-0.6188683613166902 14.575223309643125 21.174588520434543
-0.5668565661826578 15.407032402231506 22.70750693458726
-0.5162677046190278 16.21517296651124 24.206659823492974
-0.4681223452427161 17.004521464340698 25.66923176058506
-0.42442582165628834 17.77563908682653 27.094898742027024
-0.3846819074085718 18.527500764922472 28.484252591708678
-0.3476243488905531 19.25945623981716 29.837668736729796
-0.3131098246080671 19.971552498941847 31.1551200488843
-0.28048746260446866 20.663869323193296 32.436560466649965
-0.2502235469699514 21.33639651358601 33.6819958784138
-0.2227998260917326 21.989134471491422 34.891426052443926
-0.19746739264611052 22.622161197624457 36.06480595500656
-0.17533279734900953 23.23544560162933 37.20215353612701
-0.15613374469432648 23.829038394876896 38.30343951758163
-0.13998404755873647 24.402966671856777 39.36864825635956
-0.12578653595324127 24.957301973374335 40.39773844835758
-0.11250427274737486 25.49209703317179 41.3906796477354
-0.10008179164308317 26.007362218114267 42.347465869180674
-0.08845752889585208 26.503105062623018 43.268092762693236
-0.07764231497362577 26.979329508397146 44.15255805253207
-0.06766212708627829 27.436039350348583 45.00085954770373
-0.0584684819534103 27.87324023030858 45.81299399089544
-0.050013688763705585 28.290937246865255 46.588958438435974
-0.042252254921319045 28.68913496019691 47.32875025750516
-0.03513536582041269 29.067552243718 48.03253175661285
-0.028615518964613278 29.42528437794723 48.70082527579509
-0.022687693716904638 29.75989936200381 49.335034931415095
-0.017408965386693863 30.07013926324504 49.93588699122273
-0.013252482528008399 30.358051436200423 50.50219941452929
-0.010166684094042405 30.623531278187745 51.03403259372147
-0.00760098697125575 30.8544926356599 51.53836447280317
-0.005464879873870877 31.050896051090085 52.015217832588135
-0.0039015967321000085 31.22184989228412 52.459333954471774
-0.002883995165670249 31.373382866071438 52.86723216294325
-0.0022477517166190047 31.506562323094425 53.23829622282187
-0.00179874084072329 31.619100814682465 53.57384679321338
-0.0014595970466816986 31.711912447683098 53.87335611428326
-0.0012027506489664258 31.78741400110027 54.135428858023026
-0.0010073243559101815 31.84769759574337 54.35885713792021
-0.603592196400244 2.0046546367229157 1.8658280608850895
-0.6506064733449719 3.1669904063461507 3.7533682081065796
-0.6917594768153456 4.3019675417440295 5.609273313725419
-0.7393720571114861 5.4196536108738815 7.427730864671357
-0.7761172248991705 6.513627548999808 9.212448064398147
-0.7652471076868961 7.574529077235673 10.968829072440396
-0.712312139124323 8.593249778243116 12.70213263600029
-0.6548605234921042 9.571944683266404 14.411114547208845
-0.607188028594223 10.522916480180726 16.088671845909566
-0.564561779702275 11.45140018189185 17.731782095992088
-0.5238449845988737 12.359208352207588 19.33939881325405
-0.48398817126106725 13.246072544254679 20.91167698557
-0.4446468478122555 14.110567364293795 22.449439564399032
-0.4061716015506322 14.952632163191192 23.952721565534855
-0.369146268698154 15.773609669750988 25.420747764140934
-0.3347055625871267 16.574941067314267 26.85268609262737
-0.3034153983993225 17.356502597832105 28.248608002737004
-0.27461484611217185 18.11788566271878 29.60874939897331
-0.24777531506198255 18.858955988013147 30.933187804443886
-0.22259898270470088 19.57976105949973 32.22189580321827
-0.19901662859040753 20.28032691947346 33.47485835977045
-0.1773837648981315 20.960649844323957 34.6920776239279
-0.15760020702669117 21.620759186745165 35.87353664890487
-0.13980007124817 22.260672491450013 37.01922530525662
-0.124299953266251 22.88039707106408 38.12913937103679
-0.11104417209489861 23.47996205894666 39.20326202609258
-0.09966396881699166 24.059404400911653 40.24157193974837
-0.08935905326273105 24.618770486024612 41.24404232926469
-0.07971977414642176 25.15808138987502 42.21066102664427
-0.07070224520210072 25.67734094466195 43.14142581936593
-0.06228744145105419 26.176553309811457 44.036334305983935
-0.05448916577246402 26.65572205820781 44.89538442369258
-0.04729897838988322 27.11485137335879 45.718573757142536
-0.04068081401891846 27.55394590072469 46.50589962427603
-0.03459972888188424 27.973009853219935 47.25735959276581
-0.029020357778149403 28.371985764151418 47.97298684102259
-0.023906581794384738 28.750620222440283 48.65292767600098
-0.019238704755569217 29.108037891482017 49.297687473525215
-0.015036247163849435 29.443205621494254 49.90786272290026
-0.011498042968013347 29.756455354731774 50.48326177717597
-0.00878218748326905 30.048459070561492 51.023496668883965
-0.006662876649486808 30.315947602714267 51.530454852049736
-0.004899700066922485 30.555619769397772 52.00604226486975
-0.0035124287272390825 30.76988221705927 52.44886942936985
-0.0025445969616638467 30.962788300869185 52.85659613985122
-0.0019244050808584702 31.13617468852199 53.2281619957261
-0.0015174347090033604 31.2895765164162 53.5638353861199
-0.0012218767077768707 31.422498431455296 53.86390230327627
-0.0009983803858680466 31.535773401402054 54.12788183303313
-0.0008287781268287279 31.63057634756548 54.35509563425644

CELLS 100 350
4 0 51 52 1
4 1 52 53 2
4 2 53 54 3
4 3 54 55 4
4 4 55 56 5
4 5 56 57 6
4 6 57 58 7
4 7 58 59 8
4 8 59 60 9
4 9 60 61 10
4 10 61 62 11
4 11 62 63 12
4 12 63 64 13
4 13 64 65 14
4 14 65 66 15
4 15 66 67 16
4 16 67 68 17
4 17 68 69 18
4 18 69 70 19
4 19 70 71 20
4 20 71 72 21
4 21 72 73 22
4 22 73 74 23
4 23 74 75 24
4 24 75 76 25
4 25 76 77 26
4 26 77 78 27
4 27 78 79 28
4 28 79 80 29
4 29 80 81 30
4 30 81 82 31
4 31 82 83 32
4 32 83 84 33
4 33 84 85 34
4 34 85 86 35
4 35 86 87 36
4 36 87 88 37
4 37 88 89 38
4 38 89 90 39
4 39 90 91 40
4 40 91 92 41
4 41 92 93 42
4 42 93 94 43
4 43 94 95 44
4 44 95 96 45
4 45 96 97 46
4 46 97 98 47
4 47 98 99 48
4 48 99 100 49
4 49 100 101 50
1 102
1 103
1 104
1 105
1 106
1 107
1 108
1 109
1 110
1 111
1 112
1 113
1 114
1 115
1 116
1 117
1 118
1 119
1 120
1 121
1 122
1 123
1 124
1 125
1 126
1 127
1 128
1 129
1 130
1 131
1 132
1 133
1 134
1 135
1 136
1 137
1 138
1 139
1 140
1 141
1 142
1 143
1 144
1 145
1 146
1 147
1 148
1 149
1 150
1 151

CELL_TYPES 100
9
9
9
9
9
9
9
9
9
9
9
9
9
9
9
9
9
9
9
9
9
9
9
9
9
9
9
9
9
9
9
9
9
9
9
9
9
9
9
9
9
9
9
9
9
9
9
9
9
9
1
1
1
1
1
1
1
1
1
1
1
1
1
1
1
1
1
1
1
1
1
1
1
1
1
1
1
1
1
1
1
1
1
1
1
1
1
1
1
1
1
1
1
1
1
1
1
1
1
1

CELL_DATA 100

VECTORS S float
-0.0 0.0 0.0
-0.0 0.0 0.0
-0.0 0.0 0.0
-2.2831167704119e-19 -1.1221826910149312e-15 -1.3770074715644476e-15
0.0 0.0 0.0
-8.594482028928798e-17 -1.7948694840950757e-14 -2.2037026431454158e-14
0.0 0.0 0.0
0.0 0.0 0.0
-7.181109846888026e-17 -1.7991210347277034e-14 -2.200238078828027e-14
-8.318035176948857e-17 -1.7985794620822584e-14 -2.2006768046057673e-14
1.740057761187015e-16 3.598720126458421e-14 4.4000742435979984e-14
0.0 0.0 0.0
3.3707869392170887e-16 7.206788198330815e-14 8.792498982391258e-14
-7.978474179502801e-17 -1.8020925187115783e-14 -2.1978022129883955e-14
7.368464841745001e-17 1.802515674549243e-14 2.1974573074791063e-14
7.003824151416447e-17 1.8028728181078624e-14 2.1971654961878112e-14
0.0 0.0 0.0
-6.165971852690125e-17 -1.8035598742467827e-14 -2.1966040677056946e-14
5.736862103375482e-17 1.803880738683264e-14 2.1963417399129598e-14
-1.6488981855522693e-16 -5.4124670718462945e-14 -6.588349515229548e-14
-1.5953556655172055e-16 -5.413233857500989e-14 -6.587720828420363e-14
-4.926893373840709e-17 -1.8046832204323562e-14 -2.1956843737374332e-14
-4.800739800019532e-17 -1.8048119237760412e-14 -2.1955788626593122e-14
-4.636707998079467e-17 -1.805122419125141e-14 -2.1953239447457182e-14
-4.500555916444432e-17 -1.805416752726148e-14 -2.195082176920804e-14
-4.192387538623892e-17 -1.8057250698812137e-14 -2.194829165414104e-14
4.015758495896888e-17 1.806006302476252e-14 2.194598090440006e-14
0.0 0.0 0.0
-3.742432490162081e-17 -1.8065395195522947e-14 -2.1941596632783998e-14
-3.6244245700103155e-17 -1.8067969617330673e-14 -2.1939478736017986e-14
-3.5426970791064336e-17 -1.806915039707458e-14 -2.1938507602021522e-14
-3.4482665399471276e-17 -1.8071432675634043e-14 -2.1936629160883616e-14
6.772320430235535e-17 3.6148781161219246e-14 4.38683861329676e-14
3.274946549767808e-17 1.807672514847697e-14 2.193227079728057e-14
3.207074158882086e-17 1.807900546672383e-14 2.1930392147611495e-14
0.0 0.0 0.0
3.073389912622242e-17 1.8083520641454442e-14 2.1926671055676727e-14
-3.029416368527008e-17 -1.808570990755447e-14 -2.1924865936870602e-14
-2.968234856957926e-17 -1.808787647711345e-14 -2.192307940169869e-14
-8.729759961056535e-17 -5.426995474998791e-14 -6.576402126604038e-14
2.881922870343752e-17 1.809199239979471e-14 2.1919684016977602e-14
-2.809850120007112e-17 -1.8093974565636622e-14 -2.1918048768963022e-14
0.0 0.0 0.0
-2.678137769829522e-17 -1.8097662958931255e-14 -2.1915005022336912e-14
2.6355741351753798e-17 1.8099322972852887e-14 2.1913634574063096e-14
2.626090647175674e-17 1.8100826337988032e-14 2.191239291344298e-14
0.0 0.0 0.0
0.0 0.0 0.0
1.2653465008426469e-17 9.052307509489166e-15 1.0954631914402615e-14
0.0 0.0 0.0
-0.0 0.0 0.0
-0.0 0.0 0.0
-0.0 0.0 0.0
-2.2831167704119e-19 -1.1221826910149312e-15 -1.3770074715644476e-15
0.0 0.0 0.0
-8.594482028928798e-17 -1.7948694840950757e-14 -2.2037026431454158e-14
0.0 0.0 0.0
0.0 0.0 0.0
-7.181109846888026e-17 -1.7991210347277034e-14 -2.200238078828027e-14
-8.318035176948857e-17 -1.7985794620822584e-14 -2.2006768046057673e-14
1.740057761187015e-16 3.598720126458421e-14 4.4000742435979984e-14
0.0 0.0 0.0
3.3707869392170887e-16 7.206788198330815e-14 8.792498982391258e-14
-7.978474179502801e-17 -1.8020925187115783e-14 -2.1978022129883955e-14
7.368464841745001e-17 1.802515674549243e-14 2.1974573074791063e-14
7.003824151416447e-17 1.8028728181078624e-14 2.1971654961878112e-14
0.0 0.0 0.0
-6.165971852690125e-17 -1.8035598742467827e-14 -2.1966040677056946e-14
5.736862103375482e-17 1.803880738683264e-14 2.1963417399129598e-14
-1.6488981855522693e-16 -5.4124670718462945e-14 -6.588349515229548e-14
-1.5953556655172055e-16 -5.413233857500989e-14 -6.587720828420363e-14
-4.926893373840709e-17 -1.8046832204323562e-14 -2.1956843737374332e-14
-4.800739800019532e-17 -1.8048119237760412e-14 -2.1955788626593122e-14
-4.636707998079467e-17 -1.805122419125141e-14 -2.1953239447457182e-14
-4.500555916444432e-17 -1.805416752726148e-14 -2.195082176920804e-14
-4.192387538623892e-17 -1.8057250698812137e-14 -2.194829165414104e-14
4.015758495896888e-17 1.806006302476252e-14 2.194598090440006e-14
0.0 0.0 0.0
-3.742432490162081e-17 -1.8065395195522947e-14 -2.1941596632783998e-14
-3.6244245700103155e-17 -1.8067969617330673e-14 -2.1939478736017986e-14
-3.5426970791064336e-17 -1.806915039707458e-14 -2.1938507602021522e-14
-3.4482665399471276e-17 -1.8071432675634043e-14 -2.1936629160883616e-14
6.772320430235535e-17 3.6148781161219246e-14 4.38683861329676e-14
3.274946549767808e-17 1.807672514847697e-14 2.193227079728057e-14
3.207074158882086e-17 1.807900546672383e-14 2.1930392147611495e-14
0.0 0.0 0.0
3.073389912622242e-17 1.8083520641454442e-14 2.1926671055676727e-14
-3.029416368527008e-17 -1.808570990755447e-14 -2.1924865936870602e-14
-2.968234856957926e-17 -1.808787647711345e-14 -2.192307940169869e-14
-8.729759961056535e-17 -5.426995474998791e-14 -6.576402126604038e-14
2.881922870343752e-17 1.809199239979471e-14 2.1919684016977602e-14
-2.809850120007112e-17 -1.8093974565636622e-14 -2.1918048768963022e-14
0.0 0.0 0.0
-2.678137769829522e-17 -1.8097662958931255e-14 -2.1915005022336912e-14
2.6355741351753798e-17 1.8099322972852887e-14 2.1913634574063096e-14
2.626090647175674e-17 1.8100826337988032e-14 2.191239291344298e-14
0.0 0.0 0.0
0.0 0.0 0.0
1.2653465008426469e-17 9.052307509489166e-15 1.0954631914402615e-14
0.0 0.0 0.0

SCALARS Gamma float
LOOKUP_TABLE default
-0.0
-0.0
-0.0
51.51073507394346
55.31781915461899
55.3071192862342
53.02447056029509
48.25450380444028
45.129669757807825
47.85144063634612
54.580622618145036
55.22499676661904
51.286585624519866
46.43873491246948
45.40809972562398
44.659987783170244
41.06537477527937
38.874080848690895
34.13669612218913
34.468635917586674
34.03770266481167
35.61040445556588
37.201193659122126
35.08688608088986
37.17076199968346
38.445060703331606
38.54858350804565
38.65152622066344
38.8561745765616
39.114914018339306
39.41421176653267
39.7116229348804
37.74061051250479
38.049818912786805
38.362530621427766
38.66514567493977
38.911845601263856
41.251928827927536
41.16680629795586
40.78624759238931
40.050653386660144
38.806585872659895
36.746963492332625
34.10077494317128
31.416485167370606
28.76199879481902
25.908685645452746
23.15436277139989
20.372322388875755
17.79752744984015
-0.0
-0.0
-0.0
51.51073507394346
55.31781915461899
55.3071192862342
53.02447056029509
48.25450380444028
45.129669757807825
47.85144063634612
54.580622618145036
55.22499676661904
51.286585624519866
46.43873491246948
45.40809972562398
44.659987783170244
41.06537477527937
38.874080848690895
34.13669612218913
34.468635917586674
34.03770266481167
35.61040445556588
37.201193659122126
35.08688608088986
37.17076199968346
38.445060703331606
38.54858350804565
38.65152622066344
38.8561745765616
39.114914018339306
39.41421176653267
39.7116229348804
37.74061051250479
38.049818912786805
38.362530621427766
38.66514567493977
38.911845601263856
41.251928827927536
41.16680629795586
40.78624759238931
40.050653386660144
38.806585872659895
36.746963492332625
34.10077494317128
31.416485167370606
28.76199879481902
25.908685645452746
23.15436277139989
20.372322388875755
17.79752744984015

VECTORS Ftot float
116.48845186491751 -30.361700195174556 25.476491435686125
140.2563279040875 -67.56549628552024 56.694183013489926
143.56987670747552 -100.2775877164123 84.14288686818892
1285.7447039727813 8.824932506764505 -7.404997611590487
1315.6614943268937 171.84160094931832 -144.19222397748638
1408.4422883559457 223.1034371050062 -187.20601178919424
1488.5927808031236 217.14703108808095 -182.20799369725012
1476.728904605277 212.16560020519495 -178.02807688068535
1489.4406823911208 227.09783896781212 -190.5577129190485
1686.1913672763505 292.15768890841906 -245.149409008661
2051.8458305833688 382.3419673283096 -320.82300376878027
2210.608691464206 426.5286874592037 -357.9000643335472
2178.065574231332 429.35865925004356 -360.27469261948306
2092.0738482776537 396.6388442376017 -332.8195079103543
2163.780860443185 385.3943840938277 -323.3842855509259
2239.457236675826 384.732829750527 -322.82917554545855
2161.1579480939904 349.94583073283127 -293.63941749994564
2138.2552876175055 332.857667617571 -279.3007461324336
1958.4899314512702 287.58459863794315 -241.31213064936424
2054.9430332972865 292.5704123681674 -245.4957251115141
2103.1730297871873 292.9882459941144 -245.8463291529396
2278.832081269094 297.69703642030146 -249.7974734628443
2456.7757206050283 314.536811651693 -263.9277226486132
2387.1448977391465 299.3661842781694 -251.19805481476163
2600.5677748777734 320.8694822004105 -269.2414641704093
2764.5664092006195 322.34864861473005 -270.4826321631147
2842.6821817546147 321.74403083605773 -269.9752976080275
2918.230323594306 323.16421376848444 -271.166972582831
2999.7286322817254 324.6556406974229 -272.41842836883114
3083.5691280654823 327.32543852681636 -274.65865474279315
3168.586300327267 330.6986292938642 -277.48909787131356
3252.2510253438777 334.18169244181416 -280.41173487412556
3144.6002875787867 322.10153062619247 -270.27527555007555
3223.3365890453433 323.1818069785604 -271.181735038917
3300.088175725449 327.89134482333304 -275.1335065074811
3374.174390547604 333.4524577604944 -279.79983432198844
3442.1883795326316 335.696992039092 -281.6832222073245
3695.2148831098984 359.4416835579313 -301.6073841032008
3731.3915449755686 359.86604914762165 -301.96346911299435
3737.757457897573 357.542445268807 -300.01373395527884
3707.362426378211 355.18969927007896 -298.0395456554923
3626.671236990579 342.5897329929453 -287.46691859950334
3464.8508207707714 321.0868154418266 -269.42382841312417
3241.0536095572916 298.0666132926131 -250.10758528009265
3007.6065097990017 274.85359680762093 -230.62955170902356
2771.019875210884 254.56832206646428 -213.6081851553893
2510.7812181542445 229.25048891915617 -192.36400069927515
2255.5368344902095 204.62445432315334 -171.70030415241018
1993.3856340044904 180.5269052288418 -151.48005959509698
1748.1653925833632 157.55342306599988 -132.2030191853985
116.48845186491751 -30.361700195174556 25.476491435686125
140.2563279040875 -67.56549628552024 56.694183013489926
143.56987670747552 -100.2775877164123 84.14288686818892
1285.7447039727813 8.824932506764505 -7.404997611590487
1315.6614943268937 171.84160094931832 -144.19222397748638
1408.4422883559457 223.1034371050062 -187.20601178919424
1488.5927808031236 217.14703108808095 -182.20799369725012
1476.728904605277 212.16560020519495 -178.02807688068535
1489.4406823911208 227.09783896781212 -190.5577129190485
1686.1913672763505 292.15768890841906 -245.149409008661
2051.8458305833688 382.3419673283096 -320.82300376878027
2210.608691464206 426.5286874592037 -357.9000643335472
2178.065574231332 429.35865925004356 -360.27469261948306
2092.0738482776537 396.6388442376017 -332.8195079103543
2163.780860443185 385.3943840938277 -323.3842855509259
2239.457236675826 384.732829750527 -322.82917554545855
2161.1579480939904 349.94583073283127 -293.63941749994564
2138.2552876175055 332.857667617571 -279.3007461324336
1958.4899314512702 287.58459863794315 -241.31213064936424
2054.9430332972865 292.5704123681674 -245.4957251115141
2103.1730297871873 292.9882459941144 -245.8463291529396
2278.832081269094 297.69703642030146 -249.7974734628443
2456.7757206050283 314.536811651693 -263.9277226486132
2387.1448977391465 299.3661842781694 -251.19805481476163
2600.5677748777734 320.8694822004105 -269.2414641704093
2764.5664092006195 322.34864861473005 -270.4826321631147
2842.6821817546147 321.74403083605773 -269.9752976080275
2918.230323594306 323.16421376848444 -271.166972582831
2999.7286322817254 324.6556406974229 -272.41842836883114
3083.5691280654823 327.32543852681636 -274.65865474279315
3168.586300327267 330.6986292938642 -277.48909787131356
3252.2510253438777 334.18169244181416 -280.41173487412556
3144.6002875787867 322.10153062619247 -270.27527555007555
3223.3365890453433 323.1818069785604 -271.181735038917
3300.088175725449 327.89134482333304 -275.1335065074811
3374.174390547604 333.4524577604944 -279.79983432198844
3442.1883795326316 335.696992039092 -281.6832222073245
3695.2148831098984 359.4416835579313 -301.6073841032008
3731.3915449755686 359.86604914762165 -301.96346911299435
3737.757457897573 357.542445268807 -300.01373395527884
3707.362426378211 355.18969927007896 -298.0395456554923
3626.671236990579 342.5897329929453 -287.46691859950334
3464.8508207707714 321.0868154418266 -269.42382841312417
3241.0536095572916 298.0666132926131 -250.10758528009265
3007.6065097990017 274.85359680762093 -230.62955170902356
2771.019875210884 254.56832206646428 -213.6081851553893
2510.7812181542445 229.25048891915617 -192.36400069927515
2255.5368344902095 204.62445432315334 -171.70030415241018
1993.3856340044904 180.5269052288418 -151.48005959509698
1748.1653925833632 157.55342306599988 -132.2030191853985

VECTORS D float
92.31094709232092 24.52934563161321 -19.629482541793056
60.75718395136878 29.697845691426963 -24.047469170290807
13.221773944820741 9.353702258869108 -7.607335302985738
538.3946359763905 496.1619196039879 -404.43298340993954
525.0626055283853 593.4525310222981 -484.5348205089421
481.1587158998715 642.0531782476133 -524.8153467243652
416.05366236129305 638.1841705044427 -522.1892887866316
350.1035443558724 604.715157401514 -495.18932517763346
311.8416912525596 597.1936478836841 -489.33932809967627
325.75979399652965 683.2263220834295 -559.6217080588416
364.9939433910055 829.8127859991287 -680.1283146441492
361.2605086938933 882.9294452690245 -724.0646176979557
328.09046677425096 856.4410567590741 -703.2413132379432
285.0115912078672 789.6318387941143 -648.494927535218
265.3031230374832 776.1991495785877 -637.5850878436348
251.70911432587 773.9773044840017 -635.8854500877434
221.28716907959992 712.5395659071169 -585.5248002226315
202.19627436679434 679.5011952627249 -558.4838182041499
170.19660548509486 595.1577613321514 -489.25447122979807
166.8344081317694 605.4277929113119 -497.789152724899
160.95419438330893 604.1004265565574 -496.7886101224593
161.52394024053484 625.9923519285354 -514.8798790925368
165.14148147623956 659.3977961365878 -542.3999230978674
152.57373172609257 626.3530929847882 -515.3460166938823
158.78319639505827 668.9570991462891 -550.5310821679387
158.64901136963783 684.7616076031211 -563.6686168447109
155.60915925113576 686.9790061636061 -565.6221560617367
153.2699914302398 691.0521047339416 -569.1023749374166
151.40280870842105 696.1627567386469 -573.4369143398129
150.1007103858194 702.9064886665269 -579.1173765318197
149.14741028509977 710.6186111495642 -585.525626163642
148.4491851974229 718.522735061155 -592.1536103329402
140.25784289045893 688.7208567129533 -567.7418395457217
139.48329156229062 694.3074220656596 -572.4611261880741
139.53066068683484 703.385600734501 -580.0619928286122
139.81613076236502 713.1526311769082 -588.2337955082339
139.45896105685162 719.1254240127757 -593.2777270904148
147.27185360681838 767.1227711568815 -632.9991444519162
146.05266822785242 767.9191112410405 -633.7778083161961
143.86132695128762 762.961648073143 -629.8041401372338
141.08773099166814 754.2375616645628 -622.7154671704868
135.60802367237574 730.2745580989648 -603.0363287222227
127.11791147947837 689.1649139470015 -569.184497061377
117.39593564794122 640.3671886794019 -528.9660469507317
107.71210663953096 590.8167925994201 -488.1081111083691
98.72734611528992 544.2498029531084 -449.69820850992846
88.60030479941014 490.60856933227285 -405.4269364098766
78.88419877464712 438.5316549926742 -362.43293528286995
69.29832949762061 386.56365571076645 -319.5150667610971
60.369515404599554 337.7405220723911 -279.1844603148734
92.31094709232092 24.52934563161321 -19.629482541793056
60.75718395136878 29.697845691426963 -24.047469170290807
13.221773944820741 9.353702258869108 -7.607335302985738
538.3946359763905 496.1619196039879 -404.43298340993954
525.0626055283853 593.4525310222981 -484.5348205089421
481.1587158998715 642.0531782476133 -524.8153467243652
416.05366236129305 638.1841705044427 -522.1892887866316
350.1035443558724 604.715157401514 -495.18932517763346
311.8416912525596 597.1936478836841 -489.33932809967627
325.75979399652965 683.2263220834295 -559.6217080588416
364.9939433910055 829.8127859991287 -680.1283146441492
361.2605086938933 882.9294452690245 -724.0646176979557
328.09046677425096 856.4410567590741 -703.2413132379432
285.0115912078672 789.6318387941143 -648.494927535218
265.3031230374832 776.1991495785877 -637.5850878436348
251.70911432587 773.9773044840017 -635.8854500877434
221.28716907959992 712.5395659071169 -585.5248002226315
202.19627436679434 679.5011952627249 -558.4838182041499
170.19660548509486 595.1577613321514 -489.25447122979807
166.8344081317694 605.4277929113119 -497.789152724899
160.95419438330893 604.1004265565574 -496.7886101224593
161.52394024053484 625.9923519285354 -514.8798790925368
165.14148147623956 659.3977961365878 -542.3999230978674
152.57373172609257 626.3530929847882 -515.3460166938823
158.78319639505827 668.9570991462891 -550.5310821679387
158.64901136963783 684.7616076031211 -563.6686168447109
155.60915925113576 686.9790061636061 -565.6221560617367
153.2699914302398 691.0521047339416 -569.1023749374166
151.40280870842105 696.1627567386469 -573.4369143398129
150.1007103858194 702.9064886665269 -579.1173765318197
149.14741028509977 710.6186111495642 -585.525626163642
148.4491851974229 718.522735061155 -592.1536103329402
140.25784289045893 688.7208567129533 -567.7418395457217
139.48329156229062 694.3074220656596 -572.4611261880741
139.53066068683484 703.385600734501 -580.0619928286122
139.81613076236502 713.1526311769082 -588.2337955082339
139.45896105685162 719.1254240127757 -593.2777270904148
147.27185360681838 767.1227711568815 -632.9991444519162
146.05266822785242 767.9191112410405 -633.7778083161961
143.86132695128762 762.961648073143 -629.8041401372338
141.08773099166814 754.2375616645628 -622.7154671704868
135.60802367237574 730.2745580989648 -603.0363287222227
127.11791147947837 689.1649139470015 -569.184497061377
117.39593564794122 640.3671886794019 -528.9660469507317
107.71210663953096 590.8167925994201 -488.1081111083691
98.72734611528992 544.2498029531084 -449.69820850992846
88.60030479941014 490.60856933227285 -405.4269364098766
78.88419877464712 438.5316549926742 -362.43293528286995
69.29832949762061 386.56365571076645 -319.5150667610971
60.369515404599554 337.7405220723911 -279.1844603148734

VECTORS L float
24.177504772596556 -54.89104582678778 45.105973977479195
79.49914395271874 -97.26334197694722 80.74165218378074
130.3481027626548 -109.63128997528142 91.75022217117467
747.3500679963911 -487.3369870972235 397.02798579834894
790.5988887985086 -421.6109300729799 340.3425965314556
927.283572456074 -418.94974114260725 337.60933493517103
1072.5391184418309 -421.03713941636187 339.98129508938155
1126.6253602494048 -392.54955719631903 317.16124829694803
1177.5989911385614 -370.09580891587194 298.7816151806278
1360.431573279821 -391.06863317501046 314.4722990501807
1686.8518871923632 -447.4708186708192 359.30531087536906
1849.348182770313 -456.4007578098208 366.1645533644083
1849.9751074570809 -427.0823975090307 342.96662061846035
1807.0622570697867 -392.99299455651254 315.67541962486376
1898.4777374057016 -390.80476548476014 314.2008022927091
1987.748122349956 -389.2444747334745 313.0562745422846
1939.8707790143908 -362.59373517428565 291.8853827226859
1936.0590132507118 -346.643527645154 279.1830720717163
1788.2933259661756 -307.57316269420846 247.9423405804339
1888.1086251655177 -312.85738054314464 252.29342761338492
1942.218835403879 -311.112180562443 250.94228096951957
2117.3081410285595 -328.29531550823407 265.0824056296926
2291.634239128788 -344.86098448489497 278.4722004492543
2234.571166013054 -326.9869087066188 264.1479618791207
2441.784578482716 -348.08761694587866 281.2896179975295
2605.9173978309823 -362.41295898839104 293.1859846815962
2687.07302250348 -365.23497532754857 295.6468584537094
2764.9603321640666 -367.88789096545725 297.9354023545855
2848.325823573304 -371.5071160412239 301.0184859709817
2933.468417679663 -375.5810501397107 304.45872178902664
3019.438890042167 -379.9199818557002 308.03652829232846
3103.801840146455 -384.3410426193405 311.7418754588142
3004.3424446883278 -366.61932608676074 297.46656399564625
3083.8532974830528 -371.12561508709933 301.2793911491572
3160.557515038615 -375.49425591116795 304.9284863211311
3234.358259785239 -379.70017341641386 308.4339611862455
3302.72941847578 -383.4284319736837 311.5945048830904
3547.9430295030816 -407.6810875989502 331.3917603487154
3585.3388767477168 -408.0530620934188 331.81433920320177
3593.8961309462857 -405.41920280433607 329.790406181955
3566.274695386542 -399.0478623944839 324.67592151499457