# vtk DataFile Version 4.0
[MyVLM domain - lattices] 
ASCII
DATASET UNSTRUCTURED_GRID
POINTS 152 float
0.0 2.1355223700758503 0.698833245671281
0.0 4.148741034866174 -0.28689701289317115
0.0 6.108444234296454 -1.2831666428712067
0.0 8.036095192463883 -2.2528002496322523
0.0 9.931865893148396 -3.19549994853138
0.0 11.77729834393298 -4.143235920240577
0.0 13.557102848685272 -5.1224906952933935
0.0 15.267332845487642 -6.140099919446367
0.0 16.932055494273666 -7.154378048900672
0.0 18.561125273691715 -8.148256625955215
0.0 20.154418082276656 -9.121950600652912
0.0 21.711752298714387 -10.07577455033751
0.0 23.23292818719216 -11.010074427584788
0.0 24.716301962934892 -11.927697351141918
0.0 26.162970287103402 -12.82674384815963
0.0 27.575337073790188 -13.703050217292738
0.0 28.953760159392704 -14.555996667719997
0.0 30.297649861296435 -15.386604559690145
0.0 31.606581345174817 -16.195609727841543
0.0 32.88055473353423 -16.983011959986943
0.0 34.119570145609366 -17.74881104960581
0.0 35.32362769736321 -18.493006795844323
0.0 36.49272750148709 -19.215599003515397
0.0 37.62686966740065 -19.916587483098667
0.0 38.72605430125183 -20.59597205074048
0.0 39.7902815059169 -21.253752528253916
0.0 40.81955138100046 -21.88992874311877
0.0 41.813864022835396 -22.504500528481564
0.0 42.77322032300347 -23.097466340077403
0.0 43.69763133940273 -23.66880702506503
0.0 44.587099319903295 -24.21851869001919
0.0 45.44162268229258 -24.746604075412485
0.0 46.26119990654102 -25.253065814013326
0.0 47.04582953480209 -25.737906430885978
0.0 47.79551017141229 -26.20112834339054
0.0 48.51024048289114 -26.642733861182943
0.0 49.18980820293594 -27.063090640284198
0.0 49.833542107848444 -27.46336127424291
0.0 50.440377058723094 -27.84539063776065
0.0 51.00975895656591 -28.210138458447386
0.0 51.54207604358618 -28.55693228107099
0.0 52.03720128273363 -28.88599214025699
0.0 52.48924633409073 -29.20751693991479
0.0 52.89834486869378 -29.52127515501798
0.0 53.268955205085604 -29.819544751334103
0.0 53.604115561479475 -30.097063380553273
0.0 53.904595247034244 -30.352498560125667
0.0 54.16965879381959 -30.587124157873852
0.0 54.399950909901 -30.79982350667242
0.0 54.596748837445496 -30.988384358194526
0.0 54.7611582487768 -31.150891631798977
-0.7686761955390344 0.5090596866287517 -2.1182827586739092
-0.8409029948616161 2.3717273407508306 -3.364775016846606
-0.8940476007249757 4.218192791145875 -4.5571781814884025
-0.9506443374492793 6.025022903201848 -5.73607963232795
-1.0210144815146838 7.792939040717747 -6.900229930614645
-1.048631451549771 9.53720105198361 -8.02319824379434
-0.9920275022819518 11.26820941031813 -9.086970423656304
-0.9074715353829097 12.995999054291792 -10.074165446745619
-0.8388231939293685 14.700510291678162 -11.019527719182669
-0.7803448823218929 16.371554374759032 -11.940704669680882
-0.7251531968841737 18.00801676256391 -12.839626739828283
-0.671766762046156 19.608323279116732 -13.719020482395441
-0.6188683613166902 21.174588520434614 -14.57522330964325
-0.5668565661826578 22.70750693458734 -15.407032402231641
-0.5162677046190278 24.206659823493055 -16.215172966511382
-0.4681223452427161 25.66923176058515 -17.004521464340847
-0.42442582165628834 27.094898742027116 -17.77563908682669
-0.3846819074085718 28.484252591708778 -18.527500764922635
-0.3476243488905531 29.8376687367299 -19.259456239817332
-0.3131098246080671 31.155120048884406 -19.971552498942028
-0.28048746260446866 32.43656046665007 -20.66386932319348
-0.2502235469699514 33.68199587841392 -21.3363965135862
-0.2227998260917326 34.89142605244405 -21.989134471491617
-0.19746739264611052 36.06480595500669 -22.622161197624663
-0.17533279734900953 37.202153536127135 -23.23544560162954
-0.15613374469432648 38.303439517581765 -23.829038394877113
-0.13998404755873647 39.3686482563597 -24.402966671856998
-0.12578653595324127 40.39773844835772 -24.957301973374562
-0.11250427274737486 41.39067964773555 -25.492097033172026
-0.10008179164308317 42.34746586918082 -26.007362218114505
-0.08845752889585208 43.268092762693385 -26.503105062623263
-0.07764231497362577 44.15255805253222 -26.979329508397388
-0.06766212708627829 45.00085954770388 -27.436039350348832
-0.0584684819534103 45.8129939908956 -27.873240230308834
-0.050013688763705585 46.58895843843614 -28.29093724686552
-0.042252254921319045 47.328750257505334 -28.68913496019718
-0.03513536582041269 48.03253175661302 -29.067552243718264
-0.028615518964613278 48.70082527579526 -29.4252843779475
-0.022687693716904638 49.33503493141526 -29.759899362004084
-0.017408965386693863 49.93588699122291 -30.070139263245313
-0.013252482528008399 50.50219941452945 -30.3580514362007
-0.010166684094042405 51.03403259372164 -30.623531278188025
-0.00760098697125575 51.53836447280335 -30.854492635660186
-0.005464879873870877 52.01521783258831 -31.050896051090373
-0.0039015967321000085 52.459333954471944 -31.221849892284414
-0.002883995165670249 52.86723216294344 -31.373382866071726
-0.0022477517166190047 53.23829622282206 -31.50656232309472
-0.00179874084072329 53.57384679321356 -31.619100814682753
-0.0014595970466816986 53.873356114283446 -31.71191244768339
-0.0012027506489664258 54.13542885802321 -31.787414001100565
-0.0010073243559101815 54.358857137920396 -31.847697595743668
-0.603592196400244 1.8658280608850966 -2.00465463672293
-0.6506064733449719 3.753368208106593 -3.166990406346176
-0.6917594768153456 5.6092733137254385 -4.301967541744065
-0.7393720571114861 7.427730864671383 -5.419653610873927
-0.7761172248991705 9.21244806439818 -6.513627548999864
-0.7652471076868961 10.968829072440434 -7.574529077235738
-0.712312139124323 12.702132636000334 -8.593249778243191
-0.6548605234921042 14.411114547208896 -9.571944683266489
-0.607188028594223 16.08867184590962 -10.522916480180818
-0.564561779702275 17.73178209599215 -11.451400181891954
-0.5238449845988737 19.33939881325412 -12.359208352207698
-0.48398817126106725 20.911676985570075 -13.2460725442548
-0.4446468478122555 22.449439564399114 -14.110567364293921
-0.4061716015506322 23.952721565534937 -14.952632163191327
-0.369146268698154 25.420747764141026 -15.773609669751133
-0.3347055625871267 26.85268609262746 -16.574941067314416
-0.3034153983993225 28.248608002737104 -17.356502597832264
-0.27461484611217185 29.608749398973412 -18.117885662718948
-0.24777531506198255 30.933187804443996 -18.85895598801332
-0.22259898270470088 32.22189580321838 -19.57976105949991
-0.19901662859040753 33.47485835977057 -20.280326919473648
-0.1773837648981315 34.69207762392803 -20.960649844324145
-0.15760020702669117 35.873536648904995 -21.620759186745364
-0.13980007124817 37.01922530525675 -22.26067249145022
-0.124299953266251 38.12913937103692 -22.880397071064294
-0.11104417209489861 39.203262026092716 -23.479962058946874
-0.09966396881699166 40.24157193974851 -24.059404400911877
-0.08935905326273105 41.24404232926483 -24.61877048602484
-0.07971977414642176 42.21066102664441 -25.15808138987525
-0.07070224520210072 43.14142581936608 -25.677340944662188
-0.06228744145105419 44.03633430598409 -26.176553309811702
-0.05448916577246402 44.89538442369274 -26.65572205820806
-0.04729897838988322 45.71857375714269 -27.114851373359034
-0.04068081401891846 46.505899624276196 -27.553945900724948
-0.03459972888188424 47.25735959276597 -27.973009853220194
-0.029020357778149403 47.97298684102276 -28.371985764151678
-0.023906581794384738 48.65292767600114 -28.750620222440546
-0.019238704755569217 49.297687473525386 -29.10803789148229
-0.015036247163849435 49.90786272290044 -29.44320562149453
-0.011498042968013347 50.483261777176146 -29.75645535473205
-0.00878218748326905 51.023496668884135 -30.048459070561766
-0.006662876649486808 51.53045485204992 -30.31594760271455
-0.004899700066922485 52.00604226486993 -30.555619769398053
-0.0035124287272390825 52.44886942937003 -30.769882217059557
-0.0025445969616638467 52.856596139851405 -30.962788300869477
-0.0019244050808584702 53.22816199572628 -31.136174688522278
-0.0015174347090033604 53.56383538612008 -31.28957651641649
-0.0012218767077768707 53.863902303276454 -31.422498431455587
-0.0009983803858680466 54.127881833033314 -31.53577340140235
-0.0008287781268287279 54.35509563425663 -31.630576347565775

CELLS 100 350
4 0 51 52 1
4 1 52 53 2
4 2 53 54 3
4 3 54 55 4
4 4 55 56 5
4 5 56 57 6
4 6 57 58 7
4 7 58 59 8
4 8 59 60 9
4 9 60 61 10
4 10 61 62 11
4 11 62 63 12
4 12 63 64 13
4 13 64 65 14
4 14 65 66 15
4 15 66 67 16
4 16 67 68 17
4 17 68 69 18
4 18 69 70 19
4 19 70 71 20
4 20 71 72 21
4 21 72 73 22
4 22 73 74 23
4 23 74 75 24
4 24 75 76 25
4 25 76 77 26
4 26 77 78 27
4 27 78 79 28
4 28 79 80 29
4 29 80 81 30
4 30 81 82 31
4 31 82 83 32
4 32 83 84 33
4 33 84 85 34
4 34 85 86 35
4 35 86 87 36
4 36 87 88 37
4 37 88 89 38
4 38 89 90 39
4 39 90 91 40
4 40 91 92 41
4 41 92 93 42
4 42 93 94 43
4 43 94 95 44
4 44 95 96 45
4 45 96 97 46
4 46 97 98 47
4 47 98 99 48
4 48 99 100 49
4 49 100 101 50
1 102
1 103
1 104
1 105
1 106
1 107
1 108
1 109
1 110
1 111
1 112
1 113
1 114
1 115
1 116
1 117
1 118
1 119
1 120
1 121
1 122
1 123
1 124
1 125
1 126
1 127
1 128
1 129
1 130
1 131
1 132
1 133
1 134
1 135
1 136
1 137
1 138
1 139
1 140
1 141
1 142
1 143
1 144
1 145
1 146
1 147
1 148
1 149
1 150
1 151

CELL_TYPES 100
9
9
9
9
9
9
9
9
9
9
9
9
9
9
9
9
9
9
9
9
9
9
9
9
9
9
9
9
9
9
9
9
9
9
9
9
9
9
9
9
9
9
9
9
9
9
9
9
9
9
1
1
1
1
1
1
1
1
1
1
1
1
1
1
1
1
1
1
1
1
1
1
1
1
1
1
1
1
1
1
1
1
1
1
1
1
1
1
1
1
1
1
1
1
1
1
1
1
1
1

CELL_DATA 100

VECTORS S float
-0.0 0.0 -0.0
2.055334306465422e-17 -5.4656177092713705e-15 4.5402311119955994e-15
-4.7539164584370945e-17 1.0922094962522825e-14 -9.091423067597458e-15
4.6662093337359996e-20 -6.842985681726851e-16 5.662123035050312e-16
-3.655643320361323e-17 -2.1904079576378303e-14 1.811086769001404e-14
0.0 0.0 -0.0
3.224205717885051e-17 2.1884412048011603e-14 -1.8134636382042783e-14
2.9930489600328976e-17 2.1878650694745868e-14 -1.8141590748592162e-14
-6.052636306580496e-17 -4.3749878540118155e-14 3.6292130442694424e-14
3.6425873856771447e-17 2.187600291172117e-14 -1.8144771608052734e-14
7.633559519117501e-17 4.374275104836733e-14 -3.630069105929982e-14
0.0 0.0 -0.0
2.2489474332870743e-16 1.311838200874641e-13 -1.0895560187379843e-13
0.0 0.0 -0.0
-6.91930513618552e-17 -4.372448848205692e-14 3.632270071304417e-14
0.0 0.0 -0.0
0.0 0.0 -0.0
0.0 0.0 -0.0
5.2948576071552225e-17 4.370990705724179e-14 -3.6340273654457265e-14
0.0 0.0 -0.0
0.0 0.0 -0.0
-2.2627965701270018e-17 -2.1851680628875556e-14 1.81740779302585e-14
4.349121866253582e-17 4.369941310900026e-14 -3.635290456384605e-14
2.079310795800287e-17 2.184775484206114e-14 -1.8178799271518776e-14
3.989273330178734e-17 4.369172770955026e-14 -3.636214523525272e-14
0.0 0.0 -0.0
3.518944022380026e-17 4.3684242620989515e-14 -3.637114207883887e-14
0.0 0.0 -0.0
0.0 0.0 -0.0
0.0 0.0 -0.0
0.0 0.0 -0.0
2.826894803439194e-17 4.3668915332125005e-14 -3.638954935647787e-14
-1.3624279314398679e-17 -2.1832918382323424e-14 1.8196622110604297e-14
1.312688753133166e-17 2.183141212130331e-14 -1.819842958666903e-14
-1.2640491314751079e-17 -2.182994410570344e-14 1.8200190864553016e-14
2.44906170001353e-17 4.3657055050099654e-14 -3.640378019309961e-14
0.0 0.0 -0.0
0.0 0.0 -0.0
0.0 0.0 -0.0
0.0 0.0 -0.0
4.1216417602177356e-17 8.728885520237444e-14 -7.283784133132231e-14
0.0 0.0 -0.0
1.924114648929462e-17 4.364021272727166e-14 -3.6423971923474e-14
0.0 0.0 -0.0
0.0 0.0 -0.0
-8.98238869000129e-18 -2.1817484604507365e-14 1.8215127004638026e-14
-8.846620652235669e-18 -2.1817093147987565e-14 1.8215595934683366e-14
0.0 0.0 -0.0
8.52029642838905e-18 2.1815875228283806e-14 -1.8217054711857728e-14
0.0 0.0 -0.0
-0.0 0.0 -0.0
2.055334306465422e-17 -5.4656177092713705e-15 4.5402311119955994e-15
-4.7539164584370945e-17 1.0922094962522825e-14 -9.091423067597458e-15
4.6662093337359996e-20 -6.842985681726851e-16 5.662123035050312e-16
-3.655643320361323e-17 -2.1904079576378303e-14 1.811086769001404e-14
0.0 0.0 -0.0
3.224205717885051e-17 2.1884412048011603e-14 -1.8134636382042783e-14
2.9930489600328976e-17 2.1878650694745868e-14 -1.8141590748592162e-14
-6.052636306580496e-17 -4.3749878540118155e-14 3.6292130442694424e-14
3.6425873856771447e-17 2.187600291172117e-14 -1.8144771608052734e-14
7.633559519117501e-17 4.374275104836733e-14 -3.630069105929982e-14
0.0 0.0 -0.0
2.2489474332870743e-16 1.311838200874641e-13 -1.0895560187379843e-13
0.0 0.0 -0.0
-6.91930513618552e-17 -4.372448848205692e-14 3.632270071304417e-14
0.0 0.0 -0.0
0.0 0.0 -0.0
0.0 0.0 -0.0
5.2948576071552225e-17 4.370990705724179e-14 -3.6340273654457265e-14
0.0 0.0 -0.0
0.0 0.0 -0.0
-2.2627965701270018e-17 -2.1851680628875556e-14 1.81740779302585e-14
4.349121866253582e-17 4.369941310900026e-14 -3.635290456384605e-14
2.079310795800287e-17 2.184775484206114e-14 -1.8178799271518776e-14
3.989273330178734e-17 4.369172770955026e-14 -3.636214523525272e-14
0.0 0.0 -0.0
3.518944022380026e-17 4.3684242620989515e-14 -3.637114207883887e-14
0.0 0.0 -0.0
0.0 0.0 -0.0
0.0 0.0 -0.0
0.0 0.0 -0.0
2.826894803439194e-17 4.3668915332125005e-14 -3.638954935647787e-14
-1.3624279314398679e-17 -2.1832918382323424e-14 1.8196622110604297e-14
1.312688753133166e-17 2.183141212130331e-14 -1.819842958666903e-14
-1.2640491314751079e-17 -2.182994410570344e-14 1.8200190864553016e-14
2.44906170001353e-17 4.3657055050099654e-14 -3.640378019309961e-14
0.0 0.0 -0.0
0.0 0.0 -0.0
0.0 0.0 -0.0
0.0 0.0 -0.0
4.1216417602177356e-17 8.728885520237444e-14 -7.283784133132231e-14
0.0 0.0 -0.0
1.924114648929462e-17 4.364021272727166e-14 -3.6423971923474e-14
0.0 0.0 -0.0
0.0 0.0 -0.0
-8.98238869000129e-18 -2.1817484604507365e-14 1.8215127004638026e-14
-8.846620652235669e-18 -2.1817093147987565e-14 1.8215595934683366e-14
0.0 0.0 -0.0
8.52029642838905e-18 2.1815875228283806e-14 -1.8217054711857728e-14
0.0 0.0 -0.0

SCALARS Gamma float
LOOKUP_TABLE default
-0.0
-0.0
-0.0
56.43628715980213
63.483461882482494
62.58695278080354
58.92431101334606
53.27552065601398
48.667490455854434
52.63608646702089
61.356461537717166
62.20622511475026
59.863149675436006
55.404580932880386
54.36830198817804
53.605080124911744
50.15153194772729
47.59861775011309
43.05390968329475
43.68996458300633
42.83659682518946
43.726561910261466
44.744404017086026
41.622719863532005
43.341084867017074
44.72887209698529
44.599450573007424
44.473584236747165
44.451953688482554
44.487677994285356
44.60615833886419
44.7034327571653
42.33185223886317
42.467116289207546
42.61354265490198
42.75772958836576
42.850253339316595
45.18395215269433
44.91077554050349
44.33870453268966
43.41304404564258
41.963089719689926
39.64800500101361
36.717066510595004
33.811489269582886
30.87323862187489
27.78964861572301
24.76492788989595
21.77608541219585
19.014289365107523
-0.0
-0.0
-0.0
56.43628715980213
63.483461882482494
62.58695278080354
58.92431101334606
53.27552065601398
48.667490455854434
52.63608646702089
61.356461537717166
62.20622511475026
59.863149675436006
55.404580932880386
54.36830198817804
53.605080124911744
50.15153194772729
47.59861775011309
43.05390968329475
43.68996458300633
42.83659682518946
43.726561910261466
44.744404017086026
41.622719863532005
43.341084867017074
44.72887209698529
44.599450573007424
44.473584236747165
44.451953688482554
44.487677994285356
44.60615833886419
44.7034327571653
42.33185223886317
42.467116289207546
42.61354265490198
42.75772958836576
42.850253339316595
45.18395215269433
44.91077554050349
44.33870453268966
43.41304404564258
41.963089719689926
39.64800500101361
36.717066510595004
33.811489269582886
30.87323862187489
27.78964861572301
24.76492788989595
21.77608541219585
19.014289365107523

VECTORS Ftot float
134.63792695443462 27.347791411729943 32.59182866444624
159.89075986891226 59.989620846453185 71.49284616212509
161.4741564447778 87.87141345947751 104.72107267666355
1524.0293585690179 7.475479969964933 8.908930110571767
1566.6826979147147 -178.75932244764056 -213.03706473668242
1644.5541545059932 -217.57989375431245 -259.30162005796836
1700.8190099453252 -201.31833270600438 -239.9218462574572
1668.4746003341322 -193.30086131420273 -230.36699592275627
1638.6294525410428 -198.91685236786282 -237.05987343693258
1879.257085778499 -271.7423872169055 -323.849966225874
2327.3710737057545 -369.14932143007803 -439.9350300180102
2511.019844480748 -405.9765100985426 -483.8239644187977
2556.488088136446 -430.47692800441524 -513.0224254781809
2501.73222189199 -419.5345740712733 -499.98183586692164
2594.979304927163 -411.08745133678923 -489.91494700101595
2691.0628407656304 -410.45355292311166 -489.159496289176
2640.7565749201085 -382.65635249127206 -456.03208281046983
2618.0893204184313 -367.1272112821121 -437.5251729845507
2470.1394964235765 -325.9529407229773 -388.4555881232557
2603.170151792971 -336.15163817695725 -400.6099224538178
2645.1200719414855 -334.53094773578414 -398.67845879806663
2797.392208389286 -328.55789517547737 -391.56005195056696
2952.9455700728054 -341.82671833388446 -407.3732196190959
2829.4097098418274 -321.3023157422569 -382.91318909467384
3029.3075731472527 -338.49806139959753 -403.40628075914583
3211.828080265433 -344.8567353037815 -410.9842532285921
3284.4504114735428 -341.13582578708076 -406.54984594434603
3353.2856659808294 -340.1648459803687 -405.3926772713605
3426.895073596341 -340.153369067434 -405.37899961913877
3502.2266145084154 -340.3614592699861 -405.6269918656138
3581.0726334554092 -341.6643430416445 -407.1797082812204
3656.194464431799 -342.7640160979414 -408.4902475967413
3522.866729805827 -326.4434089601793 -389.0401054069946
3592.414906346075 -328.92370504541907 -391.99600717727645
3660.755157688728 -330.99662176458787 -394.46641312449447
3726.2210338095965 -334.62053710242446 -398.7852272476185
3785.6503090500078 -334.3729718840431 -398.4901905092111
4042.8201353493205 -352.89732057841326 -420.56664961619464
4066.1847016991082 -351.331404183418 -418.7004631267569
4058.8298077480094 -347.30511501899343 -413.9021185502308
4014.5711208087937 -341.8045163489205 -407.34676032375245
3917.068875143006 -331.70199669254293 -395.3070462290108
3734.120820161345 -309.9423377595439 -369.37489452198446
3485.7810940704294 -286.80262694481013 -341.7980610269345
3233.2714620695438 -264.0947899882843 -314.7359147539512
2971.095811141331 -243.62934123205733 -290.34614267466503
2690.0734371510216 -219.15263778577145 -261.1759434076907
2409.7909909826167 -194.87598724727675 -232.24415791228554
2128.431948453857 -171.67511236681275 -204.59443192216378
1865.6673292948897 -149.71074314578283 -178.4183159939357
134.63792695443462 27.347791411729943 32.59182866444624
159.89075986891226 59.989620846453185 71.49284616212509
161.4741564447778 87.87141345947751 104.72107267666355
1524.0293585690179 7.475479969964933 8.908930110571767
1566.6826979147147 -178.75932244764056 -213.03706473668242
1644.5541545059932 -217.57989375431245 -259.30162005796836
1700.8190099453252 -201.31833270600438 -239.9218462574572
1668.4746003341322 -193.30086131420273 -230.36699592275627
1638.6294525410428 -198.91685236786282 -237.05987343693258
1879.257085778499 -271.7423872169055 -323.849966225874
2327.3710737057545 -369.14932143007803 -439.9350300180102
2511.019844480748 -405.9765100985426 -483.8239644187977
2556.488088136446 -430.47692800441524 -513.0224254781809
2501.73222189199 -419.5345740712733 -499.98183586692164
2594.979304927163 -411.08745133678923 -489.91494700101595
2691.0628407656304 -410.45355292311166 -489.159496289176
2640.7565749201085 -382.65635249127206 -456.03208281046983
2618.0893204184313 -367.1272112821121 -437.5251729845507
2470.1394964235765 -325.9529407229773 -388.4555881232557
2603.170151792971 -336.15163817695725 -400.6099224538178
2645.1200719414855 -334.53094773578414 -398.67845879806663
2797.392208389286 -328.55789517547737 -391.56005195056696
2952.9455700728054 -341.82671833388446 -407.3732196190959
2829.4097098418274 -321.3023157422569 -382.91318909467384
3029.3075731472527 -338.49806139959753 -403.40628075914583
3211.828080265433 -344.8567353037815 -410.9842532285921
3284.4504114735428 -341.13582578708076 -406.54984594434603
3353.2856659808294 -340.1648459803687 -405.3926772713605
3426.895073596341 -340.153369067434 -405.37899961913877
3502.2266145084154 -340.3614592699861 -405.6269918656138
3581.0726334554092 -341.6643430416445 -407.1797082812204
3656.194464431799 -342.7640160979414 -408.4902475967413
3522.866729805827 -326.4434089601793 -389.0401054069946
3592.414906346075 -328.92370504541907 -391.99600717727645
3660.755157688728 -330.99662176458787 -394.46641312449447
3726.2210338095965 -334.62053710242446 -398.7852272476185
3785.6503090500078 -334.3729718840431 -398.4901905092111
4042.8201353493205 -352.89732057841326 -420.56664961619464
4066.1847016991082 -351.331404183418 -418.7004631267569
4058.8298077480094 -347.30511501899343 -413.9021185502308
4014.5711208087937 -341.8045163489205 -407.34676032375245
3917.068875143006 -331.70199669254293 -395.3070462290108
3734.120820161345 -309.9423377595439 -369.37489452198446
3485.7810940704294 -286.80262694481013 -341.7980610269345
3233.2714620695438 -264.0947899882843 -314.7359147539512
2971.095811141331 -243.62934123205733 -290.34614267466503
2690.0734371510216 -219.15263778577145 -261.1759434076907
2409.7909909826167 -194.87598724727675 -232.24415791228554
2128.431948453857 -171.67511236681275 -204.59443192216378
1865.6673292948897 -149.71074314578283 -178.4183159939357

VECTORS D float
110.18791703059573 -21.967471771191526 -27.020604883298486
78.62583022445543 -29.151270318848933 -35.448795225329945
26.64369264216512 -14.362474323281074 -17.393858603822775
680.667135540776 -479.2869156144998 -579.3005722797764
684.2518452875929 -592.2978814614654 -714.9699475036846
612.1822085461898 -626.8006102022397 -755.9967812645415
516.7749484070517 -609.3778746992942 -734.4627338993527
430.0658800171881 -571.9343122432641 -689.0398493048818
371.1276774594345 -547.9895380323655 -659.9781393225783
397.7066423573088 -643.6282331281174 -775.1834299059346
456.36868249310027 -801.7848787649513 -965.200334999676
448.9421548397367 -849.0454393462529 -1021.7128252950334
424.3643579238625 -858.6782916536897 -1032.9827863492471
381.6434369449206 -820.2905274497735 -986.7928704209035
357.2093637576271 -811.4080931280007 -976.0752014686378
339.2877492660292 -810.6133739330792 -974.9035312407794
304.3512010053614 -762.0852420834228 -916.4359274821619
279.44374080996397 -730.8259694936734 -878.7447384249296
241.94211340559536 -658.8614920354822 -792.1229312630483
239.17137316230338 -676.3373756150118 -813.0386575834149
228.9280375245864 -670.326050411571 -805.7862791690778
223.0933373758014 -674.9646114501396 -811.2688320911968
224.20567534969274 -698.5121000158937 -839.4052197008117
204.188393927943 -654.7917238694015 -786.7122096890683
208.6240643256539 -687.3605451370404 -825.684155816789
209.2386651941486 -707.0758226735096 -849.2067033065305
203.50831126190565 -704.2276645528867 -845.6289535401031
198.9305885131541 -703.8588600616301 -845.0313473919646
195.2064600479302 -705.2081478702729 -846.4984179912765
191.97864187887762 -707.1935296435048 -848.7306404384549
189.5219213805019 -710.8793284859676 -853.0163204947495
187.1761522374431 -714.1115185903469 -856.816990632665
175.23864946857316 -679.2546058666404 -814.8612847081963
173.8656570790774 -684.0020578819361 -820.4251048920801
172.57870856976913 -688.4160193180203 -825.5903388783212
171.79789766176128 -694.2314725316472 -832.4381153981628
170.13591857875414 -695.8711423700391 -834.2815706477745
177.72000321466928 -735.1198079858378 -881.2120565296726
175.1693230723359 -732.1978053394715 -877.5900884558985
171.580785335137 -724.2060576634339 -867.898890190517
167.07832990022612 -711.5812966796383 -852.6643467900517
160.62554628997907 -689.8092361125218 -826.4794097741446
149.99513161941493 -649.0982079040496 -777.6169456486316
138.0145241755025 -601.442985135038 -720.4521694829914
126.38873154868888 -554.2932119922309 -663.9097877744412
115.36833448101333 -508.8746373842083 -609.4565401989638
103.36139245615433 -458.2202415113612 -548.7670745531026
91.65530297800346 -408.1768951220567 -488.80057812967755
80.38353922263802 -359.39911492489324 -430.3616298452379
69.94106759847591 -313.7678768457376 -375.7007411294626
110.18791703059573 -21.967471771191526 -27.020604883298486
78.62583022445543 -29.151270318848933 -35.448795225329945
26.64369264216512 -14.362474323281074 -17.393858603822775
680.667135540776 -479.2869156144998 -579.3005722797764
684.2518452875929 -592.2978814614654 -714.9699475036846
612.1822085461898 -626.8006102022397 -755.9967812645415
516.7749484070517 -609.3778746992942 -734.4627338993527
430.0658800171881 -571.9343122432641 -689.0398493048818
371.1276774594345 -547.9895380323655 -659.9781393225783
397.7066423573088 -643.6282331281174 -775.1834299059346
456.36868249310027 -801.7848787649513 -965.200334999676
448.9421548397367 -849.0454393462529 -1021.7128252950334
424.3643579238625 -858.6782916536897 -1032.9827863492471
381.6434369449206 -820.2905274497735 -986.7928704209035
357.2093637576271 -811.4080931280007 -976.0752014686378
339.2877492660292 -810.6133739330792 -974.9035312407794
304.3512010053614 -762.0852420834228 -916.4359274821619
279.44374080996397 -730.8259694936734 -878.7447384249296
241.94211340559536 -658.8614920354822 -792.1229312630483
239.17137316230338 -676.3373756150118 -813.0386575834149
228.9280375245864 -670.326050411571 -805.7862791690778
223.0933373758014 -674.9646114501396 -811.2688320911968
224.20567534969274 -698.5121000158937 -839.4052197008117
204.188393927943 -654.7917238694015 -786.7122096890683
208.6240643256539 -687.3605451370404 -825.684155816789
209.2386651941486 -707.0758226735096 -849.2067033065305
203.50831126190565 -704.2276645528867 -845.6289535401031
198.9305885131541 -703.8588600616301 -845.0313473919646
195.2064600479302 -705.2081478702729 -846.4984179912765
191.97864187887762 -707.1935296435048 -848.7306404384549
189.5219213805019 -710.8793284859676 -853.0163204947495
187.1761522374431 -714.1115185903469 -856.816990632665
175.23864946857316 -679.2546058666404 -814.8612847081963
173.8656570790774 -684.0020578819361 -820.4251048920801
172.57870856976913 -688.4160193180203 -825.5903388783212
171.79789766176128 -694.2314725316472 -832.4381153981628
170.13591857875414 -695.8711423700391 -834.2815706477745
177.72000321466928 -735.1198079858378 -881.2120565296726
175.1693230723359 -732.1978053394715 -877.5900884558985
171.580785335137 -724.2060576634339 -867.898890190517
167.07832990022612 -711.5812966796383 -852.6643467900517
160.62554628997907 -689.8092361125218 -826.4794097741446
149.99513161941493 -649.0982079040496 -777.6169456486316
138.0145241755025 -601.442985135038 -720.4521694829914
126.38873154868888 -554.2932119922309 -663.9097877744412
115.36833448101333 -508.8746373842083 -609.4565401989638
103.36139245615433 -458.2202415113612 -548.7670745531026
91.65530297800346 -408.1768951220567 -488.80057812967755
80.38353922263802 -359.39911492489324 -430.3616298452379
69.94106759847591 -313.7678768457376 -375.7007411294626

VECTORS L float
24.450009923838927 49.31526318292146 59.61243354774472
81.26492964445684 89.1408911653021 106.94164138745505
134.8304638026127 102.2338877827586 122.11493128048633
843.3622230282417 486.7623955844648 588.2095023903483
882.4308526271217 413.5385590138248 501.93288276700207
1032.3719459598035 409.2207164479272 496.6951612065732
1184.0440615382736 408.0595419932898 494.54088764189527
1238.4087203169445 378.6334509290614 458.67285338212554
1267.5017750816087 349.0726856645028 422.9182658856457
1481.5504434211907 371.8858459112119 451.33346368006073
1871.0023912126544 432.63555733487334 525.2653049816657
2062.077689641012 443.06892924771023 537.8888608762356
2132.1237302125833 428.2013636492748 519.9603608710663
2120.08878494707 400.75595337850046 486.8110345539818
2237.769941169536 400.32064179121153 486.1602544676218
2351.775091499602 400.1598210099676 485.7440349516036
2336.4053739147466 379.4288895921507 460.40384467169196
2338.645579608467 363.6987582115613 441.219565440379
2228.1973830179813 332.9085513125051 403.6673431397927
2363.9987786306674 340.18573743805473 412.4287351295971
2416.1920344168993 335.795102675787 407.1078203710112
2574.298871013485 346.40671627466236 419.7087801406301
2728.7398947231122 356.6853816820095 432.03200008171603
2625.221315913884 333.4894081271446 403.7990205943945
2820.683508821599 348.8624837374429 422.27787505764337
3002.5894150712843 362.219087369728 438.22245007793856
3080.942100211637 363.09183876580585 439.07910759575697
3154.3550774676755 363.69401408126146 439.6386701206041
3231.6886135484106 365.054778802839 441.1194183721377
3310.2479726295383 366.83207037351883 443.10364857284105
3391.5507120749076 369.21498544432313 445.8366122135291
3469.0183121943564 371.3475024924056 448.3267430359238
3347.628080337254 352.81119690646125 425.8211793012019
3418.549249266998 355.07835283651735 428.4290977148039
3488.1764491189583 357.41939755343225 431.12392575382677
3554.4231361478355 359.61093542922316 433.65288815054475
3615.5143904712536 361.49817048599607 435.7913801385632
3865.1001321346516 382.22248740742464 460.64540691347776
3891.0153786267724 380.86640115605354 458.8896253291416
3887.249022412873 376.9009426444406 453.99677164028634
3847.4927909085686 369.77678033071794 445.3175864662993
3756.4433288530267 358.107239419979 431.172363545134
3584.1256885419302 339.15587014450574 408.24205112664714
3347.7665698949263 314.64035819022797 378.65410845605686
3106.8827305208547 290.19842200394675 349.17387302049013
2855.7274766603177 265.2452961521509 319.11039752429866
2586.7120446948666 239.06760372558975 287.5911311454119
2318.1356880046133 213.30090787477997 256.55642021739214
2048.048409231219 187.72400255808043 225.76719792307404
1795.726261696414 164.05713369995482 197.28242513552695
24.450009923838927 49.31526318292146 59.61243354774472
81.26492964445684 89.1408911653021 106.94164138745505
134.8304638026127 102.2338877827586 122.11493128048633
843.3622230282417 486.7623955844648 588.2095023903483