# vtk DataFile Version 4.0
[MyVLM domain - lattices] 
ASCII
DATASET UNSTRUCTURED_GRID
POINTS 152 float
0.0 -2.0851063963074052 0.8373499951799043
0.0 -2.993706170555103 2.8865351954843357
0.0 -3.8545361425842755 4.909394944634064
0.0 -4.707933978999738 6.891247532665185
0.0 -5.554222903579289 8.831975315743572
0.0 -6.358713237785352 10.744204304293161
0.0 -7.092669752358638 12.638393266439156
0.0 -7.748675337076218 14.51724180952697
0.0 -8.371961457123788 16.364287026576765
0.0 -8.981048474236497 18.172788057189106
0.0 -9.5757031539523 19.94282979176577
0.0 -10.155584159853937 21.674536466602525
0.0 -10.720316111402703 23.368044709041975
0.0 -11.266809703751976 25.02447893409287
0.0 -11.79712598570244 26.643088981340384
0.0 -12.315782837921489 28.22223047669962
0.0 -12.82345277285346 29.761658645658667
0.0 -13.319027549695365 31.261776854882218
0.0 -13.801708741083786 32.72287570816478
0.0 -14.271496577255384 34.144955121707056
0.0 -14.728391282298068 35.52801501394771
0.0 -15.172393074150998 36.87205530556339
0.0 -15.603502164604572 38.17707591946868
0.0 -16.021718759300445 39.443076780816156
0.0 -16.427043057731506 40.67005781699633
0.0 -16.819475253241894 41.8580189576377
0.0 -17.199015533027005 43.00696013460671
0.0 -17.56566407813347 44.116881282007775
0.0 -17.91942256418688 45.187781789963054
0.0 -18.26031177323764 46.219654094424804
0.0 -18.58833592989966 47.212496657759296
0.0 -18.903492060585965 48.16631056226368
0.0 -19.205777308575435 49.08109684769942
0.0 -19.495188934012816 49.956856511292266
0.0 -19.771724313908724 50.79359050773228
0.0 -20.035380942139625 51.59129974917384
0.0 -20.28575988854895 52.350129434319484
0.0 -20.521599665224414 53.07053870722016
0.0 -20.74089846582668 53.75325616579817
0.0 -20.942614924884108 54.39866083608816
0.0 -21.127478699074985 55.00648714477803
0.0 -21.295251036841886 55.57682199032804
0.0 -21.43486547904644 56.113693234463284
0.0 -21.546573245061538 56.61700944080979
0.0 -21.638753232958745 57.083720939873515
0.0 -21.717115425208767 57.511749467996964
0.0 -21.783105650090928 57.900568786722594
0.0 -21.835341680031426 58.25068198574426
0.0 -21.875035169853582 58.56164805877205
0.0 -21.904586549636036 58.83259332070795
0.0 -21.92607380362595 59.06276144713866
-0.7686761955390344 0.9716435669303695 1.9499159953927627
-0.8409029948616161 0.34598714023629396 4.10208415219035
-0.8940476007249757 -0.30202547746724506 6.202403083649893
-0.9506443374492793 -0.9283543988266166 8.266901997888551
-1.0210144815146838 -1.5343553443194606 10.295087453006479
-1.048631451549771 -2.1487074476107058 12.276521098005096
-0.9920275022819518 -2.790957204760857 14.204088590134186
-0.9074715353829097 -3.4799641312193703 16.070925627137452
-0.8388231939293685 -4.178028337465404 17.890753846635615
-0.7803448823218929 -4.86600124140727 19.670542762538446
-0.7251531968841737 -5.541788191193884 21.411054765770892
-0.671766762046156 -6.202430703728221 23.11336665611885
-0.6188683613166902 -6.851902919556714 24.776031964716626
-0.5668565661826578 -7.491509974132741 26.39857566110751
-0.5162677046190278 -8.120464972460622 27.981284151647422
-0.4681223452427161 -8.733476643402316 29.526083301532033
-0.42442582165628834 -9.329936058929304 31.033194742438532
-0.3846819074085718 -9.910955484125695 32.50221364298371
-0.3476243488905531 -10.477240491142098 33.932883195906605
-0.3131098246080671 -11.028740095628372 35.32522195799309
-0.28048746260446866 -11.565367730239457 36.679261437179996
-0.2502235469699514 -12.087134461523007 37.99499760557342
-0.2227998260917326 -12.594039853965505 39.27243062168729
-0.19746739264611052 -13.085999271832351 40.511591290409775
-0.17533279734900953 -13.563046450136149 41.712467333200415
-0.15613374469432648 -14.025126363815533 42.87507877754371
-0.13998404755873647 -14.472209613626731 43.99943632388929
-0.12578653595324127 -14.90421857324771 45.08556822590778
-0.11250427274737486 -15.321096023215615 46.13349530978046
-0.10008179164308317 -15.722830714822702 47.14322166970214
-0.08845752889585208 -16.1094144727429 48.11475028124816
-0.07764231497362577 -16.480843019982107 49.04808270111706
-0.06766212708627829 -16.83711223881959 49.943220428036625
-0.0584684819534103 -17.17821600750979 50.80016569014002
-0.050013688763705585 -17.504148793760432 51.618920501016966
-0.042252254921319045 -17.814905649488168 52.399486661622504
-0.03513536582041269 -18.11079161491096 53.14175314639706
-0.028615518964613278 -18.39278836818367 53.84536265371261
-0.022687693716904638 -18.663534784876738 54.509354711409614
-0.017408965386693863 -18.924395801880745 55.133232523088225
-0.013252482528008399 -19.173149909370316 55.71780465220001
-0.010166684094042405 -19.409910607905797 56.26302978791946
-0.00760098697125575 -19.647792142464603 56.76413473542987
-0.005464879873870877 -19.88683732697185 57.221103911736925
-0.0039015967321000085 -20.117163003292514 57.637534492222294
-0.002883995165670249 -20.332227641240838 58.01580739916017
-0.0022477517166190047 -20.530873097512863 58.3563441622402
-0.00179874084072329 -20.715581399341072 58.658241397429116
-0.0014595970466816986 -20.885360682681412 58.9218601137154
-0.0012027506489664258 -21.037588588667564 59.14815477166996
-0.0010073243559101815 -21.169995033214477 59.337951614329036
-0.603592196400244 -0.14074005567031445 2.7349857041766974
-0.6506064733449719 -0.8395446656040289 4.838673980954891
-0.6917594768153456 -1.5317012188082 6.9010697152393226
-0.7393720571114861 -2.2062857640021574 8.92614890013673
-0.7761172248991705 -2.870265564644393 10.911375659133931
-0.7652471076868961 -3.5337971184073353 12.853053329393772
-0.712312139124323 -4.206763637171942 14.74758471597263
-0.6548605234921042 -4.886826775031792 16.595820907177867
-0.607188028594223 -5.560637333497288 18.402620613911004
-0.564561779702275 -6.222514990749033 20.17005130423536
-0.5238449845988737 -6.870492999821568 21.89882881550469
-0.48398817126106725 -7.504862642638931 23.588847129768865
-0.4446468478122555 -8.127170562027882 25.239543315075903
-0.4061716015506322 -8.737482566154316 26.850893419212255
-0.369146268698154 -9.334341708901592 28.423427727197293
-0.3347055625871267 -9.916184214721227 29.957715406783745
-0.3034153983993225 -10.483144368964227 31.453707582100954
-0.27461484611217185 -11.035665527072817 32.91124288496474
-0.24777531506198255 -11.573893384831322 34.33026828644636
-0.22259898270470088 -12.097776417144617 35.710802540146744
-0.19901662859040753 -12.607286366467058 37.05285593097142
-0.1773837648981315 -13.102427273152635 38.35642698835177
-0.15760020702669117 -13.583167287662324 39.621527304572005
-0.13980007124817 -14.049487372867183 40.84816380858039
-0.124299953266251 -14.501379594103557 42.03633938835831
-0.11104417209489861 -14.938812339824462 43.18606554956793
-0.09966396881699166 -15.361745521472976 44.2973568832507
-0.08935905326273105 -15.77012880396379 45.370231709879434
-0.07971977414642176 -16.16393931894243 46.40469835285446
-0.07070224520210072 -16.54317290822926 47.400758325629376
-0.06228744145105419 -16.907825058582578 48.35841327088983
-0.05448916577246402 -17.25789189319581 49.27766459967802
-0.04729897838988322 -17.59336887269705 50.158513964190206
-0.04068081401891846 -17.914250956466525 51.000963199061935
-0.03459972888188424 -18.22053357322427 51.80501396810306
-0.029020357778149403 -18.512279077985742 52.570643575944
-0.023906581794384738 -18.789762437882157 53.29775194273357
-0.019238704755569217 -19.053933448779038 53.98599337104813
-0.015036247163849435 -19.305913143872907 54.63495983817248
-0.011498042968013347 -19.545341344714036 55.244782438341375
-0.00878218748326905 -19.771488910968152 55.81572655693306
-0.006662876649486808 -19.98790309587494 56.34650109935491
-0.004899700066922485 -20.198165891552165 56.83580232709668
-0.0035124287272390825 -20.399665933601668 57.28458069907012
-0.0025445969616638467 -20.588005073970947 57.694437010252244
-0.0019244050808584702 -20.7611904114451 58.06609661736508
-0.0015174347090033604 -20.91972635258552 58.399375931434356
-0.0012218767077768707 -21.064150386994058 58.694079322243724
-0.0009983803858680466 -21.19355869169207 58.950535754454506
-0.0008287781268287279 -21.30667640236351 59.169209240730446

CELLS 100 350
4 0 51 52 1
4 1 52 53 2
4 2 53 54 3
4 3 54 55 4
4 4 55 56 5
4 5 56 57 6
4 6 57 58 7
4 7 58 59 8
4 8 59 60 9
4 9 60 61 10
4 10 61 62 11
4 11 62 63 12
4 12 63 64 13
4 13 64 65 14
4 14 65 66 15
4 15 66 67 16
4 16 67 68 17
4 17 68 69 18
4 18 69 70 19
4 19 70 71 20
4 20 71 72 21
4 21 72 73 22
4 22 73 74 23
4 23 74 75 24
4 24 75 76 25
4 25 76 77 26
4 26 77 78 27
4 27 78 79 28
4 28 79 80 29
4 29 80 81 30
4 30 81 82 31
4 31 82 83 32
4 32 83 84 33
4 33 84 85 34
4 34 85 86 35
4 35 86 87 36
4 36 87 88 37
4 37 88 89 38
4 38 89 90 39
4 39 90 91 40
4 40 91 92 41
4 41 92 93 42
4 42 93 94 43
4 43 94 95 44
4 44 95 96 45
4 45 96 97 46
4 46 97 98 47
4 47 98 99 48
4 48 99 100 49
4 49 100 101 50
1 102
1 103
1 104
1 105
1 106
1 107
1 108
1 109
1 110
1 111
1 112
1 113
1 114
1 115
1 116
1 117
1 118
1 119
1 120
1 121
1 122
1 123
1 124
1 125
1 126
1 127
1 128
1 129
1 130
1 131
1 132
1 133
1 134
1 135
1 136
1 137
1 138
1 139
1 140
1 141
1 142
1 143
1 144
1 145
1 146
1 147
1 148
1 149
1 150
1 151

CELL_TYPES 100
9
9
9
9
9
9
9
9
9
9
9
9
9
9
9
9
9
9
9
9
9
9
9
9
9
9
9
9
9
9
9
9
9
9
9
9
9
9
9
9
9
9
9
9
9
9
9
9
9
9
1
1
1
1
1
1
1
1
1
1
1
1
1
1
1
1
1
1
1
1
1
1
1
1
1
1
1
1
1
1
1
1
1
1
1
1
1
1
1
1
1
1
1
1
1
1
1
1
1
1

CELL_DATA 100

VECTORS S float
-0.0 -0.0 0.0
-0.0 -0.0 0.0
-0.0 -0.0 0.0
-5.227440835648e-20 3.1026435578353816e-16 -1.7490510706327756e-15
-1.28110233951648e-18 1.2408792920376217e-15 -6.996235764717607e-15
-1.25505162894713e-18 1.2399462730150657e-15 -6.9964011891133145e-15
9.446547038685e-19 -1.239013363100265e-15 6.996566509926939e-15
1.6300529151775599e-18 -2.4767213284949353e-15 1.3993364160933024e-14
0.0 -0.0 0.0
1.7036352711708399e-18 -2.4751900803671992e-15 1.3993635085289944e-14
0.0 -0.0 0.0
3.1963597424744898e-18 -4.9476036721407235e-15 2.798776115792437e-14
0.0 -0.0 0.0
-2.69750758546024e-18 4.945199893287986e-15 -2.798818603777661e-14
1.1766957754554698e-18 -2.4722371995812358e-15 1.3994157122920006e-14
-1.07186420565079e-18 2.4720222922910894e-15 -1.3994195095613825e-14
9.978916270285e-19 -2.471919682280775e-15 1.3994213226371255e-14
-9.6176347353501e-19 2.4719107352397532e-15 -1.3994214809291607e-14
0.0 -0.0 0.0
9.2090392593148e-19 -2.4720916450841135e-15 1.3994182855273125e-14
1.51653298804974e-18 -4.94278797056264e-15 2.798861217932224e-14
1.3479308731240898e-18 -4.942493637746258e-15 2.798866416551951e-14
-6.4066053240669e-19 2.4711286426876067e-15 -1.3994352952438425e-14
6.087784928076399e-19 -2.471025747551736e-15 1.3994371122737318e-14
5.8225132228699e-19 -2.4709364278447935e-15 1.3994386895005873e-14
5.4630928051957e-19 -2.470855311198494e-15 1.3994401218674823e-14
5.1526410961797e-19 -2.4707826463008125e-15 1.3994414049392016e-14
4.9151417847981e-19 -2.4707161637212245e-15 1.3994425787909969e-14
0.0 -0.0 0.0
0.0 -0.0 0.0
-4.3172301977672996e-19 2.4705302634672416e-15 -1.3994458609302711e-14
4.1443265826526e-19 -2.470469074189409e-15 1.3994469411817596e-14
0.0 -0.0 0.0
-4.6982197842120995e-19 2.470926562333066e-15 -1.3994388641144824e-14
-9.199451141628199e-19 4.941807161391445e-15 -2.7988785398434806e-14
-4.5251153209005e-19 2.4708773957481585e-15 -1.3994397322750025e-14
0.0 -0.0 0.0
-4.3043884942159997e-19 2.470815958787642e-15 -1.3994408170733829e-14
0.0 -0.0 0.0
-4.1237525411836e-19 2.4707504879127775e-15 -1.3994419730485593e-14
0.0 -0.0 0.0
-7.982264992673399e-19 4.9413771227846565e-15 -2.7988861328027817e-14
0.0 -0.0 0.0
0.0 -0.0 0.0
0.0 -0.0 0.0
-3.7405109864603e-19 2.4705989374695403e-15 -1.3994446487333437e-14
1.8461449841985998e-19 -1.2352909393936873e-15 6.997224749507058e-15
3.6451440894099e-19 -2.4705670770086264e-15 1.3994452112237526e-14
0.0 -0.0 0.0
0.0 -0.0 0.0
-0.0 -0.0 0.0
-0.0 -0.0 0.0
-0.0 -0.0 0.0
-5.227440835648e-20 3.1026435578353816e-16 -1.7490510706327756e-15
-1.28110233951648e-18 1.2408792920376217e-15 -6.996235764717607e-15
-1.25505162894713e-18 1.2399462730150657e-15 -6.9964011891133145e-15
9.446547038685e-19 -1.239013363100265e-15 6.996566509926939e-15
1.6300529151775599e-18 -2.4767213284949353e-15 1.3993364160933024e-14
0.0 -0.0 0.0
1.7036352711708399e-18 -2.4751900803671992e-15 1.3993635085289944e-14
0.0 -0.0 0.0
3.1963597424744898e-18 -4.9476036721407235e-15 2.798776115792437e-14
0.0 -0.0 0.0
-2.69750758546024e-18 4.945199893287986e-15 -2.798818603777661e-14
1.1766957754554698e-18 -2.4722371995812358e-15 1.3994157122920006e-14
-1.07186420565079e-18 2.4720222922910894e-15 -1.3994195095613825e-14
9.978916270285e-19 -2.471919682280775e-15 1.3994213226371255e-14
-9.6176347353501e-19 2.4719107352397532e-15 -1.3994214809291607e-14
0.0 -0.0 0.0
9.2090392593148e-19 -2.4720916450841135e-15 1.3994182855273125e-14
1.51653298804974e-18 -4.94278797056264e-15 2.798861217932224e-14
1.3479308731240898e-18 -4.942493637746258e-15 2.798866416551951e-14
-6.4066053240669e-19 2.4711286426876067e-15 -1.3994352952438425e-14
6.087784928076399e-19 -2.471025747551736e-15 1.3994371122737318e-14
5.8225132228699e-19 -2.4709364278447935e-15 1.3994386895005873e-14
5.4630928051957e-19 -2.470855311198494e-15 1.3994401218674823e-14
5.1526410961797e-19 -2.4707826463008125e-15 1.3994414049392016e-14
4.9151417847981e-19 -2.4707161637212245e-15 1.3994425787909969e-14
0.0 -0.0 0.0
0.0 -0.0 0.0
-4.3172301977672996e-19 2.4705302634672416e-15 -1.3994458609302711e-14
4.1443265826526e-19 -2.470469074189409e-15 1.3994469411817596e-14
0.0 -0.0 0.0
-4.6982197842120995e-19 2.470926562333066e-15 -1.3994388641144824e-14
-9.199451141628199e-19 4.941807161391445e-15 -2.7988785398434806e-14
-4.5251153209005e-19 2.4708773957481585e-15 -1.3994397322750025e-14
0.0 -0.0 0.0
-4.3043884942159997e-19 2.470815958787642e-15 -1.3994408170733829e-14
0.0 -0.0 0.0
-4.1237525411836e-19 2.4707504879127775e-15 -1.3994419730485593e-14
0.0 -0.0 0.0
-7.982264992673399e-19 4.9413771227846565e-15 -2.7988861328027817e-14
0.0 -0.0 0.0
0.0 -0.0 0.0
0.0 -0.0 0.0
-3.7405109864603e-19 2.4705989374695403e-15 -1.3994446487333437e-14
1.8461449841985998e-19 -1.2352909393936873e-15 6.997224749507058e-15
3.6451440894099e-19 -2.4705670770086264e-15 1.3994452112237526e-14
0.0 -0.0 0.0
0.0 -0.0 0.0

SCALARS Gamma float
LOOKUP_TABLE default
-0.0
-0.0
-0.0
57.036499963221296
67.90078500551418
66.11781217637255
62.03456980256537
56.17483838606603
50.387465459157774
54.66287270345416
64.30347552593324
65.51586038422266
63.56452679907257
59.1117212701959
57.90919280172047
56.90196765424125
53.4982835580872
50.56539178956262
46.01032210018939
46.497871150809104
45.47751531719296
45.87372004371053
46.28942751133454
42.87557504145011
44.35650358920042
45.653188659390004
45.38177303804981
45.12513977996228
44.98233791007064
44.90653876846469
44.911410723544016
44.91351928100292
42.4281117245872
42.47915288000379
42.5497650852776
42.625949237921176
42.65791061421905
44.9272179833463
44.60903733718025
43.99911575522426
43.04503389381563
41.57657373616707
39.25075541860352
36.334624727965306
33.43712863802395
30.52172661091633
27.45742862884525
24.466691227302466
21.50080123447752
18.768548974212965
-0.0
-0.0
-0.0
57.036499963221296
67.90078500551418
66.11781217637255
62.03456980256537
56.17483838606603
50.387465459157774
54.66287270345416
64.30347552593324
65.51586038422266
63.56452679907257
59.1117212701959
57.90919280172047
56.90196765424125
53.4982835580872
50.56539178956262
46.01032210018939
46.497871150809104
45.47751531719296
45.87372004371053
46.28942751133454
42.87557504145011
44.35650358920042
45.653188659390004
45.38177303804981
45.12513977996228
44.98233791007064
44.90653876846469
44.911410723544016
44.91351928100292
42.4281117245872
42.47915288000379
42.5497650852776
42.625949237921176
42.65791061421905
44.9272179833463
44.60903733718025
43.99911575522426
43.04503389381563
41.57657373616707
39.25075541860352
36.334624727965306
33.43712863802395
30.52172661091633
27.45742862884525
24.466691227302466
21.50080123447752
18.768548974212965

VECTORS Ftot float
140.2849991693263 -41.31231676491295 -7.284476081228807
165.3777407286846 -89.91953485184806 -15.855240087135973
165.81746340331097 -130.7396858657612 -23.052934067482873
1520.8573463967045 42.75534745494543 7.538921325871889
1680.32472437748 296.749306635789 52.32490926641918
1735.2279833853988 346.1235191451974 61.030915083061295
1782.0541900238372 315.8447833106717 55.69195701369016
1744.458341958934 305.31010445429393 53.834408898211784
1681.8890560636942 301.62831291303297 53.18520971214326
1927.030470093505 424.4476813172075 74.84157811537203
2401.8054148696874 595.1397260531219 104.93919099461007
2603.457573091682 660.1159528657853 116.39625288631544
2674.395395150606 701.513718039306 123.69579582744039
2627.2845403476676 699.7859659582828 123.39114651958077
2723.8879890589023 683.4486967049587 120.51044515912095
2818.5902730716098 676.1554222810422 119.22444410047346
2781.4399850665186 636.2618473328906 112.19013048019903
2748.7310449802335 607.2993654503374 107.0832634960248
2611.353630529562 541.6888072805671 95.51435187135206
2742.649135937196 556.369951779678 98.10303375422498
2781.219020553284 552.0339625722096 97.33848186888758
2909.0876234433413 534.4491793408602 94.2378101352909
3030.306072505608 547.3906887122573 96.51974740855967
2892.6418022479656 511.83181333324626 90.24975827559005
3078.4455792618505 535.302745652081 94.3883169057829
3256.361976937264 544.897738980896 96.08017310937073
3321.3174797752213 536.4969711741892 94.59889108638124
3382.675253996308 532.6701605515211 93.92412112354312
3448.9257485681082 530.6516468687859 93.56820270034767
3517.1834214253313 528.9446970416279 93.26722139110409
3588.681691651954 528.8437005290696 93.24941298098258
3657.122443872772 528.7325459481243 93.2298134293326
3515.9897448293973 501.2944329861614 88.39173381441186
3579.1022755448257 503.71681617937327 88.81886532898984
3641.511328704589 505.34328276261846 89.10565527083668
3701.497214936444 509.48593909830066 89.83611735462033
3755.9192328436525 507.85854908155784 89.54916458653297
4006.91910540554 534.9306362031475 94.3227039701594
4026.480287378415 531.5864480865239 93.73303337663401
4015.9403125925232 524.6203707607028 92.5047259943903
3969.340949325308 515.7235079359124 90.9359690347176
3870.556445514978 499.47056193053 88.07013613797082
3687.140648147201 466.0136169659907 82.17077404864432
3440.8561334856004 430.83151773295145 75.9672207158969
3189.7424178335896 396.2667082806776 69.87251222641403
2930.378767313629 365.3166824227284 64.41518761403293
2651.836510954455 328.25462055217105 57.88014614556722
2375.445443442158 291.7802897933766 51.4487375295071
2096.910202735722 256.7634782720979 45.27432887992263
1837.5803338509 223.78776522295666 39.459820961258814
140.2849991693263 -41.31231676491295 -7.284476081228807
165.3777407286846 -89.91953485184806 -15.855240087135973
165.81746340331097 -130.7396858657612 -23.052934067482873
1520.8573463967045 42.75534745494543 7.538921325871889
1680.32472437748 296.749306635789 52.32490926641918
1735.2279833853988 346.1235191451974 61.030915083061295
1782.0541900238372 315.8447833106717 55.69195701369016
1744.458341958934 305.31010445429393 53.834408898211784
1681.8890560636942 301.62831291303297 53.18520971214326
1927.030470093505 424.4476813172075 74.84157811537203
2401.8054148696874 595.1397260531219 104.93919099461007
2603.457573091682 660.1159528657853 116.39625288631544
2674.395395150606 701.513718039306 123.69579582744039
2627.2845403476676 699.7859659582828 123.39114651958077
2723.8879890589023 683.4486967049587 120.51044515912095
2818.5902730716098 676.1554222810422 119.22444410047346
2781.4399850665186 636.2618473328906 112.19013048019903
2748.7310449802335 607.2993654503374 107.0832634960248
2611.353630529562 541.6888072805671 95.51435187135206
2742.649135937196 556.369951779678 98.10303375422498
2781.219020553284 552.0339625722096 97.33848186888758
2909.0876234433413 534.4491793408602 94.2378101352909
3030.306072505608 547.3906887122573 96.51974740855967
2892.6418022479656 511.83181333324626 90.24975827559005
3078.4455792618505 535.302745652081 94.3883169057829
3256.361976937264 544.897738980896 96.08017310937073
3321.3174797752213 536.4969711741892 94.59889108638124
3382.675253996308 532.6701605515211 93.92412112354312
3448.9257485681082 530.6516468687859 93.56820270034767
3517.1834214253313 528.9446970416279 93.26722139110409
3588.681691651954 528.8437005290696 93.24941298098258
3657.122443872772 528.7325459481243 93.2298134293326
3515.9897448293973 501.2944329861614 88.39173381441186
3579.1022755448257 503.71681617937327 88.81886532898984
3641.511328704589 505.34328276261846 89.10565527083668
3701.497214936444 509.48593909830066 89.83611735462033
3755.9192328436525 507.85854908155784 89.54916458653297
4006.91910540554 534.9306362031475 94.3227039701594
4026.480287378415 531.5864480865239 93.73303337663401
4015.9403125925232 524.6203707607028 92.5047259943903
3969.340949325308 515.7235079359124 90.9359690347176
3870.556445514978 499.47056193053 88.07013613797082
3687.140648147201 466.0136169659907 82.17077404864432
3440.8561334856004 430.83151773295145 75.9672207158969
3189.7424178335896 396.2667082806776 69.87251222641403
2930.378767313629 365.3166824227284 64.41518761403293
2651.836510954455 328.25462055217105 57.88014614556722
2375.445443442158 291.7802897933766 51.4487375295071
2096.910202735722 256.7634782720979 45.27432887992263
1837.5803338509 223.78776522295666 39.459820961258814

VECTORS D float
117.25570320740741 34.51629057527202 6.168977248980337
88.10860906826427 47.89323222077481 8.523033975975519
36.276905362584564 28.59622686539259 5.080281554566935
749.218798939336 770.3408293938069 136.62844968256226
780.3902085168539 986.7570422006578 174.87212572039527
685.6378783345256 1026.08894719279 181.7269508352359
576.2846581287076 993.7803617370034 175.90953454375813
479.82462486810385 934.7399942191663 165.38612974944493
403.1396404267617 873.7225412245435 154.5383873915202
433.4488173831313 1032.4453845668556 182.5658679918553
503.60767973926636 1305.2696640554905 230.7641549064883
497.205510519815 1390.432152413282 245.74019824796116
471.84748868857343 1414.134450524135 249.86473995770046
428.3739101295154 1367.6451650557572 241.6063396638318
398.9512154733032 1349.7911498328858 238.4233947615082
375.42482476119864 1339.9394206950633 236.66653860530292
338.15150519902306 1268.0652406212923 223.96528746938978
308.22977684189215 1210.0962462742805 213.72785100540435
267.6107202519887 1096.4120544338846 193.6551577744266
262.80704558327864 1120.4172836867283 197.9059595413372
250.5782328190232 1107.3445562167078 195.54343411222123
240.49674492598822 1100.150282925092 194.26299050145178
237.19057841332605 1120.6627471451768 197.87623365170816
214.60758256656965 1045.1068754851165 184.52814543346892
217.39547410686893 1089.1079419272992 192.29066117368114
217.27025342452453 1117.758875597629 197.34333141517197
210.1848032978433 1108.5351766892456 195.70960006083672
204.42851799665263 1103.591657411905 194.831950086579
199.67711012936653 1101.7274493332059 194.4981600220933
195.4970679416334 1100.9403760193827 194.3546263943065
192.08908868562892 1102.6515557766907 194.65212519999343
188.9493175864667 1104.2323800530426 194.92654981031865
176.0038546158043 1046.185927305686 184.71580295194445
173.99453777758478 1050.5891005011172 185.49197357831022
172.0923734284021 1054.44026809878 186.1703563922191
170.76209173635053 1060.6972732981121 187.2732054168411
168.61563656466524 1060.8057258428103 187.29023567870325
175.6890725161473 1118.5075280491844 197.47534823981752
172.77291541091984 1112.1462988540163 196.3497561754503
168.88159050657873 1098.2789577866658 193.89897405433786
164.1700819711926 1077.7915363149255 190.27954138997916
157.5157941658883 1043.1665004894235 184.1644533902878
146.83971675276712 980.2815119713968 173.0607079680797
134.95427371478561 907.5506774242798 160.21921398698728
123.41905780457182 835.5104112268428 147.49999420317192
112.55656731969661 766.5526306204328 135.32525309463026
100.71341655092736 689.576339485558 121.73523668650246
89.2603921005065 614.0523807743912 108.40189002285675
78.18007743355102 540.1241221456644 95.34892211784657
67.98096290564348 471.31010746823887 83.20082379719517
117.25570320740741 34.51629057527202 6.168977248980337
88.10860906826427 47.89323222077481 8.523033975975519
36.276905362584564 28.59622686539259 5.080281554566935
749.218798939336 770.3408293938069 136.62844968256226
780.3902085168539 986.7570422006578 174.87212572039527
685.6378783345256 1026.08894719279 181.7269508352359
576.2846581287076 993.7803617370034 175.90953454375813
479.82462486810385 934.7399942191663 165.38612974944493
403.1396404267617 873.7225412245435 154.5383873915202
433.4488173831313 1032.4453845668556 182.5658679918553
503.60767973926636 1305.2696640554905 230.7641549064883
497.205510519815 1390.432152413282 245.74019824796116
471.84748868857343 1414.134450524135 249.86473995770046
428.3739101295154 1367.6451650557572 241.6063396638318
398.9512154733032 1349.7911498328858 238.4233947615082
375.42482476119864 1339.9394206950633 236.66653860530292
338.15150519902306 1268.0652406212923 223.96528746938978
308.22977684189215 1210.0962462742805 213.72785100540435
267.6107202519887 1096.4120544338846 193.6551577744266
262.80704558327864 1120.4172836867283 197.9059595413372
250.5782328190232 1107.3445562167078 195.54343411222123
240.49674492598822 1100.150282925092 194.26299050145178
237.19057841332605 1120.6627471451768 197.87623365170816
214.60758256656965 1045.1068754851165 184.52814543346892
217.39547410686893 1089.1079419272992 192.29066117368114
217.27025342452453 1117.758875597629 197.34333141517197
210.1848032978433 1108.5351766892456 195.70960006083672
204.42851799665263 1103.591657411905 194.831950086579
199.67711012936653 1101.7274493332059 194.4981600220933
195.4970679416334 1100.9403760193827 194.3546263943065
192.08908868562892 1102.6515557766907 194.65212519999343
188.9493175864667 1104.2323800530426 194.92654981031865
176.0038546158043 1046.185927305686 184.71580295194445
173.99453777758478 1050.5891005011172 185.49197357831022
172.0923734284021 1054.44026809878 186.1703563922191
170.76209173635053 1060.6972732981121 187.2732054168411
168.61563656466524 1060.8057258428103 187.29023567870325
175.6890725161473 1118.5075280491844 197.47534823981752
172.77291541091984 1112.1462988540163 196.3497561754503
168.88159050657873 1098.2789577866658 193.89897405433786
164.1700819711926 1077.7915363149255 190.27954138997916
157.5157941658883 1043.1665004894235 184.1644533902878
146.83971675276712 980.2815119713968 173.0607079680797
134.95427371478561 907.5506774242798 160.21921398698728
123.41905780457182 835.5104112268428 147.49999420317192
112.55656731969661 766.5526306204328 135.32525309463026
100.71341655092736 689.576339485558 121.73523668650246
89.2603921005065 614.0523807743912 108.40189002285675
78.18007743355102 540.1241221456644 95.34892211784657
67.98096290564348 471.31010746823887 83.20082379719517

VECTORS L float
23.029295961918905 -75.82860734018499 -13.453453330209147
77.26913166042036 -137.81276707262288 -24.378274063111498
129.54055804072638 -159.3359127311538 -28.13321562204981
771.6385474573681 -727.5854819388617 -129.08952835669044
899.9345158606258 -690.007735564869 -122.5472164539761
1049.5901050508735 -679.9654280475928 -120.69603575217461
1205.7695318951296 -677.9355784263314 -120.21757753006794
1264.6337170908303 -629.4298897648727 -111.55172085123318
1278.749415636932 -572.0942283115107 -101.35317767937697
1493.5816527103739 -607.9977032496482 -107.72428987648324
1898.197735130421 -710.1299380023687 -125.82496391187824
2106.252062571867 -730.3161995474969 -129.34394536164578
2202.5479064620326 -712.6207324848286 -126.16894413026012
2198.9106302181517 -667.8591990974746 -118.21519314425107
2324.9367735856 -666.3424531279276 -117.9129496023874
2443.165448310411 -663.7839984140215 -117.44209450482953
2443.288479867496 -631.803393288402 -111.77515698919075
2440.5012681383414 -602.7968808239431 -106.64458750937956
2343.7429102775736 -554.7232471533175 -98.14080590307448
2479.8420903539177 -564.0473319070503 -99.8029257871122
2530.640787734261 -555.3105936444985 -98.2049522433337
2668.5908785173533 -565.7011035842318 -100.02518036616088
2793.115494092282 -573.2720584329195 -101.35648624314848
2678.0342196813963 -533.2750621518701 -94.27838715787884
2861.0501051549822 -553.8051962752183 -97.90234426789826
3039.091723512739 -572.8611366167329 -101.2631583058012
3111.132676477378 -572.0382055150566 -101.11070897445553
3178.2467359996544 -570.9214968603837 -100.90782896303584
3249.2486384387416 -571.0758024644199 -100.92995732174562
3321.686353483698 -571.995678977755 -101.08740500320242
3396.5926029663256 -573.8078552476213 -101.40271221901094
3468.173126286306 -575.4998341049185 -101.69673638098607
3339.9858902135925 -544.8914943195248 -96.32406913753266
3405.1077377672414 -546.8722843217442 -96.6731082493204
3469.4189552761877 -549.0969853361619 -97.0647011213825
3530.7351232000938 -551.2113341998112 -97.43708806222075
3587.3035962789886 -552.9471767612523 -97.74107109217026
3831.2300328893944 -583.5768918460373 -103.15264426965823
3853.707371967495 -580.5598507674925 -102.61672279881627
3847.0587220859443 -573.6585870259628 -101.39424805994753
3805.170867354115 -562.0680283790132 -99.34357235526157
3713.04065134909 -543.6959385588933 -96.094317252317
3540.3009313944344 -514.267895005406 -90.88993391943536
3305.9018597708146 -476.7191596913283 -84.25199327109038
3066.3233600290177 -439.2437029461651 -77.6274819767579
2817.822199993932 -401.23594819770443 -70.91006548059731
2551.1230944035283 -361.3217189333869 -63.855090540935215
2286.1850513416516 -322.2720909810148 -56.95315249334968
2018.7301253021717 -283.36064387356635 -50.07459323792394
1769.5993709452564 -247.52234224528223 -43.74100283593633