# vtk DataFile Version 4.0
[MyVLM domain - lattices] 
ASCII
DATASET UNSTRUCTURED_GRID
POINTS 152 float
0.0 2.1355223700758392 0.6988332456712839
0.0 4.148741034866157 -0.28689701289315783
0.0 6.108444234296431 -1.2831666428711832
0.0 8.036095192463854 -2.2528002496322177
0.0 9.93186589314836 -3.195499948531336
0.0 11.77729834393294 -4.143235920240523
0.0 13.557102848685224 -5.1224906952933305
0.0 15.267332845487589 -6.140099919446293
0.0 16.93205549427361 -7.154378048900591
0.0 18.561125273691655 -8.148256625955124
0.0 20.15441808227659 -9.12195060065281
0.0 21.711752298714316 -10.0757745503374
0.0 23.232928187192087 -11.01007442758467
0.0 24.71630196293481 -11.927697351141788
0.0 26.162970287103324 -12.826743848159493
0.0 27.575337073790095 -13.703050217292594
0.0 28.953760159392615 -14.555996667719844
0.0 30.297649861296335 -15.386604559689982
0.0 31.60658134517472 -16.19560972784138
0.0 32.88055473353413 -16.98301195998677
0.0 34.11957014560926 -17.748811049605624
0.0 35.3236276973631 -18.493006795844135
0.0 36.492727501486975 -19.2155990035152
0.0 37.62686966740053 -19.916587483098464
0.0 38.72605430125171 -20.595972050740272
0.0 39.79028150591678 -21.253752528253703
0.0 40.81955138100033 -21.88992874311855
0.0 41.81386402283527 -22.504500528481337
0.0 42.773220323003336 -23.09746634007717
0.0 43.6976313394026 -23.668807025064787
0.0 44.58709931990316 -24.21851869001895
0.0 45.44162268229244 -24.746604075412236
0.0 46.26119990654088 -25.253065814013073
0.0 47.04582953480195 -25.73790643088572
0.0 47.795510171412154 -26.201128343390273
0.0 48.51024048289099 -26.642733861182673
0.0 49.189808202935794 -27.063090640283928
0.0 49.833542107848295 -27.46336127424264
0.0 50.440377058722945 -27.845390637760374
0.0 51.00975895656576 -28.210138458447105
0.0 51.54207604358603 -28.556932281070708
0.0 52.03720128273347 -28.885992140256704
0.0 52.48924633409057 -29.2075169399145
0.0 52.898344868693634 -29.521275155017687
0.0 53.26895520508545 -29.8195447513338
0.0 53.60411556147932 -30.097063380552974
0.0 53.90459524703407 -30.352498560125365
0.0 54.16965879381943 -30.587124157873554
0.0 54.39995090990084 -30.799823506672123
0.0 54.59674883744535 -30.98838435819422
0.0 54.76115824877663 -31.15089163179867
-0.7686761955390344 0.5090596866287546 -2.1182827586738977
-0.8409029948616161 2.3717273407508284 -3.3647750168465835
-0.8940476007249757 4.218192791145868 -4.557178181488369
-0.9506443374492793 6.025022903201836 -5.736079632327906
-1.0210144815146838 7.792939040717728 -6.9002299306145884
-1.048631451549771 9.537201051983589 -8.023198243794273
-0.9920275022819518 11.268209410318102 -9.08697042365623
-0.9074715353829097 12.99599905429176 -10.074165446745532
-0.8388231939293685 14.700510291678125 -11.019527719182575
-0.7803448823218929 16.37155437475899 -11.940704669680779
-0.7251531968841737 18.00801676256386 -12.83962673982817
-0.671766762046156 19.60832327911668 -13.719020482395317
-0.6188683613166902 21.174588520434558 -14.575223309643121
-0.5668565661826578 22.707506934587276 -15.4070324022315
-0.5162677046190278 24.206659823492988 -16.215172966511236
-0.4681223452427161 25.669231760585077 -17.004521464340694
-0.42442582165628834 27.09489874202704 -17.775639086826523
-0.3846819074085718 28.484252591708696 -18.527500764922465
-0.3476243488905531 29.837668736729817 -19.259456239817155
-0.3131098246080671 31.155120048884317 -19.97155249894184
-0.28048746260446866 32.43656046664998 -20.66386932319329
-0.2502235469699514 33.68199587841383 -21.336396513586003
-0.2227998260917326 34.89142605244395 -21.989134471491415
-0.19746739264611052 36.064805955006584 -22.62216119762445
-0.17533279734900953 37.20215353612703 -23.235445601629323
-0.15613374469432648 38.30343951758165 -23.82903839487689
-0.13998404755873647 39.368648256359585 -24.40296667185677
-0.12578653595324127 40.39773844835761 -24.957301973374328
-0.11250427274737486 41.39067964773543 -25.492097033171785
-0.10008179164308317 42.347465869180695 -26.007362218114256
-0.08845752889585208 43.268092762693264 -26.503105062623007
-0.07764231497362577 44.15255805253209 -26.979329508397132
-0.06766212708627829 45.000859547703755 -27.43603935034858
-0.0584684819534103 45.81299399089547 -27.873240230308568
-0.050013688763705585 46.588958438436 -28.29093724686525
-0.042252254921319045 47.32875025750519 -28.689134960196903
-0.03513536582041269 48.032531756612876 -29.067552243717987
-0.028615518964613278 48.70082527579512 -29.425284377947218
-0.022687693716904638 49.335034931415116 -29.7598993620038
-0.017408965386693863 49.935886991222766 -30.070139263245025
-0.013252482528008399 50.50219941452931 -30.358051436200412
-0.010166684094042405 51.03403259372149 -30.62353127818773
-0.00760098697125575 51.5383644728032 -30.854492635659895
-0.005464879873870877 52.015217832588164 -31.050896051090074
-0.0039015967321000085 52.459333954471795 -31.221849892284112
-0.002883995165670249 52.867232162943274 -31.373382866071427
-0.0022477517166190047 53.23829622282191 -31.506562323094414
-0.00179874084072329 53.573846793213406 -31.61910081468245
-0.0014595970466816986 53.87335611428328 -31.711912447683083
-0.0012027506489664258 54.13542885802306 -31.78741400110026
-0.0010073243559101815 54.35885713792023 -31.847697595743355
-0.603592196400244 1.8658280608850935 -2.004654636722915
-0.6506064733449719 3.753368208106585 -3.1669904063461503
-0.6917594768153456 5.609273313725424 -4.301967541744028
-0.7393720571114861 7.427730864671364 -5.41965361087388
-0.7761172248991705 9.212448064398156 -6.513627548999806
-0.7652471076868961 10.968829072440405 -7.57452907723567
-0.712312139124323 12.7021326360003 -8.593249778243113
-0.6548605234921042 14.411114547208857 -9.5719446832664
-0.607188028594223 16.088671845909577 -10.522916480180722
-0.564561779702275 17.7317820959921 -11.451400181891847
-0.5238449845988737 19.339398813254064 -12.359208352207585
-0.48398817126106725 20.911676985570015 -13.246072544254675
-0.4446468478122555 22.44943956439905 -14.110567364293788
-0.4061716015506322 23.95272156553487 -14.95263216319119
-0.369146268698154 25.420747764140952 -15.773609669750984
-0.3347055625871267 26.85268609262738 -16.57494106731426
-0.3034153983993225 28.248608002737022 -17.356502597832097
-0.27461484611217185 29.608749398973327 -18.117885662718777
-0.24777531506198255 30.93318780444391 -18.85895598801314
-0.22259898270470088 32.22189580321828 -19.579761059499724
-0.19901662859040753 33.47485835977047 -20.280326919473453
-0.1773837648981315 34.69207762392792 -20.96064984432395
-0.15760020702669117 35.87353664890489 -21.620759186745158
-0.13980007124817 37.01922530525663 -22.260672491450006
-0.124299953266251 38.129139371036814 -22.880397071064074
-0.11104417209489861 39.2032620260926 -23.479962058946654
-0.09966396881699166 40.2415719397484 -24.059404400911646
-0.08935905326273105 41.24404232926471 -24.618770486024605
-0.07971977414642176 42.21066102664429 -25.158081389875008
-0.07070224520210072 43.14142581936595 -25.677340944661943
-0.06228744145105419 44.03633430598396 -26.176553309811446
-0.05448916577246402 44.89538442369261 -26.6557220582078
-0.04729897838988322 45.71857375714256 -27.114851373358775
-0.04068081401891846 46.50589962427606 -27.553945900724685
-0.03459972888188424 47.25735959276584 -27.97300985321992
-0.029020357778149403 47.972986841022625 -28.371985764151407
-0.023906581794384738 48.652927676001006 -28.75062022244027
-0.019238704755569217 49.297687473525244 -29.108037891482013
-0.015036247163849435 49.90786272290029 -29.44320562149424
-0.011498042968013347 50.483261777176 -29.756455354731763
-0.00878218748326905 51.02349666888399 -30.048459070561478
-0.006662876649486808 51.530454852049765 -30.315947602714264
-0.004899700066922485 52.006042264869784 -30.55561976939776
-0.0035124287272390825 52.44886942936987 -30.769882217059255
-0.0025445969616638467 52.85659613985124 -30.96278830086917
-0.0019244050808584702 53.22816199572612 -31.136174688521987
-0.0015174347090033604 53.563835386119926 -31.28957651641619
-0.0012218767077768707 53.863902303276305 -31.42249843145528
-0.0009983803858680466 54.12788183303315 -31.535773401402043
-0.0008287781268287279 54.35509563425648 -31.63057634756547

CELLS 100 350
4 0 51 52 1
4 1 52 53 2
4 2 53 54 3
4 3 54 55 4
4 4 55 56 5
4 5 56 57 6
4 6 57 58 7
4 7 58 59 8
4 8 59 60 9
4 9 60 61 10
4 10 61 62 11
4 11 62 63 12
4 12 63 64 13
4 13 64 65 14
4 14 65 66 15
4 15 66 67 16
4 16 67 68 17
4 17 68 69 18
4 18 69 70 19
4 19 70 71 20
4 20 71 72 21
4 21 72 73 22
4 22 73 74 23
4 23 74 75 24
4 24 75 76 25
4 25 76 77 26
4 26 77 78 27
4 27 78 79 28
4 28 79 80 29
4 29 80 81 30
4 30 81 82 31
4 31 82 83 32
4 32 83 84 33
4 33 84 85 34
4 34 85 86 35
4 35 86 87 36
4 36 87 88 37
4 37 88 89 38
4 38 89 90 39
4 39 90 91 40
4 40 91 92 41
4 41 92 93 42
4 42 93 94 43
4 43 94 95 44
4 44 95 96 45
4 45 96 97 46
4 46 97 98 47
4 47 98 99 48
4 48 99 100 49
4 49 100 101 50
1 102
1 103
1 104
1 105
1 106
1 107
1 108
1 109
1 110
1 111
1 112
1 113
1 114
1 115
1 116
1 117
1 118
1 119
1 120
1 121
1 122
1 123
1 124
1 125
1 126
1 127
1 128
1 129
1 130
1 131
1 132
1 133
1 134
1 135
1 136
1 137
1 138
1 139
1 140
1 141
1 142
1 143
1 144
1 145
1 146
1 147
1 148
1 149
1 150
1 151

CELL_TYPES 100
9
9
9
9
9
9
9
9
9
9
9
9
9
9
9
9
9
9
9
9
9
9
9
9
9
9
9
9
9
9
9
9
9
9
9
9
9
9
9
9
9
9
9
9
9
9
9
9
9
9
1
1
1
1
1
1
1
1
1
1
1
1
1
1
1
1
1
1
1
1
1
1
1
1
1
1
1
1
1
1
1
1
1
1
1
1
1
1
1
1
1
1
1
1
1
1
1
1
1
1

CELL_DATA 100

VECTORS S float
-1.38213722897781e-17 2.747613290290994e-15 -2.2521555586194562e-15
-3.834858608417332e-17 5.482235779419328e-15 -4.520035196648877e-15
9.743217790797578e-17 -1.0954698330511131e-14 9.0517116168592e-15
8.968382905349e-20 6.883789801845979e-16 -5.612444002552148e-16
0.0 0.0 -0.0
0.0 0.0 -0.0
7.271333829580869e-17 2.2016405480850276e-14 -1.7974041543835823e-14
-6.824387660764827e-17 -2.2005369679390352e-14 1.798756834574894e-14
7.014128402991921e-17 2.199811372069358e-14 -1.7996434087841505e-14
8.059609093194224e-17 2.199960859071282e-14 -1.7994562875265335e-14
8.429369899455144e-17 2.1993268897324538e-14 -1.800229387407624e-14
1.6923391785327417e-16 4.3974312664761796e-14 -3.601951489579063e-14
0.0 0.0 -0.0
0.0 0.0 -0.0
0.0 0.0 -0.0
-1.3735081185074798e-16 -4.3933197069652215e-14 3.6069787880979435e-14
-1.274385066159245e-16 -4.39270056774377e-14 3.6077364086455265e-14
-6.045225240889473e-17 -2.1960788197058914e-14 1.8041998066605945e-14
1.1233095545948433e-16 4.391607165451393e-14 -3.6090723184459853e-14
-5.3832997887739125e-17 -2.195565745243138e-14 1.804826237581194e-14
0.0 0.0 -0.0
0.0 0.0 -0.0
0.0 0.0 -0.0
-4.660095070554176e-17 -2.195241016619007e-14 1.8052232083403542e-14
4.4962236649352297e-17 2.194897740126116e-14 -1.8056409842006758e-14
-4.174482280462905e-17 -2.1945549703984603e-14 1.8060583393291218e-14
3.976148195960457e-17 2.1942420839781424e-14 -1.8064389102895075e-14
-7.642937327788026e-17 -4.387893865980273e-14 3.613595395759511e-14
-7.343371879340047e-17 -4.3873259895334535e-14 3.614285463865076e-14
-3.5403016772436606e-17 -2.193389982856107e-14 1.8074743480430592e-14
0.0 0.0 -0.0
-6.664468554998183e-17 -4.385840060323742e-14 3.6160897704524635e-14
3.275837305955436e-17 2.1927266061930684e-14 -1.8082795604790025e-14
-3.17025022913585e-17 -2.1925283696589863e-14 1.808520104178318e-14
3.100286435683914e-17 2.1923343863327147e-14 -1.8087553721248032e-14
3.044147640438423e-17 2.1921431769453347e-14 -1.8089872012815124e-14
-2.964135555365862e-17 -2.1919519166301233e-14 1.8092190797537762e-14
0.0 0.0 -0.0
0.0 0.0 -0.0
-2.79472143562408e-17 -2.1914070069046658e-14 1.8098793299787673e-14
0.0 0.0 -0.0
0.0 0.0 -0.0
2.61411292031108e-17 2.190913253656587e-14 -1.8104772715581677e-14
-2.56583559181886e-17 -2.1907651430177838e-14 1.8106565588452015e-14
2.523369869389553e-17 2.1906269432489818e-14 -1.8108238173768548e-14
-2.5126105523119098e-17 -2.1905017605663364e-14 1.8109752602416062e-14
2.4751918097671798e-17 2.1903849757615496e-14 -1.8111165619160857e-14
0.0 0.0 -0.0
-1.2088028373880599e-17 -1.0950936580670409e-14 9.05677832467394e-15
-1.200010775025388e-17 -1.0950763811745206e-14 9.056987339803704e-15
-1.38213722897781e-17 2.747613290290994e-15 -2.2521555586194562e-15
-3.834858608417332e-17 5.482235779419328e-15 -4.520035196648877e-15
9.743217790797578e-17 -1.0954698330511131e-14 9.0517116168592e-15
8.968382905349e-20 6.883789801845979e-16 -5.612444002552148e-16
0.0 0.0 -0.0
0.0 0.0 -0.0
7.271333829580869e-17 2.2016405480850276e-14 -1.7974041543835823e-14
-6.824387660764827e-17 -2.2005369679390352e-14 1.798756834574894e-14
7.014128402991921e-17 2.199811372069358e-14 -1.7996434087841505e-14
8.059609093194224e-17 2.199960859071282e-14 -1.7994562875265335e-14
8.429369899455144e-17 2.1993268897324538e-14 -1.800229387407624e-14
1.6923391785327417e-16 4.3974312664761796e-14 -3.601951489579063e-14
0.0 0.0 -0.0
0.0 0.0 -0.0
0.0 0.0 -0.0
-1.3735081185074798e-16 -4.3933197069652215e-14 3.6069787880979435e-14
-1.274385066159245e-16 -4.39270056774377e-14 3.6077364086455265e-14
-6.045225240889473e-17 -2.1960788197058914e-14 1.8041998066605945e-14
1.1233095545948433e-16 4.391607165451393e-14 -3.6090723184459853e-14
-5.3832997887739125e-17 -2.195565745243138e-14 1.804826237581194e-14
0.0 0.0 -0.0
0.0 0.0 -0.0
0.0 0.0 -0.0
-4.660095070554176e-17 -2.195241016619007e-14 1.8052232083403542e-14
4.4962236649352297e-17 2.194897740126116e-14 -1.8056409842006758e-14
-4.174482280462905e-17 -2.1945549703984603e-14 1.8060583393291218e-14
3.976148195960457e-17 2.1942420839781424e-14 -1.8064389102895075e-14
-7.642937327788026e-17 -4.387893865980273e-14 3.613595395759511e-14
-7.343371879340047e-17 -4.3873259895334535e-14 3.614285463865076e-14
-3.5403016772436606e-17 -2.193389982856107e-14 1.8074743480430592e-14
0.0 0.0 -0.0
-6.664468554998183e-17 -4.385840060323742e-14 3.6160897704524635e-14
3.275837305955436e-17 2.1927266061930684e-14 -1.8082795604790025e-14
-3.17025022913585e-17 -2.1925283696589863e-14 1.808520104178318e-14
3.100286435683914e-17 2.1923343863327147e-14 -1.8087553721248032e-14
3.044147640438423e-17 2.1921431769453347e-14 -1.8089872012815124e-14
-2.964135555365862e-17 -2.1919519166301233e-14 1.8092190797537762e-14
0.0 0.0 -0.0
0.0 0.0 -0.0
-2.79472143562408e-17 -2.1914070069046658e-14 1.8098793299787673e-14
0.0 0.0 -0.0
0.0 0.0 -0.0
2.61411292031108e-17 2.190913253656587e-14 -1.8104772715581677e-14
-2.56583559181886e-17 -2.1907651430177838e-14 1.8106565588452015e-14
2.523369869389553e-17 2.1906269432489818e-14 -1.8108238173768548e-14
-2.5126105523119098e-17 -2.1905017605663364e-14 1.8109752602416062e-14
2.4751918097671798e-17 2.1903849757615496e-14 -1.8111165619160857e-14
0.0 0.0 -0.0
-1.2088028373880599e-17 -1.0950936580670409e-14 9.05677832467394e-15
-1.200010775025388e-17 -1.0950763811745206e-14 9.056987339803704e-15

SCALARS Gamma float
LOOKUP_TABLE default
-0.0
-0.0
-0.0
52.007669291012846
56.01763289605451
55.970069521617646
53.55186842434246
48.689584915981015
45.454940327945266
48.31705030253681
55.25117191051771
55.91521661490632
52.194072563237846
47.4004603161091
46.37383097530368
45.629476979342684
42.035881108940885
39.81917596245904
35.0913441792407
35.462964116776
34.999283226425284
36.51949690567048
38.12883824530336
35.86889559042326
37.91279027541506
39.19774714897722
39.27132505592946
39.34645960741103
39.525100062351214
39.759436903002666
40.12228146379942
40.419692143716006
38.37156316868197
38.66267384038476
38.95840121546995
39.2450722437471
39.47627892540593
41.82891360346612
41.722728950693906
41.32005161357129
40.56185058192706
39.29200692858896
37.198047031926656
34.51199640147303
31.796635474951447
29.100611073472805
26.212430128003636
23.41684521439554
20.6027549409373
18.00259528149099
-0.0
-0.0
-0.0
52.007669291012846
56.01763289605451
55.970069521617646
53.55186842434246
48.689584915981015
45.454940327945266
48.31705030253681
55.25117191051771
55.91521661490632
52.194072563237846
47.4004603161091
46.37383097530368
45.629476979342684
42.035881108940885
39.81917596245904
35.0913441792407
35.462964116776
34.999283226425284
36.51949690567048
38.12883824530336
35.86889559042326
37.91279027541506
39.19774714897722
39.27132505592946
39.34645960741103
39.525100062351214
39.759436903002666
40.12228146379942
40.419692143716006
38.37156316868197
38.66267384038476
38.95840121546995
39.2450722437471
39.47627892540593
41.82891360346612
41.722728950693906
41.32005161357129
40.56185058192706
39.29200692858896
37.198047031926656
34.51199640147303
31.796635474951447
29.100611073472805
26.212430128003636
23.41684521439554
20.6027549409373
18.00259528149099

VECTORS Ftot float
117.98565895136109 25.64078887899085 30.55750226348716
141.90381755297395 57.001653324789785 67.93192513362825
145.10611116963716 84.51271375952274 100.71833024279783
1307.4938108954614 -6.009088487148024 -7.161352792775199
1337.0233907369527 -147.0208216761168 -175.21259241866576
1429.579003007181 -190.1065243482714 -226.56013336765218
1507.5678894985724 -183.99554330570243 -219.2773497558955
1493.725391312459 -179.27178960487404 -213.64779931240304
1503.3736192037009 -191.44661718979614 -228.1571938259491
1705.3593260409134 -247.8619235574866 -295.3903378669475
2079.808760479891 -325.2771242332442 -387.6501813936838
2241.2266095742198 -361.9448519028598 -431.34907757621454
2218.1951006418863 -367.7516761127174 -438.2693811898755
2136.4438934279387 -341.5964622052441 -407.09881105057394
2210.7741636658952 -332.2743302569865 -395.98912681060057
2288.8811478619828 -332.01016103908813 -395.6743021961174
2212.945564968263 -302.69541061748623 -360.73834306517057
2190.7872571004445 -288.42780327220845 -343.73487075371213
2013.7851356414449 -250.00524782301284 -297.9446522604828
2114.6140258390983 -254.9085290210764 -303.7881552437747
2162.9290895957242 -255.23142206537457 -304.1729641893408
2337.487382238815 -258.28174474557983 -307.808197202047
2518.028460255886 -273.0791686314044 -325.4430802791179
2440.433275027926 -259.2957142537271 -309.0165990061625
2652.6835958433903 -277.2534650577404 -330.417813041757
2818.889847988945 -278.9909071581359 -332.4884159068278
2896.3276084749546 -278.08899459512196 -331.41355836965005
2971.1516269457247 -279.0455205149735 -332.55350157104255
3051.8910217155117 -280.1805986618436 -333.90623503045026
3134.9856538021777 -282.22583781104635 -336.34365613422693
3225.032758783214 -285.8745431442598 -340.69201382340174
3309.8483751384247 -288.90344445053586 -344.30171783676957
3196.7877779677856 -277.7543520111507 -331.01474686796723
3274.7748387283195 -278.9468810772229 -332.43594766673186
3350.890634987962 -282.7349527009359 -336.950395633296
3424.3210789883765 -287.35491678711185 -342.4562544306525
3491.6838061179096 -289.0319733082738 -344.45489256473076
3746.520710295803 -308.9107136506623 -368.1454527840198
3781.4081901996547 -309.08342172469 -368.3512782517124
3786.3109612863077 -306.921765989325 -365.77511726313935
3754.371111910393 -304.52196485040474 -362.9151456343194
3671.635319730474 -294.09043724429085 -350.4833351334874
3507.01380353804 -275.55164037673984 -328.3896573642091
3279.7949364953743 -255.72017910688473 -304.75544214946626
3043.682049794488 -235.80176905229516 -281.0176054081443
2803.344698393819 -218.304879032453 -260.16562386777156
2539.9449958898904 -196.58507815807292 -234.2809731452981
2280.8646260601336 -175.38556716481432 -209.0163797578416
2015.719235460983 -154.71653608829175 -184.38398771695432
1768.0889001305982 -135.08445313238695 -160.98738232414712
117.98565895136109 25.64078887899085 30.55750226348716
141.90381755297395 57.001653324789785 67.93192513362825
145.10611116963716 84.51271375952274 100.71833024279783
1307.4938108954614 -6.009088487148024 -7.161352792775199
1337.0233907369527 -147.0208216761168 -175.21259241866576
1429.579003007181 -190.1065243482714 -226.56013336765218
1507.5678894985724 -183.99554330570243 -219.2773497558955
1493.725391312459 -179.27178960487404 -213.64779931240304
1503.3736192037009 -191.44661718979614 -228.1571938259491
1705.3593260409134 -247.8619235574866 -295.3903378669475
2079.808760479891 -325.2771242332442 -387.6501813936838
2241.2266095742198 -361.9448519028598 -431.34907757621454
2218.1951006418863 -367.7516761127174 -438.2693811898755
2136.4438934279387 -341.5964622052441 -407.09881105057394
2210.7741636658952 -332.2743302569865 -395.98912681060057
2288.8811478619828 -332.01016103908813 -395.6743021961174
2212.945564968263 -302.69541061748623 -360.73834306517057
2190.7872571004445 -288.42780327220845 -343.73487075371213
2013.7851356414449 -250.00524782301284 -297.9446522604828
2114.6140258390983 -254.9085290210764 -303.7881552437747
2162.9290895957242 -255.23142206537457 -304.1729641893408
2337.487382238815 -258.28174474557983 -307.808197202047
2518.028460255886 -273.0791686314044 -325.4430802791179
2440.433275027926 -259.2957142537271 -309.0165990061625
2652.6835958433903 -277.2534650577404 -330.417813041757
2818.889847988945 -278.9909071581359 -332.4884159068278
2896.3276084749546 -278.08899459512196 -331.41355836965005
2971.1516269457247 -279.0455205149735 -332.55350157104255
3051.8910217155117 -280.1805986618436 -333.90623503045026
3134.9856538021777 -282.22583781104635 -336.34365613422693
3225.032758783214 -285.8745431442598 -340.69201382340174
3309.8483751384247 -288.90344445053586 -344.30171783676957
3196.7877779677856 -277.7543520111507 -331.01474686796723
3274.7748387283195 -278.9468810772229 -332.43594766673186
3350.890634987962 -282.7349527009359 -336.950395633296
3424.3210789883765 -287.35491678711185 -342.4562544306525
3491.6838061179096 -289.0319733082738 -344.45489256473076
3746.520710295803 -308.9107136506623 -368.1454527840198
3781.4081901996547 -309.08342172469 -368.3512782517124
3786.3109612863077 -306.921765989325 -365.77511726313935
3754.371111910393 -304.52196485040474 -362.9151456343194
3671.635319730474 -294.09043724429085 -350.4833351334874
3507.01380353804 -275.55164037673984 -328.3896573642091
3279.7949364953743 -255.72017910688473 -304.75544214946626
3043.682049794488 -235.80176905229516 -281.0176054081443
2803.344698393819 -218.304879032453 -260.16562386777156
2539.9449958898904 -196.58507815807292 -234.2809731452981
2280.8646260601336 -175.38556716481432 -209.0163797578416
2015.719235460983 -154.71653608829175 -184.38398771695432
1768.0889001305982 -135.08445313238695 -160.98738232414712

VECTORS D float
93.77450679357725 -19.820217258255667 -24.75600964220221
62.19165265305928 -24.467622563695677 -30.203799718798553
14.26301888022131 -8.157238169165614 -10.02570167805142
550.3234494226707 -410.9108194033369 -503.903496524724
537.8138078246941 -493.32579541352266 -603.9972678063197
492.22505471636225 -533.6526945739922 -652.6196003195566
424.5334974734128 -529.6122337024829 -647.0046488226387
356.75441352726756 -501.53127095542646 -612.2025227259343
317.08160562597516 -494.5226382116062 -603.248658533417
332.2873259408546 -567.5258723730532 -692.351688903654
373.2357745679569 -691.4177466844022 -842.952298486214
369.07289934416326 -735.3605132853862 -896.0285437817914
337.5464191289629 -718.9618173075054 -875.1221594815022
294.4258039411887 -665.7209552731391 -810.1741249428734
274.29883640380126 -655.0903844369592 -797.0780993963486
260.4270746038179 -653.8031837104463 -795.344135076553
229.44125324938128 -603.3181420768668 -733.7764404905711
209.89931841171665 -576.1537970410476 -700.5932808832457
177.29247423143192 -506.4866633029002 -615.7535012822505
174.05156325697757 -516.1019658842214 -627.3173572219788
167.8700238108177 -514.8926367050938 -625.7353641342464
167.92039435469297 -531.9128490957288 -646.2993823259189
171.84974836576157 -560.2740631368453 -681.1428653453162
158.33929937949725 -531.0266212877793 -645.3459818135585
164.36317122647455 -565.9768970397039 -687.5798730529616
164.27479572492553 -579.7921882718138 -704.1301150983936
160.9256249478494 -581.1927449015793 -705.6079828507567
158.3441498608335 -584.2780268756615 -709.1385379636739
156.28671785726362 -588.3439732646916 -713.8642365125717
154.7941158524284 -593.6940425087342 -720.1510490377462
154.29981513898855 -601.6646491026272 -729.6594649338949
153.60229034246606 -608.5299341089423 -737.7834773591316
144.80759471836046 -582.3226337201521 -705.8642889750541
144.002639011263 -587.1945820955834 -711.6228635677927
143.92759700227776 -594.5306955798516 -720.364893425403
144.12580922560423 -602.5541254482138 -729.9367146788334
143.6458890853001 -607.2969217137044 -735.5327392456053
151.51099162928153 -647.227366293007 -783.7380163085484
150.16046194548576 -647.6554347073624 -784.1027164548597
147.82400743096838 -643.2758114575541 -778.651908077559
144.85425774768927 -635.5514858493582 -769.1602455516997
139.27649027587157 -615.7175381093756 -745.0247275808955
130.5111587782017 -580.9842289482507 -702.8781285757686
120.49015145955374 -539.7835287762231 -652.9287820618001
110.54507317852323 -498.0872091097651 -602.4022347115258
101.28076297304749 -458.7166169668397 -554.7094430318626
90.88219200979336 -413.5304048665163 -500.00417092141265
80.87731051114334 -369.51422832522616 -446.73284791440204
71.0420488988719 -325.73507191921743 -393.7653355905702
61.91652722439833 -284.7099179563971 -344.1594809020901
93.77450679357725 -19.820217258255667 -24.75600964220221
62.19165265305928 -24.467622563695677 -30.203799718798553
14.26301888022131 -8.157238169165614 -10.02570167805142
550.3234494226707 -410.9108194033369 -503.903496524724
537.8138078246941 -493.32579541352266 -603.9972678063197
492.22505471636225 -533.6526945739922 -652.6196003195566
424.5334974734128 -529.6122337024829 -647.0046488226387
356.75441352726756 -501.53127095542646 -612.2025227259343
317.08160562597516 -494.5226382116062 -603.248658533417
332.2873259408546 -567.5258723730532 -692.351688903654
373.2357745679569 -691.4177466844022 -842.952298486214
369.07289934416326 -735.3605132853862 -896.0285437817914
337.5464191289629 -718.9618173075054 -875.1221594815022
294.4258039411887 -665.7209552731391 -810.1741249428734
274.29883640380126 -655.0903844369592 -797.0780993963486
260.4270746038179 -653.8031837104463 -795.344135076553
229.44125324938128 -603.3181420768668 -733.7764404905711
209.89931841171665 -576.1537970410476 -700.5932808832457
177.29247423143192 -506.4866633029002 -615.7535012822505
174.05156325697757 -516.1019658842214 -627.3173572219788
167.8700238108177 -514.8926367050938 -625.7353641342464
167.92039435469297 -531.9128490957288 -646.2993823259189
171.84974836576157 -560.2740631368453 -681.1428653453162
158.33929937949725 -531.0266212877793 -645.3459818135585
164.36317122647455 -565.9768970397039 -687.5798730529616
164.27479572492553 -579.7921882718138 -704.1301150983936
160.9256249478494 -581.1927449015793 -705.6079828507567
158.3441498608335 -584.2780268756615 -709.1385379636739
156.28671785726362 -588.3439732646916 -713.8642365125717
154.7941158524284 -593.6940425087342 -720.1510490377462
154.29981513898855 -601.6646491026272 -729.6594649338949
153.60229034246606 -608.5299341089423 -737.7834773591316
144.80759471836046 -582.3226337201521 -705.8642889750541
144.002639011263 -587.1945820955834 -711.6228635677927
143.92759700227776 -594.5306955798516 -720.364893425403
144.12580922560423 -602.5541254482138 -729.9367146788334
143.6458890853001 -607.2969217137044 -735.5327392456053
151.51099162928153 -647.227366293007 -783.7380163085484
150.16046194548576 -647.6554347073624 -784.1027164548597
147.82400743096838 -643.2758114575541 -778.651908077559
144.85425774768927 -635.5514858493582 -769.1602455516997
139.27649027587157 -615.7175381093756 -745.0247275808955
130.5111587782017 -580.9842289482507 -702.8781285757686
120.49015145955374 -539.7835287762231 -652.9287820618001
110.54507317852323 -498.0872091097651 -602.4022347115258
101.28076297304749 -458.7166169668397 -554.7094430318626
90.88219200979336 -413.5304048665163 -500.00417092141265
80.87731051114334 -369.51422832522616 -446.73284791440204
71.0420488988719 -325.73507191921743 -393.7653355905702
61.91652722439833 -284.7099179563971 -344.1594809020901

VECTORS L float
24.21115215778384 45.46100613724652 55.31351190568939
79.7121648999147 81.46927588848547 98.13572485242683
130.84309228941586 92.66995192868836 110.74403192084924
757.1703614727904 404.9017309161888 496.7421437319488
799.2095829122587 346.3049737374058 428.7846753876539
937.3539482908186 343.5461702257207 426.0594669519044
1083.03439202516 345.61669039678054 427.72729906674334
1136.9709777851913 322.25948135055245 398.5547234135312
1186.2920135777258 303.07602102181016 375.09146470746805
1373.072000100059 319.66394881556664 396.96135103670656
1706.5729859119344 366.1406224511582 455.3021170925302
1872.1537102300572 373.4156613825264 464.67946620557666
1880.6486815129235 351.2101411947881 436.8527782916268
1842.0180894867503 324.1244930678951 403.07531389229956
1936.4753272620942 322.8160541799726 401.088972585748
2028.454073258165 321.7930226713583 399.66983288043565
1983.5043117188816 300.62273145938065 373.03809742540057
1980.8879386887284 287.72599376883926 356.85841012953364
1836.492661410013 256.48141547988746 317.8088490217676
1940.5624625821208 261.193436863145 323.52920197820407
1995.0590657849066 259.6612146397191 321.5623999449056
2169.566987884122 273.6311043501491 338.49118512387196
2346.1787118901243 287.19489450544097 355.6997850661983
2282.0939756484286 271.7309070340524 336.32938280739603
2488.3204246169157 288.7234319819635 357.1620600112045
2654.6150522640196 300.80128111367793 371.64169919156603
2735.401983527106 303.10375030645747 374.1944244811066
2812.807477084891 305.232506360688 376.5850363926314
2895.604303858248 308.1633746028479 379.9580014821215
2980.1915379497495 311.468204697688 383.80739290351954
3070.732943644226 315.7901059583676 388.9674511104933
3156.2460847959583 319.6264896584065 393.4817595223622
3051.9801832494263 304.56828170900144 374.84954210708685
3130.7721997170565 308.2477010183603 379.1869159010607
3206.9630379856853 311.7957428789158 383.4144977921072
3280.195269762773 315.199208661102 387.4804602481809
3348.03791703261 318.26494840543063 391.07784668087464