# vtk DataFile Version 4.0
[MyVLM domain - lattices] 
ASCII
DATASET UNSTRUCTURED_GRID
POINTS 152 float
0.0 -1.186703693198345 -1.9080246442064748
0.0 -3.362533860842719 -2.4469834705358413
0.0 -5.50414338098564 -2.9434695918998184
0.0 -7.60407815412444 -3.439757307289516
0.0 -9.662278450919171 -3.9361853586246776
0.0 -11.685154664863042 -4.396398597830677
0.0 -13.678016851696988 -4.790282202322801
0.0 -15.642235637991094 -5.110062962552615
0.0 -17.5694525868172 -5.403143929911243
0.0 -19.456245273657004 -5.68893463834832
0.0 -21.302656798497043 -5.967190655693784
0.0 -23.108750237757754 -6.23755425779117
0.0 -24.87459495895893 -6.499632041886573
0.0 -26.60076184256192 -6.75018638399841
0.0 -28.286870022142526 -6.99137728495392
0.0 -29.932084627097897 -7.227939531224784
0.0 -31.53628138215138 -7.460577922928115
0.0 -33.09966508192582 -7.688131012042667
0.0 -34.62238326983443 -7.909762038291394
0.0 -36.1044359033312 -8.125471242964739
0.0 -37.54582294100636 -8.33525886090919
0.0 -38.94654434258638 -8.539125120527277
0.0 -40.306600068933975 -8.737070243777568
0.0 -41.625990082048105 -8.929094446174672
0.0 -42.90471434506397 -9.115197936789244
0.0 -44.14277282225302 -9.295380918247979
0.0 -45.34016547902296 -9.469643586733612
0.0 -46.4968922819177 -9.63798613198492
0.0 -47.612952921294166 -9.800410310075153
0.0 -48.68834355678465 -9.956937900811779
0.0 -49.72306340771207 -10.107573331634631
0.0 -50.71711302357306 -10.252313486193268
0.0 -51.67049293226839 -10.3911553706139
0.0 -52.58320364010281 -10.524096113499398
0.0 -53.455245631785175 -10.651132965929287
0.0 -54.28661937042842 -10.77226330145974
0.0 -55.07739857534579 -10.88706903708956
0.0 -55.827816360081336 -10.994228120214666
0.0 -56.538242643494875 -11.091642636730587
0.0 -57.2088698621475 -11.178221224666926
0.0 -57.83956318093495 -11.254728571899186
0.0 -58.43036671936177 -11.320914464283304
0.0 -58.98332547642028 -11.365181136212959
0.0 -59.49839302864676 -11.387791868233997
0.0 -59.974021018260395 -11.39752783367912
0.0 -60.409154283148965 -11.400373154251879
0.0 -60.80352564504551 -11.39784307320045
0.0 -61.15739052928166 -11.388489001485182
0.0 -61.47052503109607 -11.373580766108633
0.0 -61.74248556893922 -11.35563404304794
0.0 -61.9728881468429 -11.336826581656446
-0.7686761955390344 -1.751568255246053 1.295481477081016
-0.8409029948616161 -3.979684240187337 1.0530502558114736
-0.8940476007249757 -6.1606208178564055 0.7795989608145963
-0.9506443374492793 -8.30251623049807 0.5212818573770133
-1.0210144815146838 -10.405119951094063 0.27667813617473414
-1.048631451549771 -12.463132289950309 0.015731763396112264
-0.9920275022819518 -14.472941200589483 -0.28204219447733303
-0.9074715353829097 -16.43106158542005 -0.6364087080560403
-0.8388231939293685 -18.34446010244138 -1.0078578964847362
-0.7803448823218929 -20.21667526660141 -1.3763218442706808
-0.7251531968841737 -22.04809415391707 -1.739605334236278
-0.671766762046156 -23.839263469967495 -2.0946078449698864
-0.6188683613166902 -25.589448823262938 -2.4454943175757777
-0.5668565661826578 -27.298409034519803 -2.7936325477403097
-0.5162677046190278 -28.9662895160559 -3.138197861229153
-0.4681223452427161 -30.594068055256514 -3.4736449502206157
-0.42442582165628834 -32.181857177473184 -3.799335651734327
-0.3846819074085718 -33.72945134442598 -4.116435631280481
-0.3476243488905531 -35.236720171651456 -4.425684335896185
-0.3131098246080671 -36.703673080676715 -4.727028333446089
-0.28048746260446866 -38.13032606850053 -5.020376900441798
-0.2502235469699514 -39.516677090107564 -5.30574163474169
-0.2227998260917326 -40.862726225977454 -5.5831220799230135
-0.19746739264611052 -42.16848911616181 -5.852429536845461
-0.17533279734900953 -43.433959526682266 -6.1136993601571685
-0.15613374469432648 -44.65914762575917 -6.366873883014909
-0.13998404755873647 -45.8440588461532 -6.6119222947019
-0.12578653595324127 -46.988707532628865 -6.848763242015952
-0.11250427274737486 -48.09310425891553 -7.077336758357986
-0.10008179164308317 -49.15725110369035 -7.297631054963952
-0.08845752889585208 -50.18114957769253 -7.509637564006107
-0.07764231497362577 -51.16480047127863 -7.71335180314964
-0.06766212708627829 -52.10820454537269 -7.908769456979897
-0.0584684819534103 -53.01136293122757 -8.095884109843125
-0.050013688763705585 -53.87427665116956 -8.274689963838815
-0.042252254921319045 -54.6969466195675 -8.44518183332356
-0.03513536582041269 -55.479316467267466 -8.607679403655087
-0.028615518964613278 -56.22120478747872 -8.76321148386785
-0.022687693716904638 -56.922123935705855 -8.914543643323059
-0.017408965386693863 -57.58182168180634 -9.06310635024243
-0.013252482528008399 -58.200708544203216 -9.206571438956653
-0.010166684094042405 -58.77876354884067 -9.345057859247095
-0.00760098697125575 -59.31356328119847 -9.49230947782398
-0.005464879873870877 -59.805099829582986 -9.648371164131273
-0.0039015967321000085 -60.25519952779935 -9.802885264463574
-0.002883995165670249 -60.665071201766565 -9.948996186363315
-0.0022477517166190047 -61.03492886771691 -10.085490183463213
-0.00179874084072329 -61.36431386555632 -10.214968446416114
-0.0014595970466816986 -61.65340948435182 -10.336391491268527
-0.0012027506489664258 -61.90270031643527 -10.447011058338928
-0.0010073243559101815 -62.11260585639008 -10.544448075622826
-0.603592196400244 -2.717874380042654 0.33632338549189444
-0.6506064733449719 -4.910949051994948 0.013436823430319156
-0.6917594768153456 -7.062204085021688 -0.310073055576813
-0.7393720571114861 -9.1736581437275 -0.6227578356573694
-0.7761172248991705 -11.244023729864416 -0.9319192822178524
-0.7652471076868961 -13.27142399852243 -1.2482015116746423
-0.712312139124323 -15.254032605964586 -1.581962234059442
-0.6548605234921042 -17.192281661049076 -1.9307508382607739
-0.607188028594223 -19.088637995950318 -2.280577223815727
-0.564561779702275 -20.944151291713684 -2.6254883536953724
-0.5238449845988737 -22.75918498848856 -2.9634230563879314
-0.48398817126106725 -24.533685259550996 -3.2946865984143416
-0.4446468478122555 -26.267366296858633 -3.620899877729156
-0.4061716015506322 -27.960215939553944 -3.9421318619825896
-0.369146268698154 -29.61250342039721 -4.2568556563160005
-0.3347055625871267 -31.2245177134298 -4.563432407502217
-0.3034153983993225 -32.796234003721835 -4.862002848001901
-0.27461484611217185 -34.32757036249907 -5.153031618983008
-0.24777531506198255 -35.818499866268766 -5.436671411160369
-0.22259898270470088 -37.26903203648366 -5.712868225692199
-0.19901662859040753 -38.679172094927125 -5.981592448373366
-0.1773837648981315 -40.048919294971924 -6.242848313537369
-0.15760020702669117 -41.378279522174985 -6.4966024425322075
-0.13980007124817 -42.667256294455534 -6.742834884246475
-0.124299953266251 -43.915851078080166 -6.981537323069182
-0.11104417209489861 -45.124069714626636 -7.212676629766502
-0.09966396881699166 -46.291919612160854 -7.43621079110901
-0.08935905326273105 -47.419410072230626 -7.652087055397736
-0.07971977414642176 -48.506545320737054 -7.860281456356592
-0.07070224520210072 -49.55332612608066 -8.060789636169572
-0.06228744145105419 -50.55975332227482 -8.253606864911893
-0.05448916577246402 -51.525827625724425 -8.438729079649471
-0.04729897838988322 -52.451549875271496 -8.616151523072794
-0.04068081401891846 -53.33692100238492 -8.785868912559312
-0.03459972888188424 -54.18194185180309 -8.947876457359518
-0.029020357778149403 -54.986600900784886 -9.102239506185654
-0.023906581794384738 -55.75084733745822 -9.249246227484129
-0.019238704755569217 -56.474505646641255 -9.389892017314748
-0.015036247163849435 -57.15736866977237 -9.525351730261749
-0.011498042968013347 -57.799502965138885 -9.655247895520422
-0.00878218748326905 -58.401043272428545 -9.778816366349218
-0.006662876649486808 -58.961334085737434 -9.899774701463688
-0.004899700066922485 -59.47971347967643 -10.02187686628909
-0.0035124287272390825 -59.956664014881774 -10.142386123462208
-0.0025445969616638467 -60.39299843626338 -10.25669316755146
-0.0019244050808584702 -60.78908501708061 -10.36270941711649
-0.0015174347090033604 -61.14483054676837 -10.460963495540451
-0.0012218767077768707 -61.46013570126277 -10.552018697580968
-0.0009983803858680466 -61.73516750029957 -10.634927807247367
-0.0008287781268287279 -61.970161529282265 -10.708354753323706

CELLS 100 350
4 0 51 52 1
4 1 52 53 2
4 2 53 54 3
4 3 54 55 4
4 4 55 56 5
4 5 56 57 6
4 6 57 58 7
4 7 58 59 8
4 8 59 60 9
4 9 60 61 10
4 10 61 62 11
4 11 62 63 12
4 12 63 64 13
4 13 64 65 14
4 14 65 66 15
4 15 66 67 16
4 16 67 68 17
4 17 68 69 18
4 18 69 70 19
4 19 70 71 20
4 20 71 72 21
4 21 72 73 22
4 22 73 74 23
4 23 74 75 24
4 24 75 76 25
4 25 76 77 26
4 26 77 78 27
4 27 78 79 28
4 28 79 80 29
4 29 80 81 30
4 30 81 82 31
4 31 82 83 32
4 32 83 84 33
4 33 84 85 34
4 34 85 86 35
4 35 86 87 36
4 36 87 88 37
4 37 88 89 38
4 38 89 90 39
4 39 90 91 40
4 40 91 92 41
4 41 92 93 42
4 42 93 94 43
4 43 94 95 44
4 44 95 96 45
4 45 96 97 46
4 46 97 98 47
4 47 98 99 48
4 48 99 100 49
4 49 100 101 50
1 102
1 103
1 104
1 105
1 106
1 107
1 108
1 109
1 110
1 111
1 112
1 113
1 114
1 115
1 116
1 117
1 118
1 119
1 120
1 121
1 122
1 123
1 124
1 125
1 126
1 127
1 128
1 129
1 130
1 131
1 132
1 133
1 134
1 135
1 136
1 137
1 138
1 139
1 140
1 141
1 142
1 143
1 144
1 145
1 146
1 147
1 148
1 149
1 150
1 151

CELL_TYPES 100
9
9
9
9
9
9
9
9
9
9
9
9
9
9
9
9
9
9
9
9
9
9
9
9
9
9
9
9
9
9
9
9
9
9
9
9
9
9
9
9
9
9
9
9
9
9
9
9
9
9
1
1
1
1
1
1
1
1
1
1
1
1
1
1
1
1
1
1
1
1
1
1
1
1
1
1
1
1
1
1
1
1
1
1
1
1
1
1
1
1
1
1
1
1
1
1
1
1
1
1

CELL_DATA 100

VECTORS S float
1.0567029098985e-19 5.0522158432344306e-17 3.3903031214672996e-19
3.091281822956e-20 1.2687564104128989e-17 5.3679373801779996e-20
4.5073063699299996e-21 1.6100943546667e-18 5.39661009864e-21
1.1726286377e-22 3.4711664548618596e-18 2.0699227873919998e-20
7.573493648757e-20 -6.622050522012287e-17 -4.2398476429458e-19
1.0299932351149999e-19 -8.380409118993175e-17 -5.0215115085945e-19
1.8014566866436e-19 -1.801533047714542e-16 -9.8546462970646e-19
-2.530841568935e-19 2.564172138344015e-16 1.41263305274057e-18
1.8942078054688e-19 -1.9872524347218648e-16 -1.0164045808348e-18
-2.9399852809318e-19 2.6942306116570394e-16 1.30956135794799e-18
-5.021704264741899e-19 4.379966820931036e-16 2.0201497650039e-18
-5.3418033647045e-19 4.82745804383407e-16 2.10479935730962e-18
-9.835578965349999e-20 9.009274388071313e-17 3.7304784273355e-19
-2.8981418542264997e-19 2.776053395866269e-16 1.09083401495563e-18
2.7016247655952e-19 -2.89548354929077e-16 -1.07626839263715e-18
-6.882678906485e-20 8.088815674502556e-17 2.8550337896794e-19
3.0266777564549997e-19 -3.738365503082249e-16 -1.31522758186355e-18
1.0006804580457999e-19 -1.3554691810659103e-16 -4.4917204529465e-19
-2.015965771424e-19 3.0827441360593785e-16 9.6181954200627e-19
3.14191832082e-20 -5.191471354331318e-17 -1.5301538513282e-19
-8.827697007495999e-20 1.5759075301897586e-16 4.3925042206455e-19
2.412305238075e-20 -4.918690358394896e-17 -1.2949723946901e-19
8.396608593040999e-20 -1.834197188254424e-16 -4.579276025277799e-19
1.0686840095130999e-19 -2.5077962896035037e-16 -5.944151614022299e-19
3.443565221221e-20 -8.63978507733083e-17 -1.9472395880619e-19
-3.16472144397e-20 8.659914079503639e-17 1.857359262519e-19
-2.98301469721e-20 8.864040193112474e-17 1.8122857084116e-19
1.767592060871e-20 -5.695351163666347e-17 -1.1008596009347e-19
-2.574160904963e-20 8.940673508797247e-17 1.6395489247004e-19
4.2065619805279996e-20 -1.5718446739782563e-16 -2.7395251241232e-19
-1.0937956490569999e-20 4.378290528788287e-17 7.266041743821999e-20
2.540810132804e-20 -1.0861783098567687e-16 -1.7196529089039e-19
8.79379095184e-21 -3.98711214799287e-17 -6.034182428671e-20
2.315348117139e-20 -1.1089288435820366e-16 -1.6074451597232998e-19
-4.062387598757e-20 2.055868378300921e-16 2.8596854697053e-19
1.17749842321e-21 -6.261347472953519e-18 -8.346693680039999e-21
1.381713487821e-20 -7.779134116457657e-17 -9.969432814525e-20
4.4372224449e-21 -2.62804328741617e-17 -3.244927249371e-20
1.17904290381e-20 -7.312716624085955e-17 -8.717691116437e-20
-1.2740715865319999e-20 8.253089291689776e-17 9.519179429879e-20
-7.39877743383e-21 4.9726335987147395e-17 5.561410495696e-20
3.380585522648e-20 -2.351024751493887e-16 -2.5546626559715e-19
-1.44515850465e-20 1.0543072831760029e-16 1.1147944898562e-19
2.2800564229839998e-20 -1.7215614656276092e-16 -1.7752269167083998e-19
-5.1615396460899995e-21 4.0187621400367017e-17 4.0500276448089995e-20
2.23824668915e-21 -1.7727767829837778e-17 -1.750187214757e-20
-9.17736185587e-21 7.457490667810086e-17 7.226441776760999e-20
6.35050014188e-21 -5.2871209354431445e-17 -5.039102991032e-20
-1.54250524572e-21 1.306594128153404e-17 1.227497301386e-20
-2.03267794265e-21 1.7525631687193298e-17 1.626243442559e-20
1.0567029098985e-19 5.0522158432344306e-17 3.3903031214672996e-19
3.091281822956e-20 1.2687564104128989e-17 5.3679373801779996e-20
4.5073063699299996e-21 1.6100943546667e-18 5.39661009864e-21
1.1726286377e-22 3.4711664548618596e-18 2.0699227873919998e-20
7.573493648757e-20 -6.622050522012287e-17 -4.2398476429458e-19
1.0299932351149999e-19 -8.380409118993175e-17 -5.0215115085945e-19
1.8014566866436e-19 -1.801533047714542e-16 -9.8546462970646e-19
-2.530841568935e-19 2.564172138344015e-16 1.41263305274057e-18
1.8942078054688e-19 -1.9872524347218648e-16 -1.0164045808348e-18
-2.9399852809318e-19 2.6942306116570394e-16 1.30956135794799e-18
-5.021704264741899e-19 4.379966820931036e-16 2.0201497650039e-18
-5.3418033647045e-19 4.82745804383407e-16 2.10479935730962e-18
-9.835578965349999e-20 9.009274388071313e-17 3.7304784273355e-19
-2.8981418542264997e-19 2.776053395866269e-16 1.09083401495563e-18
2.7016247655952e-19 -2.89548354929077e-16 -1.07626839263715e-18
-6.882678906485e-20 8.088815674502556e-17 2.8550337896794e-19
3.0266777564549997e-19 -3.738365503082249e-16 -1.31522758186355e-18
1.0006804580457999e-19 -1.3554691810659103e-16 -4.4917204529465e-19
-2.015965771424e-19 3.0827441360593785e-16 9.6181954200627e-19
3.14191832082e-20 -5.191471354331318e-17 -1.5301538513282e-19
-8.827697007495999e-20 1.5759075301897586e-16 4.3925042206455e-19
2.412305238075e-20 -4.918690358394896e-17 -1.2949723946901e-19
8.396608593040999e-20 -1.834197188254424e-16 -4.579276025277799e-19
1.0686840095130999e-19 -2.5077962896035037e-16 -5.944151614022299e-19
3.443565221221e-20 -8.63978507733083e-17 -1.9472395880619e-19
-3.16472144397e-20 8.659914079503639e-17 1.857359262519e-19
-2.98301469721e-20 8.864040193112474e-17 1.8122857084116e-19
1.767592060871e-20 -5.695351163666347e-17 -1.1008596009347e-19
-2.574160904963e-20 8.940673508797247e-17 1.6395489247004e-19
4.2065619805279996e-20 -1.5718446739782563e-16 -2.7395251241232e-19
-1.0937956490569999e-20 4.378290528788287e-17 7.266041743821999e-20
2.540810132804e-20 -1.0861783098567687e-16 -1.7196529089039e-19
8.79379095184e-21 -3.98711214799287e-17 -6.034182428671e-20
2.315348117139e-20 -1.1089288435820366e-16 -1.6074451597232998e-19
-4.062387598757e-20 2.055868378300921e-16 2.8596854697053e-19
1.17749842321e-21 -6.261347472953519e-18 -8.346693680039999e-21
1.381713487821e-20 -7.779134116457657e-17 -9.969432814525e-20
4.4372224449e-21 -2.62804328741617e-17 -3.244927249371e-20
1.17904290381e-20 -7.312716624085955e-17 -8.717691116437e-20
-1.2740715865319999e-20 8.253089291689776e-17 9.519179429879e-20
-7.39877743383e-21 4.9726335987147395e-17 5.561410495696e-20
3.380585522648e-20 -2.351024751493887e-16 -2.5546626559715e-19
-1.44515850465e-20 1.0543072831760029e-16 1.1147944898562e-19
2.2800564229839998e-20 -1.7215614656276092e-16 -1.7752269167083998e-19
-5.1615396460899995e-21 4.0187621400367017e-17 4.0500276448089995e-20
2.23824668915e-21 -1.7727767829837778e-17 -1.750187214757e-20
-9.17736185587e-21 7.457490667810086e-17 7.226441776760999e-20
6.35050014188e-21 -5.2871209354431445e-17 -5.039102991032e-20
-1.54250524572e-21 1.306594128153404e-17 1.227497301386e-20
-2.03267794265e-21 1.7525631687193298e-17 1.626243442559e-20

SCALARS Gamma float
LOOKUP_TABLE default
-0.0
-0.0
-0.0
56.89841920014079
64.82683189023406
63.75766516051879
60.00626739832306
54.3758805391083
49.41586894686532
53.60095442285676
62.816165492322234
63.876791502994244
61.9742947290868
57.6503483914523
56.660618062784955
55.86544672001189
52.735791937239185
50.08010675370572
45.68060611673543
46.38105595307332
45.377473927211334
45.946780643515076
46.48453087292386
43.12800207232986
44.67399922671537
46.02791970771057
45.79008685507449
45.556888382507566
45.44174126645656
45.38692483813413
45.40772589086193
45.423215075721664
42.95604128204532
43.015247903057585
43.092186939914356
43.22383955564513
43.25411076041945
45.53648983317423
45.20844079910375
44.58638199383393
43.61717501158092
42.128078095461255
39.77018590551207
36.813306844988595
33.88365052358809
30.922950144582334
27.819957472074403
24.78226835580357
21.78533556989309
19.017937894815525
-0.0
-0.0
-0.0
56.89841920014079
64.82683189023406
63.75766516051879
60.00626739832306
54.3758805391083
49.41586894686532
53.60095442285676
62.816165492322234
63.876791502994244
61.9742947290868
57.6503483914523
56.660618062784955
55.86544672001189
52.735791937239185
50.08010675370572
45.68060611673543
46.38105595307332
45.377473927211334
45.946780643515076
46.48453087292386
43.12800207232986
44.67399922671537
46.02791970771057
45.79008685507449
45.556888382507566
45.44174126645656
45.38692483813413
45.40772589086193
45.423215075721664
42.95604128204532
43.015247903057585
43.092186939914356
43.22383955564513
43.25411076041945
45.53648983317423
45.20844079910375
44.58638199383393
43.61717501158092
42.128078095461255
39.77018590551207
36.813306844988595
33.88365052358809
30.922950144582334
27.819957472074403
24.78226835580357
21.78533556989309
19.017937894815525

VECTORS Ftot float
136.7740216808715 -1.5381956600766364e-14 -42.63026093257877
162.10103575873737 -3.368298251855151e-14 -93.35056462724641
163.38198394341063 -4.923725052254646e-14 -136.4583772960541
1546.2729698034207 -3.1607205893637246e-15 -8.759766195988135
1604.4185973344443 1.0340875109501618e-13 286.59176178360804
1678.9975901545283 1.2426349764364243e-13 344.38956411302297
1734.3504276153844 1.1439662871916447e-13 317.0440704443507
1704.2568750871612 1.1017022614464009e-13 305.330824253738
1664.6100675268533 1.1193531245104107e-13 310.22266550406675
1911.1661169314066 1.54814392357524e-13 429.0597167587289
2376.5272802177437 2.1315914045515803e-13 590.7590310919782
2570.697826614486 2.354083243529039e-13 652.4214411296309
2638.4542991085837 2.5100279846260086e-13 695.640682846228
2592.4861856333405 2.485255300285956e-13 688.775067340823
2693.5368232173737 2.4396130645957366e-13 676.1255685317875
2793.605994029565 2.4299928808666075e-13 673.4593866328496
2765.907103342862 2.2966586833577604e-13 636.5065348041367
2744.0121150757195 2.2057806079052716e-13 611.3201676198919
2611.2636376682376 1.97484888578417e-13 547.3186896080383
2753.555392811597 2.0400800048137576e-13 565.3971415067837
2791.7064363067475 2.0244104461145357e-13 561.0544080471606
2929.48709052216 1.9690508358098987e-13 545.7117914108936
3058.0335171653464 2.0232191112117992e-13 560.724236021066
2922.674929495541 1.8959790666482777e-13 525.4603457267348
3113.0997300624895 1.98644043627024e-13 550.5312251434052
3295.2518273659402 2.0259175853212396e-13 561.4721035283733
3362.5700254011913 1.9970716912816356e-13 553.4776199808084
3425.391826526464 1.98451303459354e-13 549.9970561912219
3493.8961778836956 1.9793149088782553e-13 548.5564237583369
3564.0167872643947 1.9746282064900344e-13 547.2575295350023
3637.065797525574 1.975527372562664e-13 547.5067285497493
3706.9016806541454 1.9762235579892034e-13 547.6996725760596
3567.416791203791 1.8758803938582934e-13 519.8901072474969
3631.5011969274174 1.8873824588634406e-13 523.077842365723
3694.8368585283956 1.893877773518518e-13 524.8779836986621
3760.0552622771233 1.913963615344313e-13 530.4446661455589
3814.7692563417822 1.9076970619568632e-13 528.7079247609055
4067.7317173294896 2.0070219825091758e-13 556.2352893878594
4086.746350408487 1.994340946127369e-13 552.7208087279346
4075.3835310827435 1.9681418417332837e-13 545.4598686179874
4027.6561711750946 1.9333967801205022e-13 535.8304626775389
3926.9732047260354 1.875037234822379e-13 519.6564302801149
3740.576581636024 1.7496565661913306e-13 484.907855970807
3490.3550658411336 1.6175395931839607e-13 448.2923513304803
3236.0683284409915 1.4881014973652794e-13 412.41928301684595
2972.2136726898043 1.3715039484761094e-13 380.10490284887186
2689.7607689329625 1.2325387832510132e-13 341.5914587673197
2408.627838843002 1.0952619183253702e-13 303.54591798419875
2126.8624249358036 9.643597886460489e-14 267.267100602919
1863.8898619144322 8.406144535902073e-14 232.97175015083747
136.7740216808715 -1.5381956600766364e-14 -42.63026093257877
162.10103575873737 -3.368298251855151e-14 -93.35056462724641
163.38198394341063 -4.923725052254646e-14 -136.4583772960541
1546.2729698034207 -3.1607205893637246e-15 -8.759766195988135
1604.4185973344443 1.0340875109501618e-13 286.59176178360804
1678.9975901545283 1.2426349764364243e-13 344.38956411302297
1734.3504276153844 1.1439662871916447e-13 317.0440704443507
1704.2568750871612 1.1017022614464009e-13 305.330824253738
1664.6100675268533 1.1193531245104107e-13 310.22266550406675
1911.1661169314066 1.54814392357524e-13 429.0597167587289
2376.5272802177437 2.1315914045515803e-13 590.7590310919782
2570.697826614486 2.354083243529039e-13 652.4214411296309
2638.4542991085837 2.5100279846260086e-13 695.640682846228
2592.4861856333405 2.485255300285956e-13 688.775067340823
2693.5368232173737 2.4396130645957366e-13 676.1255685317875
2793.605994029565 2.4299928808666075e-13 673.4593866328496
2765.907103342862 2.2966586833577604e-13 636.5065348041367
2744.0121150757195 2.2057806079052716e-13 611.3201676198919
2611.2636376682376 1.97484888578417e-13 547.3186896080383
2753.555392811597 2.0400800048137576e-13 565.3971415067837
2791.7064363067475 2.0244104461145357e-13 561.0544080471606
2929.48709052216 1.9690508358098987e-13 545.7117914108936
3058.0335171653464 2.0232191112117992e-13 560.724236021066
2922.674929495541 1.8959790666482777e-13 525.4603457267348
3113.0997300624895 1.98644043627024e-13 550.5312251434052
3295.2518273659402 2.0259175853212396e-13 561.4721035283733
3362.5700254011913 1.9970716912816356e-13 553.4776199808084
3425.391826526464 1.98451303459354e-13 549.9970561912219
3493.8961778836956 1.9793149088782553e-13 548.5564237583369
3564.0167872643947 1.9746282064900344e-13 547.2575295350023
3637.065797525574 1.975527372562664e-13 547.5067285497493
3706.9016806541454 1.9762235579892034e-13 547.6996725760596
3567.416791203791 1.8758803938582934e-13 519.8901072474969
3631.5011969274174 1.8873824588634406e-13 523.077842365723
3694.8368585283956 1.893877773518518e-13 524.8779836986621
3760.0552622771233 1.913963615344313e-13 530.4446661455589
3814.7692563417822 1.9076970619568632e-13 528.7079247609055
4067.7317173294896 2.0070219825091758e-13 556.2352893878594
4086.746350408487 1.994340946127369e-13 552.7208087279346
4075.3835310827435 1.9681418417332837e-13 545.4598686179874
4027.6561711750946 1.9333967801205022e-13 535.8304626775389
3926.9732047260354 1.875037234822379e-13 519.6564302801149
3740.576581636024 1.7496565661913306e-13 484.907855970807
3490.3550658411336 1.6175395931839607e-13 448.2923513304803
3236.0683284409915 1.4881014973652794e-13 412.41928301684595
2972.2136726898043 1.3715039484761094e-13 380.10490284887186
2689.7607689329625 1.2325387832510132e-13 341.5914587673197
2408.627838843002 1.0952619183253702e-13 303.54591798419875
2126.8624249358036 9.643597886460489e-14 267.267100602919
1863.8898619144322 8.406144535902073e-14 232.97175015083747

VECTORS D float
112.55091828574207 -0.4708147337907368 35.08030951899378
81.35890278239306 -0.3964563965829125 46.8528746694345
29.105944333170857 -0.16295865880826982 24.30959544933327
703.0479664913144 -4.589001661908186 765.5719000111219
712.614293871931 -5.288267289675646 953.2454087597565
635.4831360253274 -5.237987523244053 1004.5165012564722
536.8340567309369 -4.801057831163221 975.8186502147311
448.58864354331325 -4.617589029490937 918.5400197880105
384.5552285931449 -4.101827919714157 873.6476796084346
413.88523285901795 -4.556918942717961 1030.43717050843
478.8020238629771 -5.416088310787228 1293.304571685047
472.8409675240124 -5.468484246066564 1374.2260815546686
450.8461369056655 -5.305078628986585 1400.0681900979973
409.42460291964284 -4.879506460736796 1350.5575418777578
383.9525775331806 -4.617337367475342 1338.580625417023
364.08480435994363 -4.4046604934827585 1335.6887677314442
330.7409975929605 -4.201903079136654 1270.4490210908214
303.90325762678304 -3.81655048284976 1219.4273143012863
265.28246944313577 -3.2855498245369708 1108.6601350639821
262.42648697905537 -3.198987584262038 1139.230213924885
250.30414932969342 -2.9982482384698126 1125.9916090999363
241.5709792154768 -2.839691123065383 1123.5995721632617
239.215013193403 -2.7567497225897095 1148.0596593022992
217.06308817883894 -2.4504653643289744 1072.8595456438827
220.38799583961938 -2.4360324546258987 1119.8271348171118
220.7234469493153 -2.3880611693836427 1151.0391769987505
213.8484450125286 -2.2643727271702527 1142.7229064463177
208.2274904925154 -2.1358655384994756 1138.4345041398815
203.67014263277727 -2.027523497390365 1137.6120016463324
199.6223422003797 -1.9293003793678156 1137.6179301612924
196.3112055800977 -1.8428693872978588 1140.007478455181
193.2462553162167 -1.763105652150937 1142.1766052589649
180.32775728524155 -1.6001234281262862 1083.5681711480418
178.44116056371055 -1.5411921361893177 1088.925331758478
176.56454893420374 -1.485662449309419 1093.1460284279178
175.6972628685462 -1.435905552928103 1101.943740575227
173.5025898675538 -1.3814623183801067 1101.9996547944838
180.66735378778847 -1.4031110871241426 1161.074658445601
177.67224006793043 -1.347514198336377 1154.3736224201991
173.6778624645142 -1.2879821680535253 1139.920719927369
168.7889590971117 -1.2255681852516436 1118.2747136675935
162.05984277354827 -1.1535285724317934 1083.023597931258
151.08962899278842 -1.0554522590425417 1017.771311490637
138.86107828525297 -0.9532023724394434 942.2218460852466
127.0219331407476 -0.8580368176733743 867.6011771203944
115.81966378067524 -0.7710494547619845 795.8130753611246
103.64574136501724 -0.6810288805118756 715.9659107608625
91.8335290295547 -0.5964304953312762 637.3592776396102
80.48895097914234 -0.517455473020137 560.9134494733268
69.99574575099145 -0.4460926769661175 489.49219747838464
112.55091828574207 -0.4708147337907368 35.08030951899378
81.35890278239306 -0.3964563965829125 46.8528746694345
29.105944333170857 -0.16295865880826982 24.30959544933327
703.0479664913144 -4.589001661908186 765.5719000111219
712.614293871931 -5.288267289675646 953.2454087597565
635.4831360253274 -5.237987523244053 1004.5165012564722
536.8340567309369 -4.801057831163221 975.8186502147311
448.58864354331325 -4.617589029490937 918.5400197880105
384.5552285931449 -4.101827919714157 873.6476796084346
413.88523285901795 -4.556918942717961 1030.43717050843
478.8020238629771 -5.416088310787228 1293.304571685047
472.8409675240124 -5.468484246066564 1374.2260815546686
450.8461369056655 -5.305078628986585 1400.0681900979973
409.42460291964284 -4.879506460736796 1350.5575418777578
383.9525775331806 -4.617337367475342 1338.580625417023
364.08480435994363 -4.4046604934827585 1335.6887677314442
330.7409975929605 -4.201903079136654 1270.4490210908214
303.90325762678304 -3.81655048284976 1219.4273143012863
265.28246944313577 -3.2855498245369708 1108.6601350639821
262.42648697905537 -3.198987584262038 1139.230213924885
250.30414932969342 -2.9982482384698126 1125.9916090999363
241.5709792154768 -2.839691123065383 1123.5995721632617
239.215013193403 -2.7567497225897095 1148.0596593022992
217.06308817883894 -2.4504653643289744 1072.8595456438827
220.38799583961938 -2.4360324546258987 1119.8271348171118
220.7234469493153 -2.3880611693836427 1151.0391769987505
213.8484450125286 -2.2643727271702527 1142.7229064463177
208.2274904925154 -2.1358655384994756 1138.4345041398815
203.67014263277727 -2.027523497390365 1137.6120016463324
199.6223422003797 -1.9293003793678156 1137.6179301612924
196.3112055800977 -1.8428693872978588 1140.007478455181
193.2462553162167 -1.763105652150937 1142.1766052589649
180.32775728524155 -1.6001234281262862 1083.5681711480418
178.44116056371055 -1.5411921361893177 1088.925331758478
176.56454893420374 -1.485662449309419 1093.1460284279178
175.6972628685462 -1.435905552928103 1101.943740575227
173.5025898675538 -1.3814623183801067 1101.9996547944838
180.66735378778847 -1.4031110871241426 1161.074658445601
177.67224006793043 -1.347514198336377 1154.3736224201991
173.6778624645142 -1.2879821680535253 1139.920719927369
168.7889590971117 -1.2255681852516436 1118.2747136675935
162.05984277354827 -1.1535285724317934 1083.023597931258
151.08962899278842 -1.0554522590425417 1017.771311490637
138.86107828525297 -0.9532023724394434 942.2218460852466
127.0219331407476 -0.8580368176733743 867.6011771203944
115.81966378067524 -0.7710494547619845 795.8130753611246
103.64574136501724 -0.6810288805118756 715.9659107608625
91.8335290295547 -0.5964304953312762 637.3592776396102
80.48895097914234 -0.517455473020137 560.9134494733268
69.99574575099145 -0.4460926769661175 489.49219747838464

VECTORS L float
24.223103395129407 0.47081473379072136 -77.71057045157255
80.74213297634432 0.3964563965828788 -140.20343929668095
134.27603961023976 0.16295865880822058 -160.76797274538737
843.2250033121065 4.589001661908185 -774.3316662071102
891.8043034625134 5.288267289675751 -666.6536469761485
1043.5144541292009 5.237987523244177 -660.1269371434493
1197.5163708844477 4.801057831163335 -658.7745797703802
1255.668231543848 4.6175890294910475 -613.2091955342723
1280.0548389337084 4.1018279197142675 -563.4250141043677
1497.2808840723887 4.5569189427181165 -601.3774537497012
1897.725256354767 5.416088310787443 -702.5455405930693