# vtk DataFile Version 4.0
[MyVLM domain - lattices] 
ASCII
DATASET UNSTRUCTURED_GRID
POINTS 152 float
0.0 -1.767719565838243 -1.387080111205657
0.0 -3.9966658934847947 -1.1493579974247545
0.0 -6.178928810556026 -0.8834287469662035
0.0 -8.321962416554607 -0.6315666588211117
0.0 -10.425826440820483 -0.3941104749092246
0.0 -12.484110489860448 -0.13470504715591458
0.0 -14.491504507933572 0.176764447023531
0.0 -16.446637868469754 0.5480712171775446
0.0 -18.357869008397174 0.9318122119150046
0.0 -20.22862035223412 1.308577897286277
0.0 -22.05884879999406 1.6786127054614206
0.0 -23.84849127525655 2.0422743605969043
0.0 -25.597478410501804 2.399956265446629
0.0 -27.305239325268477 2.7548960439921837
0.0 -28.97215488598076 3.1049336954063245
0.0 -30.5990599632415 3.445334433217371
0.0 -32.186078832327354 3.7753934573082106
0.0 -33.7330066986155 4.096272215700091
0.0 -35.23969601869269 4.408807468670057
0.0 -36.70614683510495 4.712998974927664
0.0 -38.13235918926205 5.008846499626426
0.0 -39.51833312143751 5.296349814363813
0.0 -40.864068670768624 5.575508697181257
0.0 -42.16956587525644 5.8463229325641475
0.0 -43.434824771765726 6.108792311441828
0.0 -44.65984539602507 6.362916631187608
0.0 -45.84462778262675 6.60869569561875
0.0 -46.98917196502686 6.846129314996477
0.0 -48.093478252868486 7.075215733247543
0.0 -49.157550486519305 7.295933170564476
0.0 -50.18138944665643 7.5082771995074395
0.0 -51.1649945837832 7.712250936426882
0.0 -52.108365369998864 7.9078573751965875
0.0 -53.01150129899866 8.09509938721369
0.0 -53.874401886073734 8.273979721398659
0.0 -54.69706666811116 8.444501004195324
0.0 -55.47942192579768 8.607081318604886
0.0 -56.22123454558926 8.763042717231418
0.0 -56.922134608626095 8.914483114179399
0.0 -57.58192967834706 9.062493871419223
0.0 -58.20075458985643 9.206310301075384
0.0 -58.77856522364965 9.34618261729195
0.0 -59.31331658073441 9.493708585675234
0.0 -59.80505508457443 9.648624925679401
0.0 -60.25532909295053 9.802150463971739
0.0 -60.6651937679749 9.948301078848704
0.0 -61.034916287914534 10.085561527062117
0.0 -61.36424122743778 10.215380397651629
0.0 -61.653392491306015 10.33648786361468
0.0 -61.902813661068734 10.446368248974137
0.0 -62.11288873269416 10.542843804376659
-0.7686761955390344 -1.202855003790552 1.816426010081776
-0.8409029948616161 -3.3795155141401945 2.350675728922497
-0.8940476007249757 -5.522451373685279 2.839639805748144
-0.9506443374492793 -7.6235243401810004 3.329472505845345
-1.0210144815146838 -9.682984940645614 3.818753019890111
-1.048631451549771 -11.706132864773204 4.277425314070795
-0.9920275022819518 -13.6965801590411 4.685004454868917
-0.9074715353829097 -15.65781192104082 5.0217254716740385
-0.8388231939293685 -17.582861492773016 5.327098245341432
-0.7803448823218929 -19.468190359289736 5.621190691363838
-0.7251531968841737 -21.313411444574054 5.90619802691885
-0.671766762046156 -23.11797804304683 6.185220773418113
-0.6188683613166902 -24.882624546197817 6.454093989757353
-0.5668565661826578 -26.607592133310614 6.711449880250212
-0.5162677046190278 -28.29273539206741 6.9581131191310215
-0.4681223452427161 -29.937076535082905 7.199629014221472
-0.42442582165628834 -31.54050303700557 7.436635728501932
-0.3846819074085718 -33.10322043611535 7.667967596462211
-0.3476243488905531 -34.62535911687568 7.892885171065203
-0.3131098246080671 -36.10690965775946 8.111441884446252
-0.28048746260446866 -37.547856061767895 8.323728460093758
-0.2502235469699514 -38.94820037391634 8.529733300149342
-0.2227998260917326 -40.307942513725166 8.729456861035754
-0.19746739264611052 -41.62706684114275 8.9229878418933
-0.17533279734900953 -42.905579590147454 9.110290888073848
-0.15613374469432648 -44.14347059251894 9.291423666420624
-0.13998404755873647 -45.34073441549652 9.466416987650412
-0.12578653595324127 -46.497356714315714 9.635352204965395
-0.11250427274737486 -47.61332691524714 9.798289284964659
-0.10008179164308317 -48.68864293961362 9.955240016412255
-0.08845752889585208 -49.723303276675985 10.106212967135917
-0.07764231497362577 -50.71730713607764 10.251212619470463
-0.06766212708627829 -51.67065375689457 10.390243288830547
-0.0584684819534103 -52.58334200787392 10.52331139086992
-0.050013688763705585 -53.45537086668937 10.650422723489088
-0.042252254921319045 -54.28673941897211 10.771582472331463
-0.03513536582041269 -55.07750403387602 10.886470952039316
-0.028615518964613278 -55.82784611819189 10.994059353578194
-0.022687693716904638 -56.538253316415116 11.091582107586888
-0.017408965386693863 -57.20897785868823 11.17760874584368
-0.013252482528008399 -57.83960922658817 11.25446743401788
-0.010166684094042405 -58.43016839417075 11.322039222328122
-0.00760098697125575 -58.98307877595624 11.36658024406418
-0.005464879873870877 -59.498348283638215 11.388045629782093
-0.0039015967321000085 -59.97415058341157 11.396793033187256
-0.002883995165670249 -60.40927684935731 11.399678046737243
-0.0022477517166190047 -60.803513065243145 11.397914416799331
-0.00179874084072329 -61.157317891163125 11.388900952720675
-0.0014595970466816986 -61.47050803805026 11.373677138454767
-0.0012027506489664258 -61.74259891357268 11.354991233683133
-0.0010073243559101815 -61.973171023146975 11.335222310410265
-0.603592196400244 -2.4389371266394098 1.245608388547801
-0.6506064733449719 -4.610186920939655 1.6922699824526206
-0.6917594768153456 -6.742352296088683 2.124042691124144
-0.7393720571114861 -8.833414587481867 2.552374930434504
-0.7761172248991705 -10.884661293367175 2.969964934977197
-0.7652471076868961 -12.897969258654616 3.366168588335844
-0.712312139124323 -14.875164827081132 3.730628180478743
-0.6548605234921042 -16.815815889788556 4.06579432251737
-0.607188028594223 -18.717455614602443 4.385657114914636
-0.564561779702275 -20.579034320477444 4.69616959469947
-0.5238449845988737 -22.40018856726416 4.9993929333836515
-0.48398817126106725 -24.18097218168654 5.295021864446241
-0.4446468478122555 -25.921670971786945 5.581435489932688
-0.4061716015506322 -27.62229709842292 5.858564842192776
-0.369146268698154 -29.28258132883415 6.127936816085146
-0.3347055625871267 -30.902234688979288 6.391190264836974
-0.3034153983993225 -32.48128199378821 6.6481844559875904
-0.27461484611217185 -34.019805172035156 6.898454748369048
-0.24777531506198255 -35.51783114721288 7.14184845126651
-0.22259898270470088 -36.97535039786864 7.378419563521765
-0.19901662859040753 -38.39235770221903 7.608197699339943
-0.1773837648981315 -39.768853806891336 7.831178624387545
-0.15760020702669117 -41.104832826328604 8.04739571731657
-0.13980007124817 -42.4002912426116 8.256868929238427
-0.124299953266251 -43.655227589473746 8.459606575764106
-0.11104417209489861 -44.86963602533728 8.655641786127433
-0.09966396881699166 -46.04350914213628 8.84501657355783
-0.08935905326273105 -47.17683763832298 9.027783689754273
-0.07971977414642176 -48.26961728799626 9.203967100992845
-0.07070224520210072 -49.32184732275557 9.373571165089553
-0.06228744145105419 -50.33352690858756 9.536600611969183
-0.05448916577246402 -51.30465532908733 9.693059504565813
-0.04729897838988322 -52.23523174541287 9.842952600188958
-0.04068081401891846 -53.12525522609528 9.986285181461172
-0.03459972888188424 -53.97472492639617 10.123062039131954
-0.029020357778149403 -54.78365236905665 10.253217824489068
-0.023906581794384738 -55.55208836594884 10.376464369086104
-0.019238704755569217 -56.28020843225455 10.491806276863258
-0.015036247163849435 -56.968219726535395 10.59806869323629
-0.011498042968013347 -57.61605569050408 10.69562908900991
-0.00878218748326905 -58.22358158447286 10.785251610925668
-0.006662876649486808 -58.791452914345626 10.86321870026801
-0.004899700066922485 -59.32033160551152 10.925776391611683
-0.0035124287272390825 -59.80973509733429 10.975661422319899
-0.0025445969616638467 -60.258850644904015 11.017483097824243
-0.0019244050808584702 -60.66730997496135 11.053329999565067
-0.0015174347090033604 -61.035206298071394 11.08267350415922
-0.0012218767077768707 -61.362638938298 11.104950316849079
-0.0009983803858680466 -61.64944087590545 11.121107653625314
-0.0008287781268287279 -61.89537652549023 11.132481585703873

CELLS 100 350
4 0 51 52 1
4 1 52 53 2
4 2 53 54 3
4 3 54 55 4
4 4 55 56 5
4 5 56 57 6
4 6 57 58 7
4 7 58 59 8
4 8 59 60 9
4 9 60 61 10
4 10 61 62 11
4 11 62 63 12
4 12 63 64 13
4 13 64 65 14
4 14 65 66 15
4 15 66 67 16
4 16 67 68 17
4 17 68 69 18
4 18 69 70 19
4 19 70 71 20
4 20 71 72 21
4 21 72 73 22
4 22 73 74 23
4 23 74 75 24
4 24 75 76 25
4 25 76 77 26
4 26 77 78 27
4 27 78 79 28
4 28 79 80 29
4 29 80 81 30
4 30 81 82 31
4 31 82 83 32
4 32 83 84 33
4 33 84 85 34
4 34 85 86 35
4 35 86 87 36
4 36 87 88 37
4 37 88 89 38
4 38 89 90 39
4 39 90 91 40
4 40 91 92 41
4 41 92 93 42
4 42 93 94 43
4 43 94 95 44
4 44 95 96 45
4 45 96 97 46
4 46 97 98 47
4 47 98 99 48
4 48 99 100 49
4 49 100 101 50
1 102
1 103
1 104
1 105
1 106
1 107
1 108
1 109
1 110
1 111
1 112
1 113
1 114
1 115
1 116
1 117
1 118
1 119
1 120
1 121
1 122
1 123
1 124
1 125
1 126
1 127
1 128
1 129
1 130
1 131
1 132
1 133
1 134
1 135
1 136
1 137
1 138
1 139
1 140
1 141
1 142
1 143
1 144
1 145
1 146
1 147
1 148
1 149
1 150
1 151

CELL_TYPES 100
9
9
9
9
9
9
9
9
9
9
9
9
9
9
9
9
9
9
9
9
9
9
9
9
9
9
9
9
9
9
9
9
9
9
9
9
9
9
9
9
9
9
9
9
9
9
9
9
9
9
1
1
1
1
1
1
1
1
1
1
1
1
1
1
1
1
1
1
1
1
1
1
1
1
1
1
1
1
1
1
1
1
1
1
1
1
1
1
1
1
1
1
1
1
1
1
1
1
1
1

CELL_DATA 100

VECTORS S float
-0.0 -0.0 0.0
-0.0 -0.0 0.0
-4.959268738717856e-17 -6.6950240378739975e-15 2.3793468918574693e-15
0.0 -0.0 0.0
-3.690844150564482e-17 1.3426569315075905e-14 -4.655562901624972e-15
4.3468208749144076e-17 -1.3424266190553095e-14 4.662143229951247e-15
-7.574648908631391e-17 2.6840595694947825e-14 -9.347205580068057e-15
0.0 -0.0 0.0
-7.400483245596814e-17 2.6831876538091374e-14 -9.372219143602576e-15
0.0 -0.0 0.0
0.0 -0.0 0.0
8.874367653500497e-17 -2.682564075048739e-14 9.389924910880882e-15
8.793150405383245e-17 -2.682274088540593e-14 9.398212936047166e-15
0.0 -0.0 0.0
7.598847913625171e-17 -2.6818116848306855e-14 9.411503674116824e-15
7.203389934728751e-17 -2.681634933990635e-14 9.416569765247058e-15
6.679544599879341e-17 -2.68146683633986e-14 9.421394051607226e-15
-6.328671336155058e-17 2.6813279900090685e-14 -9.425369103521666e-15
0.0 -0.0 0.0
2.824314819793727e-17 -1.3405453312689753e-14 4.716080527562507e-15
-2.681567055167396e-17 1.3403977824612673e-14 -4.720280832078069e-15
0.0 -0.0 0.0
0.0 -0.0 0.0
2.340996811865984e-17 -1.34024385337291e-14 4.724667719489387e-15
0.0 -0.0 0.0
4.252938180080791e-17 -2.6802860760716235e-14 9.45507341270588e-15
4.0868572993174135e-17 -2.6801883620441615e-14 9.457850236832962e-15
0.0 -0.0 0.0
-3.8263524922284997e-17 2.679996313534999e-14 -9.463301685609426e-15
0.0 -0.0 0.0
0.0 -0.0 0.0
-3.538899470432936e-17 2.6797642647030197e-14 -9.469881896171575e-15
0.0 -0.0 0.0
0.0 -0.0 0.0
-3.3035257303413656e-17 2.6794639941301017e-14 -9.478383091758177e-15
0.0 -0.0 0.0
-3.172931010744565e-17 2.679279688206823e-14 -9.483596123487719e-15
0.0 -0.0 0.0
0.0 -0.0 0.0
3.014613836920512e-17 -2.6790043458907428e-14 9.49137659280828e-15
0.0 -0.0 0.0
0.0 -0.0 0.0
0.0 -0.0 0.0
2.775820717010262e-17 -2.678665056440885e-14 9.500955108224955e-15
0.0 -0.0 0.0
0.0 -0.0 0.0
0.0 -0.0 0.0
0.0 -0.0 0.0
0.0 -0.0 0.0
0.0 -0.0 0.0
-0.0 -0.0 0.0
-0.0 -0.0 0.0
-4.959268738717856e-17 -6.6950240378739975e-15 2.3793468918574693e-15
0.0 -0.0 0.0
-3.690844150564482e-17 1.3426569315075905e-14 -4.655562901624972e-15
4.3468208749144076e-17 -1.3424266190553095e-14 4.662143229951247e-15
-7.574648908631391e-17 2.6840595694947825e-14 -9.347205580068057e-15
0.0 -0.0 0.0
-7.400483245596814e-17 2.6831876538091374e-14 -9.372219143602576e-15
0.0 -0.0 0.0
0.0 -0.0 0.0
8.874367653500497e-17 -2.682564075048739e-14 9.389924910880882e-15
8.793150405383245e-17 -2.682274088540593e-14 9.398212936047166e-15
0.0 -0.0 0.0
7.598847913625171e-17 -2.6818116848306855e-14 9.411503674116824e-15
7.203389934728751e-17 -2.681634933990635e-14 9.416569765247058e-15
6.679544599879341e-17 -2.68146683633986e-14 9.421394051607226e-15
-6.328671336155058e-17 2.6813279900090685e-14 -9.425369103521666e-15
0.0 -0.0 0.0
2.824314819793727e-17 -1.3405453312689753e-14 4.716080527562507e-15
-2.681567055167396e-17 1.3403977824612673e-14 -4.720280832078069e-15
0.0 -0.0 0.0
0.0 -0.0 0.0
2.340996811865984e-17 -1.34024385337291e-14 4.724667719489387e-15
0.0 -0.0 0.0
4.252938180080791e-17 -2.6802860760716235e-14 9.45507341270588e-15
4.0868572993174135e-17 -2.6801883620441615e-14 9.457850236832962e-15
0.0 -0.0 0.0
-3.8263524922284997e-17 2.679996313534999e-14 -9.463301685609426e-15
0.0 -0.0 0.0
0.0 -0.0 0.0
-3.538899470432936e-17 2.6797642647030197e-14 -9.469881896171575e-15
0.0 -0.0 0.0
0.0 -0.0 0.0
-3.3035257303413656e-17 2.6794639941301017e-14 -9.478383091758177e-15
0.0 -0.0 0.0
-3.172931010744565e-17 2.679279688206823e-14 -9.483596123487719e-15
0.0 -0.0 0.0
0.0 -0.0 0.0
3.014613836920512e-17 -2.6790043458907428e-14 9.49137659280828e-15
0.0 -0.0 0.0
0.0 -0.0 0.0
0.0 -0.0 0.0
2.775820717010262e-17 -2.678665056440885e-14 9.500955108224955e-15
0.0 -0.0 0.0
0.0 -0.0 0.0
0.0 -0.0 0.0
0.0 -0.0 0.0
0.0 -0.0 0.0
0.0 -0.0 0.0

SCALARS Gamma float
LOOKUP_TABLE default
-0.0
-0.0
-0.0
50.89958038382236
54.44203012731836
54.51386228102054
52.44427496201793
47.79450163695361
44.79288947434221
47.34949877941231
53.85976210355843
54.4841815311454
50.45822852770085
45.5771623675479
44.56534825950613
43.769244180066444
40.176281983304236
38.0047449650177
33.258382665925396
33.54816043698758
33.13840787632035
34.790825380238786
36.45055088412757
34.44014899649586
36.54173934548364
37.794614259907945
37.91425889724256
38.0340873633717
38.25635525510124
38.53328678651571
38.877282824935875
39.12790382375493
37.176931219922054
37.49644169169522
37.82013657573965
38.1179784634865
38.374776094506544
40.69687961310953
40.628846443412506
40.26837181938953
39.55213969972282
38.33118379151491
36.30364568137091
33.6954496253406
31.040977176621226
28.426784080949105
25.60756372015539
22.893738616002143
20.14332937450301
17.597663061310833
-0.0
-0.0
-0.0
50.89958038382236
54.44203012731836
54.51386228102054
52.44427496201793
47.79450163695361
44.79288947434221
47.34949877941231
53.85976210355843
54.4841815311454
50.45822852770085
45.5771623675479
44.56534825950613
43.769244180066444
40.176281983304236
38.0047449650177
33.258382665925396
33.54816043698758
33.13840787632035
34.790825380238786
36.45055088412757
34.44014899649586
36.54173934548364
37.794614259907945
37.91425889724256
38.0340873633717
38.25635525510124
38.53328678651571
38.877282824935875
39.12790382375493
37.176931219922054
37.49644169169522
37.82013657573965
38.1179784634865
38.374776094506544
40.69687961310953
40.628846443412506
40.26837181938953
39.55213969972282
38.33118379151491
36.30364568137091
33.6954496253406
31.040977176621226
28.426784080949105
25.60756372015539
22.893738616002143
20.14332937450301
17.597663061310833

VECTORS Ftot float
114.51033243527533 -13.400918617684777 -36.81872130203825
138.11074212829462 -29.91280479439185 -82.18475572514618
141.67042914764107 -44.51729997259176 -122.31027644978465
1259.7250495601018 4.73747961680335 13.016118272293838
1289.0768630819284 74.86493701368511 205.6897239539939
1383.691968393656 97.77823201400211 268.64348457266783
1467.7538198288148 95.89536768483093 263.47035734437344
1458.758159890064 94.03983143676943 258.37231340184485
1475.0819285708044 100.89802150332943 277.2150357480466
1665.9306095987872 128.9091956788039 354.17510428757373
2022.2174003504058 168.2402551967344 462.23630219631434
2178.1586519687967 188.20972858737244 517.1019794154928
2142.0195837665874 188.09461938813223 516.7857194898087
2052.8014849181823 172.98228354581 475.2649180078134
2123.214929453914 168.02333407408375 461.640316310029
2193.8610730272453 167.31207404691378 459.6861454460188
2113.68115644397 151.87621745261916 417.2764780032543
2090.0183701631004 144.19674506515622 396.17730102537445
1907.7735843661185 124.19535492531638 341.2239332584617
1999.932622220258 126.04506635406457 346.30597364145456
2047.797113605961 126.20416958735603 346.7431061822851
2226.3630530859405 128.90259542745216 354.156970246022
2407.31148784611 136.54208353291574 375.1462913119756
2343.2010566840377 130.1342193567333 357.54082918098203
2556.559566526086 139.68957719595986 383.79395907906587
2717.8364670556552 140.06240018042695 384.8182818103429
2795.859270279336 139.91583521905181 384.4155978884815
2871.5153439542296 140.61271530775474 386.3302601962603
2953.303559691401 141.29795011752103 388.2129273631175
3037.5596782509588 142.55837715194752 391.6759221790745
3125.5694392762325 144.30343972028308 396.47044218111193
3204.8971023697018 145.52796231858792 399.8347903695664
3097.9358474697633 140.29020272498897 385.44416415762134
3176.841703017596 140.5993650392937 386.29358063511995
3253.7900578947533 142.7494054192935 392.20076803008516
3326.751019948638 145.120561233076 398.7154650864611
3394.9746479377654 146.19397195610796 401.66463680979194
3645.72597844643 156.78139689591248 430.7533477620758
3682.8474952589977 157.0417806278817 431.4687461860545
3690.5108170126023 156.1029290644167 428.8892727152147
3661.3759110481865 155.2503977739973 426.5469622454088
3582.4866702030913 149.53976405468484 410.8571250508216
3423.2677495000016 140.1856154426664 385.156812961078
3202.7283573535433 130.16570480811018 357.62733474768135
2971.8398888596766 120.02417401153961 329.76370788539987
2738.8966309577195 111.2080496413396 305.5416052511716
2481.7566286645906 100.14919453874083 275.15765057176066
2230.2861975215033 89.43147528211742 245.71095892613363
1971.100642154271 78.90565490876668 216.7915051291168
1728.6407655303792 68.86361661436855 189.20123166995918
114.51033243527533 -13.400918617684777 -36.81872130203825
138.11074212829462 -29.91280479439185 -82.18475572514618
141.67042914764107 -44.51729997259176 -122.31027644978465
1259.7250495601018 4.73747961680335 13.016118272293838
1289.0768630819284 74.86493701368511 205.6897239539939
1383.691968393656 97.77823201400211 268.64348457266783
1467.7538198288148 95.89536768483093 263.47035734437344
1458.758159890064 94.03983143676943 258.37231340184485
1475.0819285708044 100.89802150332943 277.2150357480466
1665.9306095987872 128.9091956788039 354.17510428757373
2022.2174003504058 168.2402551967344 462.23630219631434
2178.1586519687967 188.20972858737244 517.1019794154928
2142.0195837665874 188.09461938813223 516.7857194898087
2052.8014849181823 172.98228354581 475.2649180078134
2123.214929453914 168.02333407408375 461.640316310029
2193.8610730272453 167.31207404691378 459.6861454460188
2113.68115644397 151.87621745261916 417.2764780032543
2090.0183701631004 144.19674506515622 396.17730102537445
1907.7735843661185 124.19535492531638 341.2239332584617
1999.932622220258 126.04506635406457 346.30597364145456
2047.797113605961 126.20416958735603 346.7431061822851
2226.3630530859405 128.90259542745216 354.156970246022
2407.31148784611 136.54208353291574 375.1462913119756
2343.2010566840377 130.1342193567333 357.54082918098203
2556.559566526086 139.68957719595986 383.79395907906587
2717.8364670556552 140.06240018042695 384.8182818103429
2795.859270279336 139.91583521905181 384.4155978884815
2871.5153439542296 140.61271530775474 386.3302601962603
2953.303559691401 141.29795011752103 388.2129273631175
3037.5596782509588 142.55837715194752 391.6759221790745
3125.5694392762325 144.30343972028308 396.47044218111193
3204.8971023697018 145.52796231858792 399.8347903695664
3097.9358474697633 140.29020272498897 385.44416415762134
3176.841703017596 140.5993650392937 386.29358063511995
3253.7900578947533 142.7494054192935 392.20076803008516
3326.751019948638 145.120561233076 398.7154650864611
3394.9746479377654 146.19397195610796 401.66463680979194
3645.72597844643 156.78139689591248 430.7533477620758
3682.8474952589977 157.0417806278817 431.4687461860545
3690.5108170126023 156.1029290644167 428.8892727152147
3661.3759110481865 155.2503977739973 426.5469622454088
3582.4866702030913 149.53976405468484 410.8571250508216
3423.2677495000016 140.1856154426664 385.156812961078
3202.7283573535433 130.16570480811018 357.62733474768135
2971.8398888596766 120.02417401153961 329.76370788539987
2738.8966309577195 111.2080496413396 305.5416052511716
2481.7566286645906 100.14919453874083 275.15765057176066
2230.2861975215033 89.43147528211742 245.71095892613363
1971.100642154271 78.90565490876668 216.7915051291168
1728.6407655303792 68.86361661436855 189.20123166995918

VECTORS D float
90.50248259055269 9.940680615203945 29.336248457732125
59.04307098104994 12.189060743269298 35.352369777863665
11.975221426570403 3.605900323534259 10.395908575369418
524.1525494481947 206.37043704800143 593.0091030593446
509.3345069122858 246.64842901802533 707.2922341271747
468.14129390074623 268.0841342513037 767.5619001099465
406.8391223137901 268.05386503574744 766.4225119891091
343.12802921587246 254.88376608696424 727.9319486187861
306.45921308089646 252.63592177157236 720.8555728186018
318.82717249498717 288.05132053436154 821.3018657204678
356.32927085131433 349.255070037597 995.1861850036554
353.06605447067795 372.28774028478 1060.2347613472964
319.6181145377362 360.10118805097864 1024.7476220872622
276.7713951239354 331.07211990692446 941.6810184420127
257.636210018275 325.53881061323045 925.5439703934614
243.8400334116617 324.02488982996687 920.8873409598673
213.9567044755563 297.85377926942334 846.2186099767874
195.25011310790427 283.790991055685 806.0172980938881
163.79631131413137 247.81720681276593 703.650300581788
160.286652660158 251.74975352889845 714.6384689638654
154.6203801218005 251.427913164472 713.0906069182861
155.87736997586032 261.74839276010084 742.1682822460675
159.82324753639367 276.5565819723214 783.9477118662388
147.89115531560637 263.1954874676984 745.8723925437404
154.14122366633444 281.6107964788155 797.8421967694042
153.8818372218207 288.1124694521591 816.0374400029978
151.03326111894938 289.32473461745224 819.2427621343099
148.84715761849645 291.29119269962627 824.578524608071
147.10458061329746 293.67138759682825 831.0792451724649
145.94207957612525 296.808779396879 839.7155263777202
145.31120330407157 300.6796403978411 850.4184572445505
144.28282232902293 303.5362467582809 858.4003408004684
136.26134447070712 290.9971088379875 822.6810304423179
135.47097533200764 293.3779974067442 829.1509194120622
135.5940991178465 297.48248198095257 840.4868773977021
135.81632375662434 301.63366885620553 851.9792939649993
135.53928888248416 304.4181165468393 859.5802783653937
143.2655477967798 325.1422823439616 917.8208220761792
142.14676537775142 325.7345357856287 919.2195679375219
140.08307607963988 323.8810173719997 913.7308463440002
137.4763509523043 320.4925078327376 903.910558133713
132.076500893402 310.25648981348746 874.7981083836371
123.84024389905396 292.9475721502116 825.774351926387
114.39811747460811 272.343300403 767.5006619593015
104.96112363707249 251.32804304321257 708.1097047022837
96.2418903153075 231.65583816231117 652.5413223847825
86.3758339142459 208.87961394434612 588.2664985434515
76.9383421621064 186.82478251790323 526.0589014236874
67.5943265015262 164.72405721538922 463.75403818668434
58.88722809109888 143.94401534812204 405.19530327149863
90.50248259055269 9.940680615203945 29.336248457732125
59.04307098104994 12.189060743269298 35.352369777863665
11.975221426570403 3.605900323534259 10.395908575369418
524.1525494481947 206.37043704800143 593.0091030593446
509.3345069122858 246.64842901802533 707.2922341271747
468.14129390074623 268.0841342513037 767.5619001099465
406.8391223137901 268.05386503574744 766.4225119891091
343.12802921587246 254.88376608696424 727.9319486187861
306.45921308089646 252.63592177157236 720.8555728186018
318.82717249498717 288.05132053436154 821.3018657204678
356.32927085131433 349.255070037597 995.1861850036554
353.06605447067795 372.28774028478 1060.2347613472964
319.6181145377362 360.10118805097864 1024.7476220872622
276.7713951239354 331.07211990692446 941.6810184420127
257.636210018275 325.53881061323045 925.5439703934614
243.8400334116617 324.02488982996687 920.8873409598673
213.9567044755563 297.85377926942334 846.2186099767874
195.25011310790427 283.790991055685 806.0172980938881
163.79631131413137 247.81720681276593 703.650300581788
160.286652660158 251.74975352889845 714.6384689638654
154.6203801218005 251.427913164472 713.0906069182861
155.87736997586032 261.74839276010084 742.1682822460675
159.82324753639367 276.5565819723214 783.9477118662388
147.89115531560637 263.1954874676984 745.8723925437404
154.14122366633444 281.6107964788155 797.8421967694042
153.8818372218207 288.1124694521591 816.0374400029978
151.03326111894938 289.32473461745224 819.2427621343099
148.84715761849645 291.29119269962627 824.578524608071
147.10458061329746 293.67138759682825 831.0792451724649
145.94207957612525 296.808779396879 839.7155263777202
145.31120330407157 300.6796403978411 850.4184572445505
144.28282232902293 303.5362467582809 858.4003408004684
136.26134447070712 290.9971088379875 822.6810304423179
135.47097533200764 293.3779974067442 829.1509194120622
135.5940991178465 297.48248198095257 840.4868773977021
135.81632375662434 301.63366885620553 851.9792939649993
135.53928888248416 304.4181165468393 859.5802783653937
143.2655477967798 325.1422823439616 917.8208220761792
142.14676537775142 325.7345357856287 919.2195679375219
140.08307607963988 323.8810173719997 913.7308463440002
137.4763509523043 320.4925078327376 903.910558133713
132.076500893402 310.25648981348746 874.7981083836371
123.84024389905396 292.9475721502116 825.774351926387
114.39811747460811 272.343300403 767.5006619593015
104.96112363707249 251.32804304321257 708.1097047022837
96.2418903153075 231.65583816231117 652.5413223847825
86.3758339142459 208.87961394434612 588.2664985434515
76.9383421621064 186.82478251790323 526.0589014236874
67.5943265015262 164.72405721538922 463.75403818668434
58.88722809109888 143.94401534812204 405.19530327149863

VECTORS L float
24.00784984472266 -23.341599232888722 -66.15496975977037
79.06767114724471 -42.10186553766116 -117.53712550300988
129.69520772107063 -48.123200296126015 -132.70618502515407
735.5725001119073 -201.6329574311982 -579.9929847870509
779.7423561696427 -171.78349200434025 -501.6025101731807
915.55067449291 -170.3059022373017 -498.91841553727886
1060.9146975150252 -172.15849735091646 -502.95215464473574
1115.6301306741916 -160.84393465019485 -469.5596352169412
1168.622715489908 -151.7379002682429 -443.64053707055507
1347.1034371038002 -159.14212485555763 -467.12676143289394
1665.8881294990917 -181.0148148408626 -532.949882807341
1825.0925974981194 -184.07801169740756 -543.1327819318035
1822.4014692288515 -172.00656866284646 -507.96190259745384
1776.0300897942464 -158.08983636111446 -466.41610043419956
1865.578719435639 -157.5154765391467 -463.90365408343234
1950.0210396155842 -156.71281578305303 -461.20119551384835
1899.7244519684139 -145.9775618168043 -428.9421319735333
1894.7682570551965 -139.59424599052886 -409.8399970685137
1743.9772730519871 -123.62185188744961 -362.42636732332625
1839.6459695601009 -125.70468717483391 -368.3324953224108
1893.1767334841604 -125.22374357711601 -366.3475007360011
2070.48568311008 -132.84579733264877 -388.0113120000458
2247.4882403097167 -140.01449843940563 -408.80142055426336
2195.3099013684314 -133.06126811096513 -388.3315633627583
2402.4183428597516 -141.92121928285565 -414.04823769033845
2563.9546298338346 -148.05006927173213 -431.2191581926549
2644.8260091603875 -149.40889939840045 -434.82716424582844
2722.6681863357335 -150.6784773918716 -438.24826441181085
2806.198979078104 -152.37343747930726 -442.8663178093474
2891.6175986748335 -154.25040224493148 -448.0396041986457
2980.2582359721605 -156.37620067755802 -453.9480150634387
3060.614280040679 -158.00828443969303 -458.5655504309018
2961.6745029990557 -150.70690611299852 -437.23686628469653
3041.370727685588 -152.77863236745046 -442.857338776942
3118.195958776908 -154.73307656165912 -448.2861093676171
3190.9346961920132 -156.51310762312957 -453.2638288785384
3259.435359055282 -158.22414459073133 -457.9156415556018
3502.460430649651 -168.3608854480491 -487.06747431410344
3540.700729881246 -168.692755157747 -487.75082175146764
3550.4277409329625 -167.77808830758303 -484.8415736287853
3523.899560095881 -165.2421100587403 -477.36359588830413
3450.4101693096904 -160.71672575880265 -463.9409833328157
3299.4275056009483 -152.76195670754518 -440.61753896530894
3088.330239878936 -142.1775955948898 -409.8733272116201
2866.878765222604 -131.30386903167295 -378.3459968168839
2642.654740642412 -120.44778852097159 -346.99971713361094
2395.3807947503446 -108.73041940560533 -313.1088479716908
2153.347855359397 -97.39330723578587 -280.34794249755384
1903.5063156527451 -85.81840230662257 -246.96253305756755
1669.7535374392805 -75.0803987337535 -215.99407160153956
24.00784984472266 -23.341599232888722 -66.15496975977037
79.06767114724471 -42.10186553766116 -117.53712550300988
129.69520772107063 -48.123200296126015 -132.70618502515407
735.5725001119073 -201.6329574311982 -579.9929847870509
779.7423561696427 -171.78349200434025 -501.6025101731807
915.55067449291 -170.3059022373017 -498.91841553727886
1060.9146975150252 -172.15849735091646 -502.95215464473574
1115.6301306741916 -160.84393465019485 -469.5596352169412
1168.622715489908 -151.7379002682429 -443.64053707055507
1347.1034371038002 -159.14212485555763 -467.12676143289394
1665.8881294990917 -181.0148148408626 -532.949882807341
1825.0925974981194 -184.07801169740756 -543.1327819318035
1822.4014692288515 -172.00656866284646 -507.96190259745384
1776.0300897942464 -158.08983636111446 -466.41610043419956
1865.578719435639 -157.5154765391467 -463.90365408343234
1950.0210396155842 -156.71281578305303 -461.20119551384835
1899.7244519684139 -145.9775618168043 -428.9421319735333
1894.7682570551965 -139.59424599052886 -409.8399970685137
1743.9772730519871 -123.62185188744961 -362.42636732332625