# vtk DataFile Version 4.0
[MyVLM domain - lattices] 
ASCII
DATASET UNSTRUCTURED_GRID
POINTS 152 float
0.0 2.1988332456712465 -0.4625538412774558
0.0 3.4494666234704128 -2.3228306188684087
0.0 4.648484563065643 -4.165477027163423
0.0 5.833062459087512 -5.969029842065307
0.0 7.003498196180946 -7.733317079794123
0.0 8.12782159367396 -9.476796732766882
0.0 9.179550121033001 -11.214758497115957
0.0 10.151848132501536 -12.951148934758965
0.0 11.086401171878387 -14.661900885762343
0.0 12.000277696864648 -16.337159871477706
0.0 12.893262757417403 -17.977049993370198
0.0 13.765041776192902 -19.581752872753913
0.0 14.61526880061537 -21.151468245441603
0.0 15.441096711937636 -22.687839896208363
0.0 16.24442498300897 -24.18977116389335
0.0 17.029417315174552 -25.654858134404094
0.0 17.796693499255625 -27.0827429713431
0.0 18.54523217500347 -28.47401535732493
0.0 19.274297507779703 -29.829100126676114
0.0 19.98388970977158 -31.147997156890302
0.0 20.67400898749965 -32.430706328732775
0.0 21.344655541817712 -33.67722752624054
0.0 21.99582956791286 -34.887560636722306
0.0 22.627531255305463 -36.061705550758404
0.0 23.239760787849168 -37.199662162200894
0.0 23.832518343730897 -38.301430368173506
0.0 24.405804095470856 -39.36701006907166
0.0 24.959618209922525 -40.396401168562456
0.0 25.4939622313508 -41.38960277506413
0.0 26.00885531259694 -42.34660383067863
0.0 26.504301347086184 -43.26740208753585
0.0 26.98029759434595 -44.15199912784836
0.0 27.43684142160781 -45.000396471645736
0.0 27.8739303038075 -45.8125955767745
0.0 28.29156182358494 -46.588597838898146
0.0 28.689733671284174 -47.32840459149716
0.0 29.06807819088421 -48.03222810087424
0.0 29.42543278883644 -48.700739590727636
0.0 29.759952590439287 -49.33500419996291
0.0 30.070677868082793 -49.93557602757403
0.0 30.358281076999077 -50.50206683135172
0.0 30.62254218256261 -51.03460364834624
0.0 30.853262280863994 -51.539074818475136
0.0 31.050672896929626 -52.01534667070208
0.0 31.22249606499199 -52.45896088648428
0.0 31.373994133360938 -52.866879247608445
0.0 31.50649958458631 -53.23833244491575
0.0 31.618738550845546 -53.57405594633646
0.0 31.711827699264038 -53.873405043805136
0.0 31.78797927816865 -54.135102495154754
0.0 31.84910836820057 -54.35804262806159
-0.7686761955390344 -0.6182827586738968 -2.089016524724533
-0.8409029948616161 0.3715886195170288 -4.09984431298373
-0.8940476007249757 1.3744730244485017 -6.055728470313976
-0.9506443374492793 2.3497830763918723 -7.980102131327315
-1.0210144815146838 3.298768214097744 -9.872243932224745
-1.048631451549771 4.247859270120262 -11.716894024716224
-0.9920275022819518 5.215070392670158 -13.503651935483068
-0.9074715353829097 6.217782605202351 -15.222482725954785
-0.8388231939293685 7.221251501596456 -16.893446088357816
-0.7803448823218929 8.207829653139044 -18.52673077041036
-0.7251531968841737 9.175586618242095 -20.123451313082917
-0.671766762046156 10.121795844135033 -21.685181892351544
-0.6188683613166902 11.050119918556968 -23.20980791219912
-0.5668565661826578 11.961761660847971 -24.696634924555887
-0.5162677046190278 12.85599586465727 -26.146081627503673
-0.4681223452427161 13.727946068126498 -27.5609634476091
-0.42442582165628834 14.577051080148985 -28.94160438870866
-0.3846819074085718 15.40433596977103 -30.287412626912563
-0.3476243488905531 16.210450995803967 -31.598012735121017
-0.3131098246080671 16.99534917081655 -32.8734318415401
-0.28048746260446866 17.75895071391203 -34.11371600769204
-0.2502235469699514 18.50126582407588 -35.318859345189814
-0.2227998260917326 19.222294099936686 -36.488862085765334
-0.19746739264611052 19.921957540779513 -37.62376926315235
-0.17533279734900953 20.600287236960153 -38.723562927325574
-0.15613374469432648 21.257232477107745 -39.78827235650863
-0.13998404755873647 21.89276616673267 -40.8179131937124
-0.12578653595324127 22.506816765029566 -41.81252674304012
-0.11250427274737486 23.09933153825622 -42.77214345033203
-0.10008179164308317 23.670300119547505 -43.69676930090053
-0.08845752889585208 24.21971497448215 -44.586408644745745
-0.07764231497362577 24.74757216136108 -45.4410637576087
-0.06766212708627829 25.25386788527233 -46.26073683048286
-0.0584684819534103 25.738596504384684 -47.04543112068097
-0.050013688763705585 26.20175292010999 -47.79514957187428
-0.042252254921319045 26.643332572269983 -48.509894816882955
-0.03513536582041269 27.063616587450177 -49.18950454719715
-0.028615518964613278 27.463509685131882 -49.833456422780806
-0.022687693716904638 27.845443866195886 -50.44034632727073
-0.017408965386693863 28.2106770632849 -51.00944799291702
-0.013252482528008399 28.557161921869398 -51.54194346040843
-0.010166684094042405 28.885003044631606 -52.03777233735823
-0.00760098697125575 29.206286585118622 -52.48995667976251
-0.005464879873870877 29.521052000857264 -52.89847370680754
-0.0039015967321000085 29.820190924041704 -53.268582137097916
-0.002883995165670249 30.097674647842506 -53.60376264614449
-0.0022477517166190047 30.352435821617284 -53.904631469127914
-0.00179874084072329 30.586761894036655 -54.16986794694248
-0.0014595970466816986 30.79973875825309 -54.39999983942269
-0.0012027506489664258 30.988949635262628 -54.596422474577025
-0.0010073243559101815 31.15230240425589 -54.76034373891799
-0.603592196400244 0.6135271814588814 -2.668995871658832
-0.6506064733449719 1.6670170148040808 -4.6193782494906195
-0.6917594768153456 2.706789415584285 -6.530249834269076
-0.7393720571114861 3.7227768158421637 -8.40742313906445
-0.7761172248991705 4.721400280313616 -10.247190960422989
-0.7652471076868961 5.7120200878847776 -12.044149138810091
-0.712312139124323 6.703744655894007 -13.79303892702356
-0.6548605234921042 7.694418953097043 -15.49510453293239
-0.607188028594223 8.671740291618693 -17.157448916693074
-0.564561779702275 9.630473658553184 -18.78309451441597
-0.5238449845988737 10.56880649009271 -20.37308781030344
-0.48398817126106725 11.487007233110534 -21.927273816480938
-0.4446468478122555 12.386501281345978 -23.444829581489373
-0.4061716015506322 13.267349283932793 -24.925720089535055
-0.369146268698154 14.12820851206685 -26.370720565454473
-0.3347055625871267 14.96763778240708 -27.780663076837563
-0.3034153983993225 15.785760853002394 -29.15547617194147
-0.27461484611217185 16.58298632243852 -30.494923946262727
-0.24777531506198255 17.359448464676603 -31.798928876693722
-0.22259898270470088 18.11509979393212 -33.06751837916493
-0.19901662859040753 18.849914267910133 -34.30070748920237
-0.1773837648981315 19.563895610221035 -35.49849405697854
-0.15760020702669117 20.257014468170862 -36.66089502927922
-0.13980007124817 20.929253297046703 -37.787920535549134
-0.124299953266251 21.58060478422297 -38.87957479773463
-0.11104417209489861 22.211039796340376 -39.93587463598853
-0.09966396881699166 22.820521387585007 -40.956841380986454
-0.08935905326273105 23.409003168891335 -41.94250181546787
-0.07971977414642176 23.97646406466986 -42.892868107430054
-0.07070224520210072 24.52290024272151 -43.807942469394156
-0.06228744145105419 25.048307543620226 -44.687727302805946
-0.05448916577246402 25.552682394481746 -45.532224670471095
-0.04729897838988322 26.036020611798293 -46.34143698773896
-0.04068081401891846 26.49831755010956 -47.1153669366673
-0.03459972888188424 26.939568996501126 -47.854016949583375
-0.029020357778149403 27.359832417666105 -48.55735384807646
-0.023906581794384738 27.759361224683357 -49.22523132519196
-0.019238704755569217 28.139030754157382 -49.857144005105646
-0.015036247163849435 28.499874155870558 -50.45249539851252
-0.011498042968013347 28.841559487568098 -51.01147715236276
-0.00878218748326905 29.16341476988309 -51.534477234124736
-0.006662876649486808 29.468709169084665 -52.01960818977294
-0.004899700066922485 29.76074386696516 -52.46496408111093
-0.0035124287272390825 30.037112217077315 -52.87193438611285
-0.0025445969616638467 30.293760864250693 -53.242859310477485
-0.0019244050808584702 30.528853140790826 -53.57879925479266
-0.0015174347090033604 30.742853910299214 -53.87948582993293
-0.0012218767077768707 30.936258525872354 -54.144633043654636
-0.0009983803858680466 31.108234019747478 -54.37472181011987
-0.0008287781268287279 31.257605470615594 -54.570430470462675

CELLS 100 350
4 0 51 52 1
4 1 52 53 2
4 2 53 54 3
4 3 54 55 4
4 4 55 56 5
4 5 56 57 6
4 6 57 58 7
4 7 58 59 8
4 8 59 60 9
4 9 60 61 10
4 10 61 62 11
4 11 62 63 12
4 12 63 64 13
4 13 64 65 14
4 14 65 66 15
4 15 66 67 16
4 16 67 68 17
4 17 68 69 18
4 18 69 70 19
4 19 70 71 20
4 20 71 72 21
4 21 72 73 22
4 22 73 74 23
4 23 74 75 24
4 24 75 76 25
4 25 76 77 26
4 26 77 78 27
4 27 78 79 28
4 28 79 80 29
4 29 80 81 30
4 30 81 82 31
4 31 82 83 32
4 32 83 84 33
4 33 84 85 34
4 34 85 86 35
4 35 86 87 36
4 36 87 88 37
4 37 88 89 38
4 38 89 90 39
4 39 90 91 40
4 40 91 92 41
4 41 92 93 42
4 42 93 94 43
4 43 94 95 44
4 44 95 96 45
4 45 96 97 46
4 46 97 98 47
4 47 98 99 48
4 48 99 100 49
4 49 100 101 50
1 102
1 103
1 104
1 105
1 106
1 107
1 108
1 109
1 110
1 111
1 112
1 113
1 114
1 115
1 116
1 117
1 118
1 119
1 120
1 121
1 122
1 123
1 124
1 125
1 126
1 127
1 128
1 129
1 130
1 131
1 132
1 133
1 134
1 135
1 136
1 137
1 138
1 139
1 140
1 141
1 142
1 143
1 144
1 145
1 146
1 147
1 148
1 149
1 150
1 151

CELL_TYPES 100
9
9
9
9
9
9
9
9
9
9
9
9
9
9
9
9
9
9
9
9
9
9
9
9
9
9
9
9
9
9
9
9
9
9
9
9
9
9
9
9
9
9
9
9
9
9
9
9
9
9
1
1
1
1
1
1
1
1
1
1
1
1
1
1
1
1
1
1
1
1
1
1
1
1
1
1
1
1
1
1
1
1
1
1
1
1
1
1
1
1
1
1
1
1
1
1
1
1
1
1

CELL_DATA 100

VECTORS S float
1.410684377921622e-17 -1.2537057979844434e-15 3.324123531488408e-15
3.9983053610522825e-17 -2.4894431320281246e-15 6.654935926210465e-15
-0.0 0.0 -0.0
-1.3829554832455e-19 -3.1613896538171607e-16 8.300102653959957e-16
-3.7757041347489507e-17 -5.068566654996841e-15 1.3276166547850392e-14
8.869037755202981e-17 1.0122928454508074e-14 -2.6557711130068356e-14
-3.854735228656102e-17 -5.049668944153552e-15 1.3283363632478855e-14
0.0 0.0 -0.0
-7.511342336061136e-17 -1.0073312762770053e-14 2.6576611802548516e-14
4.180518708139067e-17 5.033614828687131e-15 -1.3289445655080316e-14
0.0 0.0 -0.0
8.822282609987961e-17 1.0048310966717018e-14 -2.658603449925215e-14
0.0 0.0 -0.0
0.0 0.0 -0.0
-7.615952765705697e-17 -1.0028988297222296e-14 2.659336684977744e-14
0.0 0.0 -0.0
0.0 0.0 -0.0
6.347056107771301e-17 1.0015236101294843e-14 -2.6598582373305403e-14
2.948416188284283e-17 5.0053062081160455e-15 -1.3300166622406356e-14
2.819613542468425e-17 5.0033854530725086e-15 -1.3300892102506075e-14
-2.7233741037201047e-17 -5.001691806310008e-15 1.33015310823461e-14
0.0 0.0 -0.0
-4.8979238936511596e-17 -9.997132727385023e-15 2.6605422477598746e-14
7.126322486899321e-17 1.4991875695801472e-14 -3.990957416840763e-14
0.0 0.0 -0.0
0.0 0.0 -0.0
0.0 0.0 -0.0
-3.96180955568934e-17 -9.979966604201962e-15 2.6611882006574318e-14
0.0 0.0 -0.0
0.0 0.0 -0.0
3.622628480798666e-17 9.972112285232013e-15 -2.661483103785049e-14
0.0 0.0 -0.0
3.4837837103215307e-17 9.96696013259434e-15 -2.66167627443064e-14
0.0 0.0 -0.0
-3.301482114260308e-17 -9.961594600807886e-15 2.6618773637736507e-14
-3.244565668481208e-17 -9.958709361593014e-15 2.6619853907882326e-14
0.0 0.0 -0.0
3.1202597965553586e-17 9.952954581218067e-15 -2.6622007596130062e-14
-3.019007138336934e-17 -9.947403878323267e-15 2.662408330041478e-14
0.0 0.0 -0.0
0.0 0.0 -0.0
2.8586549785334996e-17 9.939982380244646e-15 -2.6626856743444457e-14
0.0 0.0 -0.0
-1.3632088306497839e-17 -4.967759592873482e-15 1.3314261922095454e-14
0.0 0.0 -0.0
2.67523365075011e-17 9.931707862744818e-15 -2.6629946116879398e-14
0.0 0.0 -0.0
0.0 0.0 -0.0
1.2902155584164089e-17 4.96358125629927e-15 -1.3315820905339443e-14
-1.276695841209349e-17 -4.9629999004731245e-15 1.3316037726337955e-14
1.410684377921622e-17 -1.2537057979844434e-15 3.324123531488408e-15
3.9983053610522825e-17 -2.4894431320281246e-15 6.654935926210465e-15
-0.0 0.0 -0.0
-1.3829554832455e-19 -3.1613896538171607e-16 8.300102653959957e-16
-3.7757041347489507e-17 -5.068566654996841e-15 1.3276166547850392e-14
8.869037755202981e-17 1.0122928454508074e-14 -2.6557711130068356e-14
-3.854735228656102e-17 -5.049668944153552e-15 1.3283363632478855e-14
0.0 0.0 -0.0
-7.511342336061136e-17 -1.0073312762770053e-14 2.6576611802548516e-14
4.180518708139067e-17 5.033614828687131e-15 -1.3289445655080316e-14
0.0 0.0 -0.0
8.822282609987961e-17 1.0048310966717018e-14 -2.658603449925215e-14
0.0 0.0 -0.0
0.0 0.0 -0.0
-7.615952765705697e-17 -1.0028988297222296e-14 2.659336684977744e-14
0.0 0.0 -0.0
0.0 0.0 -0.0
6.347056107771301e-17 1.0015236101294843e-14 -2.6598582373305403e-14
2.948416188284283e-17 5.0053062081160455e-15 -1.3300166622406356e-14
2.819613542468425e-17 5.0033854530725086e-15 -1.3300892102506075e-14
-2.7233741037201047e-17 -5.001691806310008e-15 1.33015310823461e-14
0.0 0.0 -0.0
-4.8979238936511596e-17 -9.997132727385023e-15 2.6605422477598746e-14
7.126322486899321e-17 1.4991875695801472e-14 -3.990957416840763e-14
0.0 0.0 -0.0
0.0 0.0 -0.0
0.0 0.0 -0.0
-3.96180955568934e-17 -9.979966604201962e-15 2.6611882006574318e-14
0.0 0.0 -0.0
0.0 0.0 -0.0
3.622628480798666e-17 9.972112285232013e-15 -2.661483103785049e-14
0.0 0.0 -0.0
3.4837837103215307e-17 9.96696013259434e-15 -2.66167627443064e-14
0.0 0.0 -0.0
-3.301482114260308e-17 -9.961594600807886e-15 2.6618773637736507e-14
-3.244565668481208e-17 -9.958709361593014e-15 2.6619853907882326e-14
0.0 0.0 -0.0
3.1202597965553586e-17 9.952954581218067e-15 -2.6622007596130062e-14
-3.019007138336934e-17 -9.947403878323267e-15 2.662408330041478e-14
0.0 0.0 -0.0
0.0 0.0 -0.0
2.8586549785334996e-17 9.939982380244646e-15 -2.6626856743444457e-14
0.0 0.0 -0.0
-1.3632088306497839e-17 -4.967759592873482e-15 1.3314261922095454e-14
0.0 0.0 -0.0
2.67523365075011e-17 9.931707862744818e-15 -2.6629946116879398e-14
0.0 0.0 -0.0
0.0 0.0 -0.0
1.2902155584164089e-17 4.96358125629927e-15 -1.3315820905339443e-14
-1.276695841209349e-17 -4.9629999004731245e-15 1.3316037726337955e-14

SCALARS Gamma float
LOOKUP_TABLE default
-0.0
-0.0
-0.0
51.073867608077265
54.6542225282387
54.71738417884257
52.60716170587797
47.927276467738345
44.893818201225535
47.49333357804833
53.9664726806205
54.609886769466534
50.61568074649958
45.79339097602297
44.80845047075236
44.03519598741228
40.37887781217784
38.25653441106811
33.56546685882596
33.927581831005874
33.440490245568306
35.05641816027795
36.67687690195817
34.615578689913434
36.640538454553436
37.89675248344619
38.015151339199136
38.13456398702483
38.35709182803064
38.63480613713252
38.98001973567908
39.288359431433136
37.33114726750937
37.62928905854128
37.95288969758572
38.266544752984636
38.52465961850435
40.85618508544952
40.77187428497022
40.404043334532346
39.68202522367317
38.45428287829535
36.417650218176036
33.79895034968118
31.13614659640185
28.511141866488337
25.68280038046689
22.958430191629393
20.199806818508012
17.646672443702933
-0.0
-0.0
-0.0
51.073867608077265
54.6542225282387
54.71738417884257
52.60716170587797
47.927276467738345
44.893818201225535
47.49333357804833
53.9664726806205
54.609886769466534
50.61568074649958
45.79339097602297
44.80845047075236
44.03519598741228
40.37887781217784
38.25653441106811
33.56546685882596
33.927581831005874
33.440490245568306
35.05641816027795
36.67687690195817
34.615578689913434
36.640538454553436
37.89675248344619
38.015151339199136
38.13456398702483
38.35709182803064
38.63480613713252
38.98001973567908
39.288359431433136
37.33114726750937
37.62928905854128
37.95288969758572
38.266544752984636
38.52465961850435
40.85618508544952
40.77187428497022
40.404043334532346
39.68202522367317
38.45428287829535
36.417650218176036
33.79895034968118
31.13614659640185
28.511141866488337
25.68280038046689
22.958430191629393
20.199806818508012
17.646672443702933

VECTORS Ftot float
115.09811623028452 37.05000430387243 13.485098746044322
138.7806951550292 82.51786166540936 30.034045441505274
142.2416671606234 122.58550040511696 44.617473300090296
1267.1643339172585 -12.481766535430017 -4.542991489956532
1296.1934998486279 -206.9912443538505 -75.33865169852409
1390.3226953186345 -269.99118542708106 -98.26875500970488
1473.780417734091 -264.3324987058183 -96.20916147812781
1464.1203722021023 -258.9672416837359 -94.25636762290209
1479.5356257778267 -277.68172576358205 -101.06788277761483
1671.9142515752674 -355.42289920437355 -129.36335588698932
2027.5125428701554 -463.44141995023 -168.67888218794755
2184.287066147676 -518.3199513835625 -188.65303412992282
2148.8162133249675 -518.6597535768219 -188.77671201380764
2062.763702486473 -478.10480070215584 -174.01591631536056
2134.9929541126135 -464.8447349636824 -169.1896470821431
2207.32176258803 -463.3135514761567 -168.63234186948384
2125.2240187306534 -420.1009536822733 -152.9042425271928
2104.4097150212074 -399.7322346484318 -145.49063508874306
1925.6772728904184 -345.2717156169837 -125.66862721860782
2022.611054855898 -351.47908717594703 -127.92792569910104
2066.1407680345683 -350.9548709579299 -127.73712659942323
2243.0949924745146 -357.6876611455066 -130.18766182126072
2421.993919781006 -378.33547338981174 -137.70285088090506
2354.9053824446987 -360.14129995459723 -131.0807133134101
2563.8633798194605 -385.35880858613154 -140.25913583763966
2725.580711976051 -386.49767089884205 -140.67364782039385
2803.706610694164 -386.06180632559085 -140.51500608955925
2879.5042974277258 -387.98438995886596 -141.2147693049588
2961.469371871748 -389.9073882743279 -141.914683452331
3045.935643694021 -393.40167929784445 -143.18650137475458
3134.181380849356 -398.2369657809938 -144.94640172877067
3218.04019515304 -402.6041708269864 -146.53593437244913
3110.7804082735834 -388.0843894012711 -141.25116612543746
3188.07088416398 -388.72240794987067 -141.48338588603744
3265.15482024241 -394.64466627715484 -143.63891163680404
3339.6599480213476 -401.5099613785427 -146.13767470316282
3408.1508141253084 -404.4818076725158 -147.21933829498334
3659.897086280381 -433.6596340004687 -157.83919857894696
3695.9406710942962 -434.1154507448792 -158.0051023061925
3703.0503877678557 -431.4255878538812 -157.026072279612
3673.4995813178343 -428.92921298270875 -156.11746613293514
3594.0505591860206 -413.2818980539653 -150.42230925268328
3434.0639785526178 -387.3907058192369 -140.99868594957786
3212.5980412448107 -359.6647453886209 -130.90726163639104
2980.970988475642 -331.6314027470611 -120.70395934787776
2747.0325024154454 -307.23033483006634 -111.82269694178362
2489.0481260450283 -276.6666283729716 -100.69841754255135
2236.583372498636 -247.02145321723822 -89.9084561962564
1976.6182420610257 -217.9362262100788 -79.32229930877486
1733.4436280897764 -190.19493253078272 -69.2252941494739
115.09811623028452 37.05000430387243 13.485098746044322
138.7806951550292 82.51786166540936 30.034045441505274
142.2416671606234 122.58550040511696 44.617473300090296
1267.1643339172585 -12.481766535430017 -4.542991489956532
1296.1934998486279 -206.9912443538505 -75.33865169852409
1390.3226953186345 -269.99118542708106 -98.26875500970488
1473.780417734091 -264.3324987058183 -96.20916147812781
1464.1203722021023 -258.9672416837359 -94.25636762290209
1479.5356257778267 -277.68172576358205 -101.06788277761483
1671.9142515752674 -355.42289920437355 -129.36335588698932
2027.5125428701554 -463.44141995023 -168.67888218794755
2184.287066147676 -518.3199513835625 -188.65303412992282
2148.8162133249675 -518.6597535768219 -188.77671201380764
2062.763702486473 -478.10480070215584 -174.01591631536056
2134.9929541126135 -464.8447349636824 -169.1896470821431
2207.32176258803 -463.3135514761567 -168.63234186948384
2125.2240187306534 -420.1009536822733 -152.9042425271928
2104.4097150212074 -399.7322346484318 -145.49063508874306
1925.6772728904184 -345.2717156169837 -125.66862721860782
2022.611054855898 -351.47908717594703 -127.92792569910104
2066.1407680345683 -350.9548709579299 -127.73712659942323
2243.0949924745146 -357.6876611455066 -130.18766182126072
2421.993919781006 -378.33547338981174 -137.70285088090506
2354.9053824446987 -360.14129995459723 -131.0807133134101
2563.8633798194605 -385.35880858613154 -140.25913583763966
2725.580711976051 -386.49767089884205 -140.67364782039385
2803.706610694164 -386.06180632559085 -140.51500608955925
2879.5042974277258 -387.98438995886596 -141.2147693049588
2961.469371871748 -389.9073882743279 -141.914683452331
3045.935643694021 -393.40167929784445 -143.18650137475458
3134.181380849356 -398.2369657809938 -144.94640172877067
3218.04019515304 -402.6041708269864 -146.53593437244913
3110.7804082735834 -388.0843894012711 -141.25116612543746
3188.07088416398 -388.72240794987067 -141.48338588603744
3265.15482024241 -394.64466627715484 -143.63891163680404
3339.6599480213476 -401.5099613785427 -146.13767470316282
3408.1508141253084 -404.4818076725158 -147.21933829498334
3659.897086280381 -433.6596340004687 -157.83919857894696
3695.9406710942962 -434.1154507448792 -158.0051023061925
3703.0503877678557 -431.4255878538812 -157.026072279612
3673.4995813178343 -428.92921298270875 -156.11746613293514
3594.0505591860206 -413.2818980539653 -150.42230925268328
3434.0639785526178 -387.3907058192369 -140.99868594957786
3212.5980412448107 -359.6647453886209 -130.90726163639104
2980.970988475642 -331.6314027470611 -120.70395934787776
2747.0325024154454 -307.23033483006634 -111.82269694178362
2489.0481260450283 -276.6666283729716 -100.69841754255135
2236.583372498636 -247.02145321723822 -89.9084561962564
1976.6182420610257 -217.9362262100788 -79.32229930877486
1733.4436280897764 -190.19493253078272 -69.2252941494739

VECTORS D float
90.91728834990943 -29.01925031687795 -11.330553152502555
59.419075960672934 -35.101367642117395 -13.487525003444802
12.274214503856513 -10.517359741416922 -4.016868007349483
528.1308629097854 -590.0975867744513 -224.67168200730654
513.1546535681659 -704.4419419403389 -267.4820116958063
471.4702442457231 -764.2506935374525 -289.7328079342395
409.40888041359403 -762.7422591681893 -288.7682951623573
345.1273243074759 -724.2628857052349 -273.8874755787762
308.0503393474478 -716.9098152218571 -270.8591346916307
320.7998720291632 -817.7461219384887 -308.72679066614614
357.63537009260443 -989.7374290865772 -373.1740356258633
354.4791785544398 -1054.656605230271 -397.43589356387315
321.21545586871576 -1020.3536008826059 -384.3153270925573
278.8303482160397 -939.7272283710836 -353.8149645142391
259.8361515844021 -924.566571109712 -347.93181229577135
246.1669661696824 -920.7721430521331 -346.3574184159355
215.64885810541128 -845.2427816849764 -317.8948026381902
197.26607301755536 -806.7434712301593 -303.2945754773952
166.0283874573785 -706.3473873982275 -265.45455072946896
162.97108638604942 -719.3309379016468 -270.24463984207506
156.72547629892608 -715.9336416585297 -268.8871819467913
157.6868615192183 -743.811089405286 -279.28015671321526
161.41026651382487 -784.5560511659987 -294.50407074597064
149.1488923832924 -745.5766816291967 -279.80664625722704
154.8709449256053 -795.2463960766564 -298.25116763864304
154.62934872713691 -813.5356030259053 -305.0307566783289
151.75963935675298 -816.7373195914925 -306.1512680726058
149.56488365918946 -822.1059217280267 -308.082839315317
147.82359431794023 -828.6747997710814 -310.4624135977137
146.66450867479648 -837.3667059273033 -313.6350614989859
146.04179975027714 -848.1301181929297 -317.58075815904226
145.42102275371525 -857.9981261074523 -321.18823123756187
137.3484319313942 -822.3734781328976 -307.7676585635055
136.4281175574374 -828.3224903770767 -309.91449695775935
136.5516380965182 -839.6823303777348 -314.0665627406803
136.89580689552685 -851.7940763446904 -318.49641238567153
136.6268077717908 -859.4795166859494 -321.2688177626477
144.40827863258792 -917.6949464513766 -342.92192934802983
143.17820610799365 -918.6947048866272 -343.0842897783089
141.06612283214653 -913.0851231813613 -340.8933908569896
138.41109262177795 -903.1484917886986 -337.0919348230751
132.98458890575128 -874.1961894751566 -326.20046869884686
124.67731223171731 -825.1752296013742 -307.83169880600843
115.15834808354634 -766.9149357526452 -286.0300632897182
105.65365239860863 -707.58664804438 -263.84455442178376
96.86321212570033 -652.0111167586604 -243.07193823272985
86.92800135909391 -587.7881854474242 -219.08856043806844
77.41818550269281 -525.5795549356158 -195.86841058888024
68.0119020321236 -463.3277448947734 -172.64331101206795
59.2484109192515 -404.82292874396086 -150.8241245888729
90.91728834990943 -29.01925031687795 -11.330553152502555
59.419075960672934 -35.101367642117395 -13.487525003444802
12.274214503856513 -10.517359741416922 -4.016868007349483
528.1308629097854 -590.0975867744513 -224.67168200730654
513.1546535681659 -704.4419419403389 -267.4820116958063
471.4702442457231 -764.2506935374525 -289.7328079342395
409.40888041359403 -762.7422591681893 -288.7682951623573
345.1273243074759 -724.2628857052349 -273.8874755787762
308.0503393474478 -716.9098152218571 -270.8591346916307
320.7998720291632 -817.7461219384887 -308.72679066614614
357.63537009260443 -989.7374290865772 -373.1740356258633
354.4791785544398 -1054.656605230271 -397.43589356387315
321.21545586871576 -1020.3536008826059 -384.3153270925573
278.8303482160397 -939.7272283710836 -353.8149645142391
259.8361515844021 -924.566571109712 -347.93181229577135
246.1669661696824 -920.7721430521331 -346.3574184159355
215.64885810541128 -845.2427816849764 -317.8948026381902
197.26607301755536 -806.7434712301593 -303.2945754773952
166.0283874573785 -706.3473873982275 -265.45455072946896
162.97108638604942 -719.3309379016468 -270.24463984207506
156.72547629892608 -715.9336416585297 -268.8871819467913
157.6868615192183 -743.811089405286 -279.28015671321526
161.41026651382487 -784.5560511659987 -294.50407074597064
149.1488923832924 -745.5766816291967 -279.80664625722704
154.8709449256053 -795.2463960766564 -298.25116763864304
154.62934872713691 -813.5356030259053 -305.0307566783289
151.75963935675298 -816.7373195914925 -306.1512680726058
149.56488365918946 -822.1059217280267 -308.082839315317
147.82359431794023 -828.6747997710814 -310.4624135977137
146.66450867479648 -837.3667059273033 -313.6350614989859
146.04179975027714 -848.1301181929297 -317.58075815904226
145.42102275371525 -857.9981261074523 -321.18823123756187
137.3484319313942 -822.3734781328976 -307.7676585635055
136.4281175574374 -828.3224903770767 -309.91449695775935
136.5516380965182 -839.6823303777348 -314.0665627406803
136.89580689552685 -851.7940763446904 -318.49641238567153
136.6268077717908 -859.4795166859494 -321.2688177626477
144.40827863258792 -917.6949464513766 -342.92192934802983
143.17820610799365 -918.6947048866272 -343.0842897783089
141.06612283214653 -913.0851231813613 -340.8933908569896
138.41109262177795 -903.1484917886986 -337.0919348230751
132.98458890575128 -874.1961894751566 -326.20046869884686
124.67731223171731 -825.1752296013742 -307.83169880600843
115.15834808354634 -766.9149357526452 -286.0300632897182
105.65365239860863 -707.58664804438 -263.84455442178376
96.86321212570033 -652.0111167586604 -243.07193823272985
86.92800135909391 -587.7881854474242 -219.08856043806844
77.41818550269281 -525.5795549356158 -195.86841058888024
68.0119020321236 -463.3277448947734 -172.64331101206795
59.2484109192515 -404.82292874396086 -150.8241245888729

VECTORS L float
24.18082788037505 66.0692546207504 24.81565189854688
79.36161919435627 117.61922930752678 43.52157044495008
129.96745265676688 133.1028601465339 48.63434130743979
739.0334710074732 577.6158202390214 220.12869051735
783.0388462804618 497.45069758648845 192.14335999728226
918.8524510729117 494.25950811037166 191.46405292453463
1064.371537320497 498.4097604623713 192.55913368422958
1118.9930478946267 465.29564402149913 179.6311079558741
1171.4852864303791 439.2280894582751 169.79125191401587
1351.1143795461044 462.32322273411523 179.36343477915682
1669.8771727775513 526.2960091363476 204.49515343791586
1829.8078875932365 536.3366538467085 208.78285943395034
1827.600757456252 501.69384730578395 195.5386150787497
1783.9333542704333 461.62242766892774 179.79904819887852
1875.1568025282113 459.7218361460294 178.74216521362817
1961.1547964183483 457.4585915759766 177.72507654645176
1909.5751606252425 425.1418280027033 164.9905601109975
1907.1436420036525 407.0112365817276 157.80394038865214
1759.6488854330403 361.0756717812438 139.78592351086112
1859.6399684698488 367.8518507257 142.31671414297406
1909.4152917356428 364.97877070059997 141.1500553473682
2085.4081309552967 386.1234282597796 149.09249489195463
2260.583653267181 406.22057777618704 156.80121986506558
2205.756490061406 385.4353816745994 148.72593294381684
2408.9924348938557 409.8875874905251 157.9920318010035
2570.9513632489147 427.03793212706324 164.3571088579351
2651.9469713374106 430.67551326590166 165.63626198304655
2729.9394137685367 434.1215317691608 166.8680700103583
2813.6457775538083 438.76741149675365 168.5477301453827
2899.2711350192253 443.9650266294589 170.44856012423128
2988.1395810990794 449.89315241193583 172.6343564302716
3072.6191723993247 455.39395528046606 174.6522968651128
2973.4319763421895 434.28908873162663 166.51649243806807
3051.642766606543 439.6000824272063 168.43111107172194
3128.603182145892 445.0376641005801 170.42765110387631
3202.76414112582 450.2841149661477 172.35873768250877
3271.5240063535184 454.9977090134338 174.04947946766436
3515.488807647794 484.0353124509077 185.0827307690828
3552.762464986304 484.57925414174804 185.07918747211644
3561.9842649357106 481.6595353274803 183.8673185773776
3535.088488696057 474.21927880598963 180.97446869013993
3461.065970280269 460.9142914211915 175.77815944616358
3309.3866663209014 437.78452378213734 166.83301285643057
3097.4396931612646 407.25019036402443 155.12280165332717
2875.3173360770334 375.95524529731887 143.14059507390604
2650.1692902897444 344.78078192859397 131.24924129094617
2402.120124685934 311.1215570744526 118.39014289551707
2159.1651869959433 278.5581017183776 105.95995439262384
1908.6063400289024 245.39151868469463 93.32101170329314
1674.1952171705248 214.62799621317822 81.59883043939904
24.18082788037505 66.0692546207504 24.81565189854688