# vtk DataFile Version 4.0
[MyVLM domain - lattices] 
ASCII
DATASET UNSTRUCTURED_GRID
POINTS 152 float
0.0 -1.9080246442064526 1.1867036931983301
0.0 -2.446983470535816 3.3625338608426816
0.0 -2.9434695918997917 5.50414338098558
0.0 -3.439757307289487 7.60407815412436
0.0 -3.9361853586246474 9.66227845091907
0.0 -4.396398597830645 11.68515466486292
0.0 -4.790282202322768 13.678016851696844
0.0 -5.110062962552582 15.642235637990932
0.0 -5.40314392991121 17.569452586817015
0.0 -5.688934638348288 19.4562452736568
0.0 -5.967190655693752 21.302656798496823
0.0 -6.237554257791139 23.108750237757516
0.0 -6.499632041886543 24.874594958958674
0.0 -6.75018638399838 26.60076184256165
0.0 -6.99137728495389 28.28687002214224
0.0 -7.227939531224754 29.93208462709759
0.0 -7.460577922928085 31.536281382151056
0.0 -7.688131012042639 33.09966508192548
0.0 -7.909762038291366 34.622383269834074
0.0 -8.12547124296471 36.10443590333083
0.0 -8.335258860909164 37.54582294100597
0.0 -8.53912512052725 38.94654434258598
0.0 -8.737070243777541 40.30660006893356
0.0 -8.929094446174647 41.62599008204768
0.0 -9.115197936789219 42.90471434506353
0.0 -9.295380918247954 44.142772822252574
0.0 -9.469643586733588 45.340165479022495
0.0 -9.637986131984896 46.49689228191723
0.0 -9.800410310075128 47.61295292129368
0.0 -9.956937900811756 48.688343556784154
0.0 -10.107573331634608 49.72306340771156
0.0 -10.252313486193245 50.717113023572544
0.0 -10.391155370613877 51.67049293226786
0.0 -10.524096113499375 52.58320364010226
0.0 -10.651132965929264 53.455245631784635
0.0 -10.772263301459718 54.286619370427864
0.0 -10.887069037089537 55.077398575345235
0.0 -10.994228120214645 55.827816360080774
0.0 -11.091642636730567 56.5382426434943
0.0 -11.178221224666904 57.20886986214691
0.0 -11.254728571899165 57.83956318093437
0.0 -11.320914464283284 58.43036671936117
0.0 -11.365181136212941 58.98332547641969
0.0 -11.387791868233977 59.49839302864616
0.0 -11.397527833679105 59.97402101825978
0.0 -11.400373154251863 60.40915428314834
0.0 -11.397843073200434 60.803525645044886
0.0 -11.388489001485166 61.15739052928105
0.0 -11.373580766108619 61.47052503109544
0.0 -11.355634043047928 61.742485568938584
0.0 -11.336826581656434 61.97288814684226
-0.7686761955390344 1.2954814770809948 1.7515682552460379
-0.8409029948616161 1.0530502558114505 3.9796842401873005
-0.8940476007249757 0.7795989608145721 6.160620817856346
-0.9506443374492793 0.5212818573769875 8.302516230497988
-1.0210144815146838 0.2766781361747068 10.405119951093962
-1.048631451549771 0.015731763396083842 12.463132289950186
-0.9920275022819518 -0.2820421944773619 14.472941200589343
-0.9074715353829097 -0.6364087080560688 16.43106158541989
-0.8388231939293685 -1.0078578964847638 18.344460102441197
-0.7803448823218929 -1.376321844270708 20.216675266601207
-0.7251531968841737 -1.739605334236304 22.04809415391685
-0.671766762046156 -2.094607844969912 23.839263469967257
-0.6188683613166902 -2.4454943175758026 25.589448823262682
-0.5668565661826578 -2.7936325477403336 27.298409034519533
-0.5162677046190278 -3.138197861229176 28.966289516055607
-0.4681223452427161 -3.4736449502206383 30.59406805525621
-0.42442582165628834 -3.799335651734349 32.18185717747286
-0.3846819074085718 -4.116435631280503 33.72945134442564
-0.3476243488905531 -4.4256843358962055 35.2367201716511
-0.3131098246080671 -4.727028333446108 36.703673080676346
-0.28048746260446866 -5.020376900441818 38.130326068500146
-0.2502235469699514 -5.3057416347417075 39.516677090107166
-0.2227998260917326 -5.583122079923031 40.86272622597704
-0.19746739264611052 -5.852429536845478 42.16848911616138
-0.17533279734900953 -6.1136993601571845 43.433959526681825
-0.15613374469432648 -6.366873883014925 44.65914762575872
-0.13998404755873647 -6.611922294701914 45.84405884615274
-0.12578653595324127 -6.848763242015966 46.988707532628396
-0.11250427274737486 -7.077336758358001 48.09310425891505
-0.10008179164308317 -7.297631054963963 49.15725110368985
-0.08845752889585208 -7.509637564006121 50.18114957769202
-0.07764231497362577 -7.713351803149654 51.16480047127811
-0.06766212708627829 -7.9087694569799085 52.108204545372175
-0.0584684819534103 -8.095884109843135 53.01136293122703
-0.050013688763705585 -8.274689963838824 53.87427665116902
-0.042252254921319045 -8.44518183332357 54.696946619566944
-0.03513536582041269 -8.607679403655096 55.479316467266905
-0.028615518964613278 -8.76321148386786 56.22120478747816
-0.022687693716904638 -8.91454364332307 56.922123935705294
-0.017408965386693863 -9.063106350242439 57.581821681805756
-0.013252482528008399 -9.20657143895666 58.20070854420261
-0.010166684094042405 -9.345057859247103 58.77876354884008
-0.00760098697125575 -9.492309477823987 59.313563281197865
-0.005464879873870877 -9.648371164131278 59.805099829582375
-0.0039015967321000085 -9.80288526446358 60.25519952779874
-0.002883995165670249 -9.948996186363317 60.66507120176594
-0.0022477517166190047 -10.085490183463214 61.03492886771628
-0.00179874084072329 -10.214968446416115 61.36431386555571
-0.0014595970466816986 -10.336391491268527 61.653409484351194
-0.0012027506489664258 -10.447011058338928 61.90270031643464
-0.0010073243559101815 -10.544448075622824 62.11260585638945
-0.603592196400244 0.3363233854918839 2.7178743800426277
-0.6506064733449719 0.013436823430307943 4.9109490519949
-0.6917594768153456 -0.31007305557682485 7.062204085021618
-0.7393720571114861 -0.6227578356573815 9.17365814372741
-0.7761172248991705 -0.9319192822178651 11.244023729864306
-0.7652471076868961 -1.2482015116746557 13.271423998522293
-0.712312139124323 -1.5819622340594548 15.254032605964433
-0.6548605234921042 -1.9307508382607863 17.192281661048902
-0.607188028594223 -2.2805772238157394 19.088637995950126
-0.564561779702275 -2.625488353695385 20.944151291713474
-0.5238449845988737 -2.963423056387943 22.75918498848833
-0.48398817126106725 -3.294686598414353 24.53368525955075
-0.4446468478122555 -3.620899877729166 26.267366296858373
-0.4061716015506322 -3.9421318619826 27.96021593955367
-0.369146268698154 -4.256855656316011 29.61250342039691
-0.3347055625871267 -4.5634324075022255 31.22451771342948
-0.3034153983993225 -4.862002848001909 32.79623400372151
-0.27461484611217185 -5.153031618983015 34.327570362498726
-0.24777531506198255 -5.436671411160377 35.818499866268404
-0.22259898270470088 -5.7128682256922065 37.26903203648328
-0.19901662859040753 -5.981592448373373 38.679172094926734
-0.1773837648981315 -6.242848313537376 40.04891929497152
-0.15760020702669117 -6.4966024425322155 41.378279522174566
-0.13980007124817 -6.7428348842464825 42.6672562944551
-0.124299953266251 -6.981537323069186 43.91585107807972
-0.11104417209489861 -7.212676629766507 45.12406971462618
-0.09966396881699166 -7.436210791109014 46.291919612160385
-0.08935905326273105 -7.6520870553977405 47.41941007223015
-0.07971977414642176 -7.860281456356597 48.506545320736564
-0.07070224520210072 -8.060789636169575 49.553326126080165
-0.06228744145105419 -8.253606864911896 50.55975332227431
-0.05448916577246402 -8.438729079649475 51.525827625723906
-0.04729897838988322 -8.616151523072798 52.45154987527097
-0.04068081401891846 -8.785868912559314 53.33692100238438
-0.03459972888188424 -8.94787645735952 54.181941851802534
-0.029020357778149403 -9.102239506185656 54.986600900784325
-0.023906581794384738 -9.24924622748413 55.750847337457635
-0.019238704755569217 -9.389892017314748 56.47450564664068
-0.015036247163849435 -9.525351730261749 57.15736866977179
-0.011498042968013347 -9.655247895520422 57.799502965138295
-0.00878218748326905 -9.778816366349218 58.40104327242796
-0.006662876649486808 -9.899774701463686 58.96133408573683
-0.004899700066922485 -10.02187686628909 59.47971347967582
-0.0035124287272390825 -10.142386123462208 59.95666401488116
-0.0025445969616638467 -10.256693167551457 60.39299843626277
-0.0019244050808584702 -10.362709417116486 60.78908501708
-0.0015174347090033604 -10.46096349554045 61.14483054676774
-0.0012218767077768707 -10.552018697580964 61.460135701262146
-0.0009983803858680466 -10.634927807247363 61.73516750029893
-0.0008287781268287279 -10.708354753323702 61.97016152928164

CELLS 100 350
4 0 51 52 1
4 1 52 53 2
4 2 53 54 3
4 3 54 55 4
4 4 55 56 5
4 5 56 57 6
4 6 57 58 7
4 7 58 59 8
4 8 59 60 9
4 9 60 61 10
4 10 61 62 11
4 11 62 63 12
4 12 63 64 13
4 13 64 65 14
4 14 65 66 15
4 15 66 67 16
4 16 67 68 17
4 17 68 69 18
4 18 69 70 19
4 19 70 71 20
4 20 71 72 21
4 21 72 73 22
4 22 73 74 23
4 23 74 75 24
4 24 75 76 25
4 25 76 77 26
4 26 77 78 27
4 27 78 79 28
4 28 79 80 29
4 29 80 81 30
4 30 81 82 31
4 31 82 83 32
4 32 83 84 33
4 33 84 85 34
4 34 85 86 35
4 35 86 87 36
4 36 87 88 37
4 37 88 89 38
4 38 89 90 39
4 39 90 91 40
4 40 91 92 41
4 41 92 93 42
4 42 93 94 43
4 43 94 95 44
4 44 95 96 45
4 45 96 97 46
4 46 97 98 47
4 47 98 99 48
4 48 99 100 49
4 49 100 101 50
1 102
1 103
1 104
1 105
1 106
1 107
1 108
1 109
1 110
1 111
1 112
1 113
1 114
1 115
1 116
1 117
1 118
1 119
1 120
1 121
1 122
1 123
1 124
1 125
1 126
1 127
1 128
1 129
1 130
1 131
1 132
1 133
1 134
1 135
1 136
1 137
1 138
1 139
1 140
1 141
1 142
1 143
1 144
1 145
1 146
1 147
1 148
1 149
1 150
1 151

CELL_TYPES 100
9
9
9
9
9
9
9
9
9
9
9
9
9
9
9
9
9
9
9
9
9
9
9
9
9
9
9
9
9
9
9
9
9
9
9
9
9
9
9
9
9
9
9
9
9
9
9
9
9
9
1
1
1
1
1
1
1
1
1
1
1
1
1
1
1
1
1
1
1
1
1
1
1
1
1
1
1
1
1
1
1
1
1
1
1
1
1
1
1
1
1
1
1
1
1
1
1
1
1
1

CELL_DATA 100

VECTORS S float
-2.1392808115437e-19 -6.2624009847693e-19 5.5507206461276085e-17
6.112304925189199e-19 9.6808235387169e-19 -1.110163990495073e-16
-0.0 -0.0 0.0
-4.0727602561299996e-21 4.0551464760139997e-19 -2.7752612832634318e-17
0.0 -0.0 0.0
2.7783318484599197e-18 -1.3442461055842109e-17 8.880723429619424e-16
0.0 -0.0 0.0
2.26607017389356e-18 -1.2047916986117439e-17 8.880938113979145e-16
0.0 -0.0 0.0
0.0 -0.0 0.0
0.0 -0.0 0.0
2.73524373160847e-18 -1.0838405918727779e-17 8.881080748534388e-16
-2.7335602320592e-18 1.063646091246838e-17 -8.881105215955541e-16
0.0 -0.0 0.0
-2.32635011079217e-18 1.0028794231879679e-17 -8.881187514079569e-16
-4.40603882361441e-18 1.96978405840151e-17 -1.7762421576976091e-15
0.0 -0.0 0.0
1.9350678753714498e-18 -9.54964105830944e-18 8.88124971549042e-16
9.0117948552831e-19 -4.71318094791426e-18 4.440632838978472e-16
0.0 -0.0 0.0
-8.407615520747499e-19 4.65207670655893e-18 -4.4406404674053696e-16
0.0 -0.0 0.0
0.0 -0.0 0.0
0.0 -0.0 0.0
0.0 -0.0 0.0
0.0 -0.0 0.0
1.27141585135316e-18 -8.660948891699279e-18 8.881352806228566e-16
-6.146580443144799e-19 4.2792306587956596e-18 -4.4406816671059667e-16
-1.1871107051172199e-18 8.45809916276064e-18 -8.88137352298471e-16
-5.7546974185839e-19 4.18013958171431e-18 -4.4406916305110236e-16
0.0 -0.0 0.0
5.445520788694699e-19 -4.0846805002636095e-18 4.440700903613045e-16
1.07354036715248e-18 -8.077445966663389e-18 8.881410403752028e-16
5.187497465661e-19 -3.9915327797109096e-18 4.440709682809966e-16
1.0165451251133199e-18 -7.891911996053579e-18 8.881427754488953e-16
-1.49939146327835e-18 1.1703681846416319e-17 -1.3322153776337194e-15
-1.46861535084296e-18 1.160892915960766e-17 -1.3322162409609017e-15
-9.6559075856589e-19 7.64692654010329e-18 -8.881449754234884e-16
-9.4605034750339e-19 7.55614830757951e-18 -8.881457734136361e-16
-4.637448188446699e-19 3.73418812570582e-18 -4.440732676991915e-16
-1.37861408927848e-18 1.107798148937423e-17 -1.3322208580023772e-15
0.0 -0.0 0.0
4.3446707516931e-19 -3.61253565605819e-18 4.440743036134237e-16
4.2684251481275998e-19 -3.57620813863692e-18 4.4407460504522164e-16
4.2014295508807996e-19 -3.54238072647795e-18 4.440748825636718e-16
0.0 -0.0 0.0
0.0 -0.0 0.0
0.0 -0.0 0.0
-2.0189723600067e-19 1.71763095623155e-18 -2.2203786964776418e-16
0.0 -0.0 0.0
-2.1392808115437e-19 -6.2624009847693e-19 5.5507206461276085e-17
6.112304925189199e-19 9.6808235387169e-19 -1.110163990495073e-16
-0.0 -0.0 0.0
-4.0727602561299996e-21 4.0551464760139997e-19 -2.7752612832634318e-17
0.0 -0.0 0.0
2.7783318484599197e-18 -1.3442461055842109e-17 8.880723429619424e-16
0.0 -0.0 0.0
2.26607017389356e-18 -1.2047916986117439e-17 8.880938113979145e-16
0.0 -0.0 0.0
0.0 -0.0 0.0
0.0 -0.0 0.0
2.73524373160847e-18 -1.0838405918727779e-17 8.881080748534388e-16
-2.7335602320592e-18 1.063646091246838e-17 -8.881105215955541e-16
0.0 -0.0 0.0
-2.32635011079217e-18 1.0028794231879679e-17 -8.881187514079569e-16
-4.40603882361441e-18 1.96978405840151e-17 -1.7762421576976091e-15
0.0 -0.0 0.0
1.9350678753714498e-18 -9.54964105830944e-18 8.88124971549042e-16
9.0117948552831e-19 -4.71318094791426e-18 4.440632838978472e-16
0.0 -0.0 0.0
-8.407615520747499e-19 4.65207670655893e-18 -4.4406404674053696e-16
0.0 -0.0 0.0
0.0 -0.0 0.0
0.0 -0.0 0.0
0.0 -0.0 0.0
0.0 -0.0 0.0
1.27141585135316e-18 -8.660948891699279e-18 8.881352806228566e-16
-6.146580443144799e-19 4.2792306587956596e-18 -4.4406816671059667e-16
-1.1871107051172199e-18 8.45809916276064e-18 -8.88137352298471e-16
-5.7546974185839e-19 4.18013958171431e-18 -4.4406916305110236e-16
0.0 -0.0 0.0
5.445520788694699e-19 -4.0846805002636095e-18 4.440700903613045e-16
1.07354036715248e-18 -8.077445966663389e-18 8.881410403752028e-16
5.187497465661e-19 -3.9915327797109096e-18 4.440709682809966e-16
1.0165451251133199e-18 -7.891911996053579e-18 8.881427754488953e-16
-1.49939146327835e-18 1.1703681846416319e-17 -1.3322153776337194e-15
-1.46861535084296e-18 1.160892915960766e-17 -1.3322162409609017e-15
-9.6559075856589e-19 7.64692654010329e-18 -8.881449754234884e-16
-9.4605034750339e-19 7.55614830757951e-18 -8.881457734136361e-16
-4.637448188446699e-19 3.73418812570582e-18 -4.440732676991915e-16
-1.37861408927848e-18 1.107798148937423e-17 -1.3322208580023772e-15
0.0 -0.0 0.0
4.3446707516931e-19 -3.61253565605819e-18 4.440743036134237e-16
4.2684251481275998e-19 -3.57620813863692e-18 4.4407460504522164e-16
4.2014295508807996e-19 -3.54238072647795e-18 4.440748825636718e-16
0.0 -0.0 0.0
0.0 -0.0 0.0
0.0 -0.0 0.0
-2.0189723600067e-19 1.71763095623155e-18 -2.2203786964776418e-16
0.0 -0.0 0.0

SCALARS Gamma float
LOOKUP_TABLE default
-0.0
-0.0
-0.0
51.18051179111213
54.77853714054507
54.818341908264884
52.675925946467025
47.97833418116352
44.90243100192523
47.50808032099922
54.09928728282505
54.746403932317214
50.80078123696255
45.99092616717967
45.01534038941994
44.251707566974815
40.686454293876935
38.530647043568
33.81587465195981
33.89152673523606
33.42858865289483
35.06659323534662
36.706049250680536
34.65714962617886
36.748597755411545
38.001900458560584
38.13087534484521
38.24424276466585
38.45944938508636
38.72881956007325
39.0649315929685
39.36383254017579
37.39317469136382
37.70616955008592
38.02342460516813
38.3311990954523
38.605876758875276
40.93682852245995
40.86187284626457
40.49216564231247
39.76780243440956
38.536841341487076
36.49523468937835
33.87032744615484
31.2026089259769
28.570702395306984
25.736462907980325
23.00498143019022
20.24077777357057
17.682475764916102
-0.0
-0.0
-0.0
51.18051179111213
54.77853714054507
54.818341908264884
52.675925946467025
47.97833418116352
44.90243100192523
47.50808032099922
54.09928728282505
54.746403932317214
50.80078123696255
45.99092616717967
45.01534038941994
44.251707566974815
40.686454293876935
38.530647043568
33.81587465195981
33.89152673523606
33.42858865289483
35.06659323534662
36.706049250680536
34.65714962617886
36.748597755411545
38.001900458560584
38.13087534484521
38.24424276466585
38.45944938508636
38.72881956007325
39.0649315929685
39.36383254017579
37.39317469136382
37.70616955008592
38.02342460516813
38.3311990954523
38.605876758875276
40.93682852245995
40.86187284626457
40.49216564231247
39.76780243440956
38.536841341487076
36.49523468937835
33.87032744615484
31.2026089259769
28.570702395306984
25.736462907980325
23.00498143019022
20.24077777357057
17.682475764916102

VECTORS Ftot float
115.4561009408255 -39.44062699260459 -8.10076005567569e-14
139.12343056627986 -87.84013327572706 -1.804159561303789e-13
142.51901080956952 -130.46411970620662 -2.679618987327709e-13
1271.4923629921523 12.770151688951806 2.6228775401105436e-14
1299.5379343695668 220.99759378474053 4.5390974146216104e-13
1393.121364182684 287.9348832628425 5.913930834336475e-13
1475.8773971579035 281.5634417034531 5.783066993629653e-13
1465.747301081014 275.68966861843865 5.662424828402133e-13
1480.3290729211003 295.70267607536414 6.07347450930959e-13
1672.816925566101 378.43675327609446 7.772760141752844e-13
2032.4149937105321 494.3687797859859 1.0153902636523425e-12
2189.7990480426142 552.630540372383 1.1350548275600417e-12
2156.5711858533878 554.2367221360392 1.1383537845151683e-12
2072.2972761580418 511.6366713147125 1.0508570035618976e-12
2145.276571026042 497.63354131075795 1.0220957984695598e-12
2218.4228073525383 496.2197239184066 1.0191919411195926e-12
2140.702916814387 451.33130941813886 9.26995061182931e-13
2118.896388281501 429.3573242354687 8.818624162416724e-13
1939.6170802781498 370.8627234651041 7.617196189473706e-13
2020.8132979150125 373.5570303198272 7.672534897325805e-13
2065.773846768893 373.34363450982056 7.66815193390569e-13
2244.1445898212787 380.83466253372006 7.82201110202523e-13
2424.340755946999 403.10098050173895 8.279341811337036e-13
2358.1219439157944 383.95183966114536 7.886035195671226e-13
2571.2113647277783 411.86188657814233 8.45928316472516e-13
2732.906654453531 413.10647025793656 8.484845825686694e-13
2812.136889049797 412.8179789099453 8.478920465553211e-13
2887.679026982476 414.7790303579724 8.519198748249582e-13
2969.2627062631404 416.7418088960528 8.559512503866097e-13
3053.244039347508 420.3327484183621 8.633267263013626e-13
3140.9147677630535 425.33506819956455 8.736010539069756e-13
3224.140919891352 429.8286341813152 8.828304456758577e-13
3115.8918228199423 414.1204615027623 8.505672319582009e-13
3194.510370886084 415.16668827665717 8.527160903069122e-13
3271.183307146707 421.3561233191218 8.654286489000093e-13
3345.293514129543 428.57492223981785 8.802554309280168e-13
3415.3769975539653 432.07043634801477 8.874349113827878e-13
3667.2061379967204 463.0645185403798 9.510940471854003e-13
3703.956739132258 463.7454715757075 9.52492665201642e-13
3710.999434389566 460.86504013742086 9.465765107899083e-13
3681.3353741887063 458.1286599083997 9.4095622497129e-13
3601.6601850420643 441.5372803533791 9.068789815255742e-13
3441.291489369099 413.8721359564429 8.500571929908171e-13
3219.3098258811992 384.2444982983195 7.89204614828213e-13
2987.2750421448245 354.3048194923428 7.277111314217009e-13
2752.7226870984327 328.2185176965438 6.741321475918208e-13
2494.2104649442313 295.569754020526 6.070744406482997e-13
2241.0890461207787 263.88014052569645 5.419867443429515e-13
1980.6051040727452 232.80827273778365 4.781678437258907e-13
1736.9436977007308 203.1752485945574 4.1730420219368783e-13
115.4561009408255 -39.44062699260459 -8.10076005567569e-14
139.12343056627986 -87.84013327572706 -1.804159561303789e-13
142.51901080956952 -130.46411970620662 -2.679618987327709e-13
1271.4923629921523 12.770151688951806 2.6228775401105436e-14
1299.5379343695668 220.99759378474053 4.5390974146216104e-13
1393.121364182684 287.9348832628425 5.913930834336475e-13
1475.8773971579035 281.5634417034531 5.783066993629653e-13
1465.747301081014 275.68966861843865 5.662424828402133e-13
1480.3290729211003 295.70267607536414 6.07347450930959e-13
1672.816925566101 378.43675327609446 7.772760141752844e-13
2032.4149937105321 494.3687797859859 1.0153902636523425e-12
2189.7990480426142 552.630540372383 1.1350548275600417e-12
2156.5711858533878 554.2367221360392 1.1383537845151683e-12
2072.2972761580418 511.6366713147125 1.0508570035618976e-12
2145.276571026042 497.63354131075795 1.0220957984695598e-12
2218.4228073525383 496.2197239184066 1.0191919411195926e-12
2140.702916814387 451.33130941813886 9.26995061182931e-13
2118.896388281501 429.3573242354687 8.818624162416724e-13
1939.6170802781498 370.8627234651041 7.617196189473706e-13
2020.8132979150125 373.5570303198272 7.672534897325805e-13
2065.773846768893 373.34363450982056 7.66815193390569e-13
2244.1445898212787 380.83466253372006 7.82201110202523e-13
2424.340755946999 403.10098050173895 8.279341811337036e-13
2358.1219439157944 383.95183966114536 7.886035195671226e-13
2571.2113647277783 411.86188657814233 8.45928316472516e-13
2732.906654453531 413.10647025793656 8.484845825686694e-13
2812.136889049797 412.8179789099453 8.478920465553211e-13
2887.679026982476 414.7790303579724 8.519198748249582e-13
2969.2627062631404 416.7418088960528 8.559512503866097e-13
3053.244039347508 420.3327484183621 8.633267263013626e-13
3140.9147677630535 425.33506819956455 8.736010539069756e-13
3224.140919891352 429.8286341813152 8.828304456758577e-13
3115.8918228199423 414.1204615027623 8.505672319582009e-13
3194.510370886084 415.16668827665717 8.527160903069122e-13
3271.183307146707 421.3561233191218 8.654286489000093e-13
3345.293514129543 428.57492223981785 8.802554309280168e-13
3415.3769975539653 432.07043634801477 8.874349113827878e-13
3667.2061379967204 463.0645185403798 9.510940471854003e-13
3703.956739132258 463.7454715757075 9.52492665201642e-13
3710.999434389566 460.86504013742086 9.465765107899083e-13
3681.3353741887063 458.1286599083997 9.4095622497129e-13
3601.6601850420643 441.5372803533791 9.068789815255742e-13
3441.291489369099 413.8721359564429 8.500571929908171e-13
3219.3098258811992 384.2444982983195 7.89204614828213e-13
2987.2750421448245 354.3048194923428 7.277111314217009e-13
2752.7226870984327 328.2185176965438 6.741321475918208e-13
2494.2104649442313 295.569754020526 6.070744406482997e-13
2241.0890461207787 263.88014052569645 5.419867443429515e-13
1980.6051040727452 232.80827273778365 4.781678437258907e-13
1736.9436977007308 203.1752485945574 4.1730420219368783e-13

VECTORS D float
91.32076044856811 31.195822656257636 0.7039113044159777
59.811806091362264 37.76414222350708 0.6586198076803113
12.56135871379381 11.498863187443334 0.17823468242064108
530.6756570300444 633.3539366883966 9.17654079110133
515.3577746829025 755.6601349237541 10.496383701918758
473.10582535896754 819.1504599923588 10.919102764414376
410.50388432307153 816.8360138665295 10.49052409761784
345.91325200008373 775.2409560029 9.634314381249203
308.14762215512536 766.7058220885385 9.169106693756119
321.0016394039285 874.5171977236795 10.20014242688346
359.2022214919241 1060.802790170591 12.122959460401871
355.9569928811522 1130.1055594121178 12.695429722649177
323.08529787235096 1095.0547974942144 12.120489699178911
280.74689673489354 1009.6732355878404 10.86370455091542
261.7330856801746 993.6553093562601 10.53494459749429
248.07860545562113 989.8991646856143 10.362231238301005
218.13661141364273 911.3901347201121 9.435269313749515
199.42416370467043 869.5042843121362 8.914910372665057
167.829777361575 761.3511024293892 7.740204792556924
162.73018158537707 767.4597556525496 7.855799534129525
156.65593923437996 764.4793530284244 7.71218999915428
157.7701983622366 794.8706807408324 7.912645251285693
161.62774768864256 838.9449915579157 8.249667538683608
149.45776152639598 797.6958298096464 7.755585934310457
155.66197612014898 852.7303312728687 8.203435511587017
155.39402934979643 872.2298002658387 8.307953096957855
152.58961805332805 876.0019114141573 8.32418561219547
150.34609314311373 881.5475464117507 8.286867035456373
148.55319106624356 888.3529479427815 8.261591771641735
147.3333743470106 897.363117567323 8.25618505644628
146.64616724517674 908.5533799828692 8.2694333656305
145.95836150518065 918.7653092132837 8.272074371609682
137.7871609196094 880.2296569798112 7.838943474839708
136.98407611076624 887.1877831448885 7.814468657676331
137.0622355142362 899.077322848402 7.832196978354155
137.36729435637307 911.798428704338 7.855660236946812
137.21802980094182 920.6143679803254 7.870964302806625
144.98872737618737 982.6780929458312 8.303224831687604
143.8301544532489 984.0369293695428 8.21876163728572
141.70761786464462 977.9816946232364 8.075810273888106
139.03106771743614 967.2366819278038 7.8991105763174385
133.59657326394796 936.3124744981056 7.564922010022153
125.24963003165372 883.7710633216842 7.06692013494223
115.68503150720585 821.3373153110399 6.503172820505527
106.13935351273491 757.7981866433076 5.944528936312256
97.30370765913005 698.2295411084183 5.430009754871428
87.323369945525 629.4427214777947 4.8562279097549474
77.76478273501942 562.7765146126424 4.3106482785679985
68.31590237147284 496.10853428395427 3.7756558626823957
59.51315455036744 433.4587845282956 3.280484613293744
91.32076044856811 31.195822656257636 0.7039113044159777
59.811806091362264 37.76414222350708 0.6586198076803113
12.56135871379381 11.498863187443334 0.17823468242064108
530.6756570300444 633.3539366883966 9.17654079110133
515.3577746829025 755.6601349237541 10.496383701918758
473.10582535896754 819.1504599923588 10.919102764414376
410.50388432307153 816.8360138665295 10.49052409761784
345.91325200008373 775.2409560029 9.634314381249203
308.14762215512536 766.7058220885385 9.169106693756119
321.0016394039285 874.5171977236795 10.20014242688346
359.2022214919241 1060.802790170591 12.122959460401871
355.9569928811522 1130.1055594121178 12.695429722649177
323.08529787235096 1095.0547974942144 12.120489699178911
280.74689673489354 1009.6732355878404 10.86370455091542
261.7330856801746 993.6553093562601 10.53494459749429
248.07860545562113 989.8991646856143 10.362231238301005
218.13661141364273 911.3901347201121 9.435269313749515
199.42416370467043 869.5042843121362 8.914910372665057
167.829777361575 761.3511024293892 7.740204792556924
162.73018158537707 767.4597556525496 7.855799534129525
156.65593923437996 764.4793530284244 7.71218999915428
157.7701983622366 794.8706807408324 7.912645251285693
161.62774768864256 838.9449915579157 8.249667538683608
149.45776152639598 797.6958298096464 7.755585934310457
155.66197612014898 852.7303312728687 8.203435511587017
155.39402934979643 872.2298002658387 8.307953096957855
152.58961805332805 876.0019114141573 8.32418561219547
150.34609314311373 881.5475464117507 8.286867035456373
148.55319106624356 888.3529479427815 8.261591771641735
147.3333743470106 897.363117567323 8.25618505644628
146.64616724517674 908.5533799828692 8.2694333656305
145.95836150518065 918.7653092132837 8.272074371609682
137.7871609196094 880.2296569798112 7.838943474839708
136.98407611076624 887.1877831448885 7.814468657676331
137.0622355142362 899.077322848402 7.832196978354155
137.36729435637307 911.798428704338 7.855660236946812
137.21802980094182 920.6143679803254 7.870964302806625
144.98872737618737 982.6780929458312 8.303224831687604
143.8301544532489 984.0369293695428 8.21876163728572
141.70761786464462 977.9816946232364 8.075810273888106
139.03106771743614 967.2366819278038 7.8991105763174385
133.59657326394796 936.3124744981056 7.564922010022153
125.24963003165372 883.7710633216842 7.06692013494223
115.68503150720585 821.3373153110399 6.503172820505527
106.13935351273491 757.7981866433076 5.944528936312256
97.30370765913005 698.2295411084183 5.430009754871428
87.323369945525 629.4427214777947 4.8562279097549474
77.76478273501942 562.7765146126424 4.3106482785679985
68.31590237147284 496.10853428395427 3.7756558626823957
59.51315455036744 433.4587845282956 3.280484613293744

VECTORS L float
24.135340492257388 -70.63644964886224 -0.703911304416059
79.31162447491758 -125.60427549923413 -0.6586198076804916
129.95765209577573 -141.96298289364998 -0.17823468242090926
740.816705962108 -620.583784999445 -9.176540791101306
784.1801596866644 -534.6625411390139 -10.49638370191831
920.0155388237165 -531.2155767295168 -10.919102764413788
1065.373512834832 -535.2725721630765 -10.490524097617264
1119.8340490809303 -499.5512873844614 -9.634314381248636
1172.181450765975 -471.00314601317444 -9.169106693755513
1351.8152861621727 -496.08044444758514 -10.200142426882682
1673.2127722186085 -566.434010384605 -12.122959460400859
1833.8420551614622 -577.4750190397352 -12.695429722648047
1833.4858879810367 -540.8180753581753 -12.120489699177774
1791.5503794231486 -498.03656427312796 -10.86370455091437
1883.543485345867 -496.021768045502 -10.534944597493267
1970.3442018969172 -493.67944076720767 -10.362231238299987
1922.5663054007443 -460.05882530197334 -9.43526931374859
1919.4722245768307 -440.1469600766675 -8.914910372664176
1771.7873029165742 -390.48837896428483 -7.74020479255616
1858.0831163296355 -393.9027253327224 -7.855799534128758
1909.1179075345128 -391.1357185186038 -7.712189999153512
2086.3743914590423 -414.03601820711236 -7.912645251284911
2262.7130082583567 -435.84401105617667 -8.249667538682782
2208.6641823893992 -413.74399014850104 -7.7555859343096705
2415.549388607629 -440.86844469472646 -8.203435511586171
2577.5126251037345 -459.1233300079024 -8.307953096957009
2659.5472709964697 -463.1839325042122 -8.324185612194624
2737.332933839363 -466.76851605377846 -8.286867035455522
2820.7095151968965 -471.6111390467288 -8.261591771640877
2905.9106650004983 -477.03036914896103 -8.25618505644542
2994.2686005178775 -483.2183117833048 -8.269433365629627
3078.1825583861714 -488.9366750319683 -8.272074371608797
2978.1046619003328 -466.10919547704873 -7.838943474838855
3057.5262947753176 -472.02109486823156 -7.814468657675483
3134.1210716324713 -477.72119952928006 -7.832196978353289
3207.92621977317 -483.22350646451997 -7.8556602369459325
3278.1589677530237 -488.5439316323108 -7.87096430280574
3522.2174106205325 -519.6135744054512 -8.303224831686656
3560.1265846790097 -520.2914577938353 -8.21876163728477
3569.2918165249225 -517.1166544858161 -8.075810273887166
3542.3043064712697 -509.1080220194042 -7.899110576316496
3468.0636117781164 -494.7751941447266 -7.564922010021248
3316.0418593374457 -469.8989273652418 -7.066920134941382
3103.6247943739936 -437.09281701272056 -6.503172820504739
2881.13568863209 -403.493367150965 -5.94452893631153
2655.4189794393033 -370.01102341187465 -5.430009754870756
2406.8870949987063 -333.8729674572688 -4.85622790975434
2163.3242633857594 -298.89637408694597 -4.3106482785674585
1912.289201701273 -263.3002615461706 -3.7756558626819174
1677.4305431503633 -230.2835359337383 -3.280484613293327