# vtk DataFile Version 4.0
[MyVLM domain - lattices] 
ASCII
DATASET UNSTRUCTURED_GRID
POINTS 152 float
0.0 -0.31738683046912763 2.2244301063855723
0.0 1.002959722929753 4.035893192909088
0.0 2.3243926679718365 5.792823691600253
0.0 3.6140284375549796 7.522814191486271
0.0 4.87160353724133 9.226085790652757
0.0 6.125397252075255 10.878909351449026
0.0 7.398834755575113 12.461628819415564
0.0 8.69796253139374 13.96917059234935
0.0 9.985907551273609 15.432474814661672
0.0 11.247571877997867 16.864210159902726
0.0 12.48314564604202 18.264217086304235
0.0 13.692907115402898 19.632262106005495
0.0 14.8771622990994 20.968088443595203
0.0 16.03842962151682 22.269582890100533
0.0 17.175028900278658 23.53815528593389
0.0 18.283277125320367 24.776896043482072
0.0 19.36262605947427 25.986265188350263
0.0 20.413979148920525 27.16550463918193
0.0 21.437987277609317 28.314068239494514
0.0 22.43465025784999 29.43195614677917
0.0 23.403967906964418 30.519168514321056
0.0 24.345940047286966 31.57570549119933
0.0 25.26056650616452 32.60156722228717
0.0 26.14784711595647 33.59675384825175
0.0 27.00778171403472 34.56126550555424
0.0 27.840370142783676 35.49510232644982
0.0 28.645612249600266 36.398264438987674
0.0 29.423507886893926 37.270751967011
0.0 30.174055688682156 38.11256605671522
0.0 30.897238713282228 38.923720923860024
0.0 31.593053516757344 39.70421945825154
0.0 32.26150252319781 40.454059625836486
0.0 32.90258806142402 41.1732394725025
0.0 33.51631236498644 41.861757124078245
0.0 34.10267757216561 42.51961078633328
0.0 34.661685725972156 43.14679874497817
0.0 35.19366203724936 43.74304811571424
0.0 35.69963488036548 44.30749598998838
0.0 36.18123614280005 44.8387730516184
0.0 36.639314753463594 45.33616696466857
0.0 37.07327589078209 45.80017684370227
0.0 37.48331418680843 46.230639373035714
0.0 37.87845110168864 46.61998464878768
0.0 38.258481839513564 46.96838451513
0.0 38.61657585999246 47.28157047590139
0.0 38.94807834276681 47.56344838914787
0.0 39.251810637824285 47.81500725966009
0.0 39.52889954740703 48.03530158809223
0.0 39.77835732145311 48.22516019515698
0.0 39.998227111433394 48.386225071733406
0.0 40.1868149290689 48.5199176427616
-0.7686761955390344 2.17449857072092 0.13348998531095768
-0.8409029948616161 3.72550265437651 1.751408423267807
-0.8940476007249757 5.220425896218078 3.3627632779016867
-0.9506443374492793 6.6951699413544485 4.937429492043129
-1.0210144815146838 8.148629596326243 6.476334433116275
-1.048631451549771 9.557425417162607 7.9990957839341945
-0.9920275022819518 10.90562295428037 9.519084135265148
-0.9074715353829097 12.177847789821604 11.04920015546328
-0.8388231939293685 13.40483315530779 12.563655601294037
-0.7803448823218929 14.602189117882663 14.049352071174452
-0.7251531968841737 15.771623253380383 15.504856738851874
-0.671766762046156 16.91554733931885 16.92814588270056
-0.6188683613166902 18.03072162664136 18.32193797495908
-0.5668565661826578 19.116082159178145 19.687125780857098
-0.5162677046190278 20.17227041960708 21.023171032516185
-0.4681223452427161 21.203599891680902 22.326454287310337
-0.42442582165628834 22.210566978076603 23.596559013936368
-0.3846819074085718 23.19226495199001 24.834246046521258
-0.3476243488905531 24.14811862573395 26.039998024841147
-0.3131098246080671 25.078169562131468 27.213780073546566
-0.28048746260446866 25.982488331528845 28.35553297708597
-0.2502235469699514 26.861065912393755 29.465264305423794
-0.2227998260917326 27.71390265976009 30.54297376065125
-0.19746739264611052 28.541067569310844 31.588603448516178
-0.17533279734900953 29.342533140011767 32.60217644512627
-0.15613374469432648 30.118344228703876 33.58365511112278
-0.13998404755873647 30.868524801870276 34.53301933623856
-0.12578653595324127 31.593138141068497 35.45021602094205
-0.11250427274737486 32.29223089203204 36.33520602481547
-0.10008179164308317 32.96581222479145 37.18798165328955
-0.08845752889585208 33.61388880393363 38.00853731411189
-0.07764231497362577 34.23646411609609 38.79687008164625
-0.06766212708627829 34.83354151807554 39.55297713920572
-0.0584684819534103 35.40512600036469 40.27685429926974
-0.050013688763705585 35.95122207292952 40.9684977775275
-0.042252254921319045 36.471833769484526 41.62790418929067
-0.03513536582041269 36.96671241896566 42.255282194357356
-0.028615518964613278 37.43505775000882 42.851303300134035
-0.022687693716904638 37.874718531538996 43.417772603822335
-0.017408965386693863 38.28458205680811 43.95562377724415
-0.013252482528008399 38.66645931721849 44.463337218181735
-0.010166684094042405 39.020257786265596 44.94099056559093
-0.00760098697125575 39.33528663349228 45.397554491365284
-0.005464879873870877 39.61151095666701 45.833058281954415
-0.0039015967321000085 39.856987580119714 46.24074145903464
-0.002883995165670249 40.07704920811714 46.61612935242252
-0.0022477517166190047 40.272639967730946 46.95842974544046
-0.00179874084072329 40.441736491822724 47.26934044470803
-0.0014595970466816986 40.585147355369514 47.548182975260225
-0.0012027506489664258 40.70501032490581 47.79316353798641
-0.0010073243559101815 40.80317598993317 48.00272930391834
-0.603592196400244 2.2981970709691146 1.4893773156288694
-0.6506064733449719 3.770642255335669 3.146403998502228
-0.6917594768153456 5.21065107728055 4.777027024115121
-0.7393720571114861 6.627128823479799 6.373773969702155
-0.7761172248991705 8.014395728722892 7.94141072415665
-0.7652471076868961 9.364172140247414 9.486884741057827
-0.712312139124323 10.668401189909346 11.016956535493774
-0.6548605234921042 11.92898911475694 12.530026584660371
-0.607188028594223 13.15681828110535 14.016963498996233
-0.564561779702275 14.356519329728629 15.473881709535737
-0.5238449845988737 15.529695567442827 16.899435882120876
-0.48398817126106725 16.676109539047864 18.29382526532245
-0.4446468478122555 17.79450040975934 19.65810782514303
-0.4061716015506322 18.884814532268894 20.992328577019286
-0.369146268698154 19.948239619932874 22.29549091111194
-0.3347055625871267 20.986050474258395 23.56652514194656
-0.3034153983993225 21.998137624824327 24.805523126113137
-0.27461484611217185 22.984139644962713 26.01278813659546
-0.24777531506198255 23.943937762381942 27.1884198351796
-0.22259898270470088 24.877573980724417 28.33238297662473
-0.19901662859040753 25.7850713357524 29.44465823163121
-0.1773837648981315 26.666426533739134 30.525248363963957
-0.15760020702669117 27.521665538666724 31.574131587255152
-0.13980007124817 28.350803869744876 32.59129487934166
-0.124299953266251 29.153847995370665 33.5767328125939
-0.11104417209489861 29.930823685513303 34.53042376344018
-0.09966396881699166 30.681763620663812 35.45234030969256
-0.08935905326273105 31.40670883435971 36.34244802012484
-0.07971977414642176 32.105677969054355 37.200731251861285
-0.07070224520210072 32.77867441452685 38.027187160539484
-0.06228744145105419 33.42570185000553 38.8218126589203
-0.05448916577246402 34.04676343589209 39.58460509511186
-0.04729897838988322 34.641862872716395 40.31556136400089
-0.04068081401891846 35.211004269629335 41.0146780176004
-0.03459972888188424 35.75419135317249 41.68195192897075
-0.029020357778149403 36.271373291071505 42.31742575145456
-0.023906581794384738 36.762325928067284 42.9212875736471
-0.019238704755569217 37.226274983476124 43.49418709418448
-0.015036247163849435 37.66230658266311 44.0368911449358
-0.011498042968013347 38.070714345790684 44.549153349331064
-0.00878218748326905 38.45209267350535 45.030474946007
-0.006662876649486808 38.80354981847133 45.4832823990865
-0.004899700066922485 39.12216571396001 45.910025935484605
-0.0035124287272390825 39.41006916373327 46.30891927674982
-0.0025445969616638467 39.67084557093373 46.67695391242759
-0.0019244050808584702 39.90611956351692 47.01276661779961
-0.0015174347090033604 40.11547994548654 47.31670242727472
-0.0012218767077768707 40.29848855130461 47.58912900539425
-0.0009983803858680466 40.455882184214055 47.82942810082878
-0.0008287781268287279 40.588700123127396 48.03672765502616

CELLS 100 350
4 0 51 52 1
4 1 52 53 2
4 2 53 54 3
4 3 54 55 4
4 4 55 56 5
4 5 56 57 6
4 6 57 58 7
4 7 58 59 8
4 8 59 60 9
4 9 60 61 10
4 10 61 62 11
4 11 62 63 12
4 12 63 64 13
4 13 64 65 14
4 14 65 66 15
4 15 66 67 16
4 16 67 68 17
4 17 68 69 18
4 18 69 70 19
4 19 70 71 20
4 20 71 72 21
4 21 72 73 22
4 22 73 74 23
4 23 74 75 24
4 24 75 76 25
4 25 76 77 26
4 26 77 78 27
4 27 78 79 28
4 28 79 80 29
4 29 80 81 30
4 30 81 82 31
4 31 82 83 32
4 32 83 84 33
4 33 84 85 34
4 34 85 86 35
4 35 86 87 36
4 36 87 88 37
4 37 88 89 38
4 38 89 90 39
4 39 90 91 40
4 40 91 92 41
4 41 92 93 42
4 42 93 94 43
4 43 94 95 44
4 44 95 96 45
4 45 96 97 46
4 46 97 98 47
4 47 98 99 48
4 48 99 100 49
4 49 100 101 50
1 102
1 103
1 104
1 105
1 106
1 107
1 108
1 109
1 110
1 111
1 112
1 113
1 114
1 115
1 116
1 117
1 118
1 119
1 120
1 121
1 122
1 123
1 124
1 125
1 126
1 127
1 128
1 129
1 130
1 131
1 132
1 133
1 134
1 135
1 136
1 137
1 138
1 139
1 140
1 141
1 142
1 143
1 144
1 145
1 146
1 147
1 148
1 149
1 150
1 151

CELL_TYPES 100
9
9
9
9
9
9
9
9
9
9
9
9
9
9
9
9
9
9
9
9
9
9
9
9
9
9
9
9
9
9
9
9
9
9
9
9
9
9
9
9
9
9
9
9
9
9
9
9
9
9
1
1
1
1
1
1
1
1
1
1
1
1
1
1
1
1
1
1
1
1
1
1
1
1
1
1
1
1
1
1
1
1
1
1
1
1
1
1
1
1
1
1
1
1
1
1
1
1
1
1

CELL_DATA 100

VECTORS S float
-1.3971887343405608e-17 2.694867163430711e-15 2.3150097713321133e-15
3.855244371405202e-17 -5.4031415982709425e-15 -4.614290033392197e-15
9.751786379661621e-17 -1.0816327274797977e-14 -9.216612516932726e-15
0.0 0.0 0.0
0.0 0.0 0.0
8.49586810752745e-17 2.1505980315779956e-14 1.8581688825995094e-14
-7.278809595399e-17 -2.1523557324401503e-14 -1.8561377883729583e-14
6.810839383114353e-17 2.1535590037505626e-14 1.8547433513278708e-14
6.98190893814549e-17 2.154363711648311e-14 1.853807951310937e-14
0.0 0.0 0.0
7.863330643337822e-17 2.1563090071031255e-14 1.8515413318044747e-14
0.0 0.0 0.0
0.0 0.0 0.0
1.5814797644196372e-16 4.313366900575334e-14 3.7022099550200085e-14
-1.45123259767903e-16 -4.3143739636346055e-14 -3.701041660419296e-14
-2.0562629671448224e-16 -6.472856623397056e-14 -5.550056336324368e-14
6.325646345377402e-17 2.1580487352310044e-14 1.8495192110463023e-14
5.972735498292531e-17 2.1584303727116462e-14 1.849074990921053e-14
5.5206569003156635e-17 2.158809034013164e-14 1.8486342922475768e-14
0.0 0.0 0.0
-5.0673672619731506e-17 -2.1594529337819097e-14 -1.8478833886457488e-14
-4.656169977318973e-17 -2.1597781802992714e-14 -1.847504317030808e-14
0.0 0.0 0.0
0.0 0.0 0.0
0.0 0.0 0.0
-7.238327581995405e-17 -4.324235951163496e-14 -3.689535705631752e-14
-3.4871441847736356e-17 -2.162215792143687e-14 -1.8446534572902967e-14
0.0 0.0 0.0
3.2901770602530336e-17 2.1624105998469335e-14 1.844425450341569e-14
-3.49783336701982e-17 -2.1611752391192383e-14 -1.8458724279978834e-14
0.0 0.0 0.0
6.560792311489403e-17 4.323352020000338e-14 3.690572712332854e-14
3.2170428205161916e-17 2.161904989168836e-14 1.8450181944646364e-14
3.1054247437003996e-17 2.1621485297517257e-14 1.8447329782634594e-14
3.028246598949212e-17 2.162381864795263e-14 1.8444595875188637e-14
2.966100462289911e-17 2.16260700728786e-14 1.8441957064641092e-14
0.0 0.0 0.0
0.0 0.0 0.0
2.7624825630619558e-17 2.1632417179783144e-14 1.8434514660688743e-14
5.4026842113541155e-17 4.326874192324697e-14 3.6864445218462805e-14
5.332589448733122e-17 4.3272426076182147e-14 3.68601216169398e-14
-2.5997278140257057e-17 -2.1637995229202915e-14 -1.842796932786782e-14
0.0 0.0 0.0
0.0 0.0 0.0
0.0 0.0 0.0
-2.4139033019307757e-17 -2.1644036106349086e-14 -1.842087634398695e-14
2.37647456309864e-17 2.1645252274024676e-14 1.8419447770685487e-14
0.0 0.0 0.0
-1.1630881222524009e-17 -1.0823476379903026e-14 -9.208724966729235e-15
0.0 0.0 0.0
-1.3971887343405608e-17 2.694867163430711e-15 2.3150097713321133e-15
3.855244371405202e-17 -5.4031415982709425e-15 -4.614290033392197e-15
9.751786379661621e-17 -1.0816327274797977e-14 -9.216612516932726e-15
0.0 0.0 0.0
0.0 0.0 0.0
8.49586810752745e-17 2.1505980315779956e-14 1.8581688825995094e-14
-7.278809595399e-17 -2.1523557324401503e-14 -1.8561377883729583e-14
6.810839383114353e-17 2.1535590037505626e-14 1.8547433513278708e-14
6.98190893814549e-17 2.154363711648311e-14 1.853807951310937e-14
0.0 0.0 0.0
7.863330643337822e-17 2.1563090071031255e-14 1.8515413318044747e-14
0.0 0.0 0.0
0.0 0.0 0.0
1.5814797644196372e-16 4.313366900575334e-14 3.7022099550200085e-14
-1.45123259767903e-16 -4.3143739636346055e-14 -3.701041660419296e-14
-2.0562629671448224e-16 -6.472856623397056e-14 -5.550056336324368e-14
6.325646345377402e-17 2.1580487352310044e-14 1.8495192110463023e-14
5.972735498292531e-17 2.1584303727116462e-14 1.849074990921053e-14
5.5206569003156635e-17 2.158809034013164e-14 1.8486342922475768e-14
0.0 0.0 0.0
-5.0673672619731506e-17 -2.1594529337819097e-14 -1.8478833886457488e-14
-4.656169977318973e-17 -2.1597781802992714e-14 -1.847504317030808e-14
0.0 0.0 0.0
0.0 0.0 0.0
0.0 0.0 0.0
-7.238327581995405e-17 -4.324235951163496e-14 -3.689535705631752e-14
-3.4871441847736356e-17 -2.162215792143687e-14 -1.8446534572902967e-14
0.0 0.0 0.0
3.2901770602530336e-17 2.1624105998469335e-14 1.844425450341569e-14
-3.49783336701982e-17 -2.1611752391192383e-14 -1.8458724279978834e-14
0.0 0.0 0.0
6.560792311489403e-17 4.323352020000338e-14 3.690572712332854e-14
3.2170428205161916e-17 2.161904989168836e-14 1.8450181944646364e-14
3.1054247437003996e-17 2.1621485297517257e-14 1.8447329782634594e-14
3.028246598949212e-17 2.162381864795263e-14 1.8444595875188637e-14
2.966100462289911e-17 2.16260700728786e-14 1.8441957064641092e-14
0.0 0.0 0.0
0.0 0.0 0.0
2.7624825630619558e-17 2.1632417179783144e-14 1.8434514660688743e-14
5.4026842113541155e-17 4.326874192324697e-14 3.6864445218462805e-14
5.332589448733122e-17 4.3272426076182147e-14 3.68601216169398e-14
-2.5997278140257057e-17 -2.1637995229202915e-14 -1.842796932786782e-14
0.0 0.0 0.0
0.0 0.0 0.0
0.0 0.0 0.0
-2.4139033019307757e-17 -2.1644036106349086e-14 -1.842087634398695e-14
2.37647456309864e-17 2.1645252274024676e-14 1.8419447770685487e-14
0.0 0.0 0.0
-1.1630881222524009e-17 -1.0823476379903026e-14 -9.208724966729235e-15
0.0 0.0 0.0

SCALARS Gamma float
LOOKUP_TABLE default
-0.0
-0.0
-0.0
52.153224501766076
56.19052806003027
56.142137604611555
53.7161327751988
48.824624438046385
45.55557593461073
48.457859172854334
55.42393158959051
55.98604608620732
52.41392213844551
47.681612700917846
46.709326455444824
45.95239268790398
42.3991876151525
40.21341524581987
35.53835985398707
35.98037452484878
35.406838135265794
36.90817894893293
38.39217179932647
36.203931762321886
38.22240783304383
39.50384626597098
39.55585749965439
39.609866339662496
39.76790237486073
40.043403402677804
40.34357407652736
40.60971819377571
38.55732205876949
38.84149177232905
39.130633681963815
39.41106836473237
39.63623589986188
41.99021036566509
41.8765446308548
41.46618303583165
40.70046413194835
39.422465241894265
37.31835700042401
34.62071886355801
31.896546485936852
29.188935744534042
26.291259038516205
23.4966668612113
20.672126819600052
18.058482145637868
-0.0
-0.0
-0.0
52.153224501766076
56.19052806003027
56.142137604611555
53.7161327751988
48.824624438046385
45.55557593461073
48.457859172854334
55.42393158959051
55.98604608620732
52.41392213844551
47.681612700917846
46.709326455444824
45.95239268790398
42.3991876151525
40.21341524581987
35.53835985398707
35.98037452484878
35.406838135265794
36.90817894893293
38.39217179932647
36.203931762321886
38.22240783304383
39.50384626597098
39.55585749965439
39.609866339662496
39.76790237486073
40.043403402677804
40.34357407652736
40.60971819377571
38.55732205876949
38.84149177232905
39.130633681963815
39.41106836473237
39.63623589986188
41.99021036566509
41.8765446308548
41.46618303583165
40.70046413194835
39.422465241894265
37.31835700042401
34.62071886355801
31.896546485936852
29.188935744534042
26.291259038516205
23.4966668612113
20.672126819600052
18.058482145637868

VECTORS Ftot float
118.53046694060711 -25.85463949677782 30.812359505513086
142.49646041551466 -57.2516235628977 68.22982806293457
145.635257000647 -84.73578065488361 100.98417101673238
1314.071304931853 5.6306150121534415 -6.710305669248746
1342.220840309285 147.7183130434506 -176.04383026148818
1434.796550643375 190.81986877243486 -227.41026414790466
1512.8898268321025 184.44651367778187 -219.81479531697335
1498.5163719256507 179.56553022630516 -213.99786575328307
1507.336154786013 191.6306806001827 -228.37655205654104
1710.5729988079547 248.59078485825162 -296.2589609406353
2086.378080584817 326.3421370203497 -388.9194142088732
2243.7572145533895 362.24560650787964 -431.7075029572336
2227.3466175124645 369.4757917528933 -440.32410219810015
2148.744067276748 344.10321942496313 -410.08624797293305
2226.322217813607 335.3107619822163 -399.60780522780783
2303.982311928878 334.94729526320964 -399.17464245964317
2231.155386469137 306.000793759696 -364.67754529979715
2211.632834571022 292.1719004278033 -348.1969119899119
2038.7552347459039 254.02610758901514 -302.7365263319317
2144.7323309972894 259.76895010908527 -309.58057953692804
2187.3784553294454 259.16713240218553 -308.8633611226435
2361.711024760533 261.87367827079635 -312.08889688508145
2535.3279356978132 275.69290067641214 -328.5580048338324
2462.4956111017877 262.74477958851986 -313.12703500999197
2673.5434852217195 280.57676342988594 -334.37836581602187
2839.9936424447474 282.44553455790805 -336.60548052157856
2916.4005249483803 281.27399124475727 -335.20928956925144
2990.114916774031 282.0196242072659 -336.09790033107777
3069.684024283687 282.98649104880775 -337.2501673630454
3154.7142668601155 285.50336994107425 -340.24966682502856
3241.638815921526 288.49052451659395 -343.80961902203836
3324.1821391894614 291.1735543755506 -347.00712949548756
3211.1561091853387 279.9416404189709 -333.62145568602466
3288.8090405532225 281.2096856823536 -335.13265318423305
3364.62313412131 284.9289189921186 -339.56506284284154
3437.743668446213 289.51550608447235 -345.0311444879003
3504.7993425798436 291.11245547267595 -346.93431465848306
3759.9235134981363 310.94651032154724 -370.571620780336
3794.3312185417335 311.04857533073704 -370.69325712171616
3798.7146825259656 308.80934046707176 -368.02464092828086
3766.2637314500435 306.27138034945415 -365.00001784024926
3682.9038170880804 295.8728756729733 -352.60756253444555
3517.498451329433 277.18893383190556 -330.3409077215317
3289.340959066252 257.2076170069044 -306.5281016105736
3052.528597114531 237.16406401515485 -282.64112532430363
2811.200808279292 219.5328158508997 -261.62902198263254
2546.999170907744 197.68324624733148 -235.58971891094288
2288.1363811064098 176.51087898249924 -210.35747415935504
2022.0656614146594 155.69464750820384 -185.54965551559084
1773.224744904706 135.87288188402516 -161.92699512141553
118.53046694060711 -25.85463949677782 30.812359505513086
142.49646041551466 -57.2516235628977 68.22982806293457
145.635257000647 -84.73578065488361 100.98417101673238
1314.071304931853 5.6306150121534415 -6.710305669248746
1342.220840309285 147.7183130434506 -176.04383026148818
1434.796550643375 190.81986877243486 -227.41026414790466
1512.8898268321025 184.44651367778187 -219.81479531697335
1498.5163719256507 179.56553022630516 -213.99786575328307
1507.336154786013 191.6306806001827 -228.37655205654104
1710.5729988079547 248.59078485825162 -296.2589609406353
2086.378080584817 326.3421370203497 -388.9194142088732
2243.7572145533895 362.24560650787964 -431.7075029572336
2227.3466175124645 369.4757917528933 -440.32410219810015
2148.744067276748 344.10321942496313 -410.08624797293305
2226.322217813607 335.3107619822163 -399.60780522780783
2303.982311928878 334.94729526320964 -399.17464245964317
2231.155386469137 306.000793759696 -364.67754529979715
2211.632834571022 292.1719004278033 -348.1969119899119
2038.7552347459039 254.02610758901514 -302.7365263319317
2144.7323309972894 259.76895010908527 -309.58057953692804
2187.3784553294454 259.16713240218553 -308.8633611226435
2361.711024760533 261.87367827079635 -312.08889688508145
2535.3279356978132 275.69290067641214 -328.5580048338324
2462.4956111017877 262.74477958851986 -313.12703500999197
2673.5434852217195 280.57676342988594 -334.37836581602187
2839.9936424447474 282.44553455790805 -336.60548052157856
2916.4005249483803 281.27399124475727 -335.20928956925144
2990.114916774031 282.0196242072659 -336.09790033107777
3069.684024283687 282.98649104880775 -337.2501673630454
3154.7142668601155 285.50336994107425 -340.24966682502856
3241.638815921526 288.49052451659395 -343.80961902203836
3324.1821391894614 291.1735543755506 -347.00712949548756
3211.1561091853387 279.9416404189709 -333.62145568602466
3288.8090405532225 281.2096856823536 -335.13265318423305
3364.62313412131 284.9289189921186 -339.56506284284154
3437.743668446213 289.51550608447235 -345.0311444879003
3504.7993425798436 291.11245547267595 -346.93431465848306
3759.9235134981363 310.94651032154724 -370.571620780336
3794.3312185417335 311.04857533073704 -370.69325712171616
3798.7146825259656 308.80934046707176 -368.02464092828086
3766.2637314500435 306.27138034945415 -365.00001784024926
3682.9038170880804 295.8728756729733 -352.60756253444555
3517.498451329433 277.18893383190556 -330.3409077215317
3289.340959066252 257.2076170069044 -306.5281016105736
3052.528597114531 237.16406401515485 -282.64112532430363
2811.200808279292 219.5328158508997 -261.62902198263254
2546.999170907744 197.68324624733148 -235.58971891094288
2288.1363811064098 176.51087898249924 -210.35747415935504
2022.0656614146594 155.69464750820384 -185.54965551559084
1773.224744904706 135.87288188402516 -161.92699512141553

VECTORS D float
94.04550725848492 21.080515231198543 -23.971905319542408
62.42738109524268 25.60077997311647 -29.455866480312498
14.459803512411135 8.565260112574123 -9.898926232855047
553.8215427583832 426.8877221847094 -494.50122711816806
540.9838186197611 511.36415605084346 -593.2433235701865
495.1115684694274 552.2924955943685 -641.4732092581698
427.20439618291095 547.3898177480146 -636.422122844084
358.844095102242 517.6578465794565 -602.3748488214071
318.7455766504805 509.7006640530267 -593.5383253974104
334.28998266225335 585.2753344469687 -681.9523033492605
375.37057990032235 712.2211656659613 -831.048462773948
369.8552762303709 755.5590991336879 -881.0558056614045
339.82450860611453 740.835682249701 -864.196944602532
297.1774346430509 687.3066686986699 -802.0359926580105
277.4315869755492 677.2589259271449 -790.5813343247187
263.30666490729595 675.4813630250685 -788.7682623016077
232.48222722105567 624.3405692107906 -729.2857343864433
213.11488783159476 597.1041864539828 -697.6897621273388
180.62180051875126 526.3770715697393 -615.2351133813168
177.82471887308864 537.5618928631919 -628.4926508043735
170.80744931344012 534.2957296938642 -624.8511308484237
170.66678245362516 551.1662499938794 -644.757082850636
173.78148138332358 578.2192249791503 -676.5817401094686
160.83173773353258 549.1467356386424 -643.8170820895973
166.7154617790211 584.3955869170508 -685.1938496264286
166.588640168405 598.4643102275587 -701.7432315321431
163.0411847736698 599.2987417688616 -702.7779373195419
160.28733407582743 601.9089805430149 -705.8980855353618
158.0780172314316 605.5637352126528 -710.2469467281364
156.87680083856748 612.2363289415342 -717.1127882016922
155.9293285614415 618.9814394623573 -725.2005078228599
155.00191300852063 625.1253554494104 -732.5838330077931
146.16026762433174 598.1332654125431 -701.1190992065982
145.33730037346734 602.9604988351657 -706.954071657155
145.21433563938496 610.1619051812596 -715.5715376482342
145.37546891867515 618.098275186554 -725.0504133968764
144.8482644761905 622.646716587423 -730.553522214232
152.7130916504307 663.1624611342036 -778.263626580887
151.3140599046963 663.3020187531665 -778.5941900053753
148.9259792751077 658.5392288082791 -773.162589836932
145.89110432639447 650.3176764437455 -763.6600781221028
140.2795625817302 629.9367910017467 -739.8653602370928
131.43195672021096 594.2122674678537 -698.0301632400476
121.32308854481879 551.905263081032 -648.439171343651
111.30283948529255 509.16529769317737 -598.3158478719454
101.95907125190816 468.7792650155243 -550.9366841064634
91.48525497720276 422.521131549041 -496.6354432111426
81.49435298454914 377.7809431459277 -444.082021834014
71.57638193369506 332.9566742698553 -391.43108398944094
62.345580742367936 290.875236901364 -341.9893512055966
94.04550725848492 21.080515231198543 -23.971905319542408
62.42738109524268 25.60077997311647 -29.455866480312498
14.459803512411135 8.565260112574123 -9.898926232855047
553.8215427583832 426.8877221847094 -494.50122711816806
540.9838186197611 511.36415605084346 -593.2433235701865
495.1115684694274 552.2924955943685 -641.4732092581698
427.20439618291095 547.3898177480146 -636.422122844084
358.844095102242 517.6578465794565 -602.3748488214071
318.7455766504805 509.7006640530267 -593.5383253974104
334.28998266225335 585.2753344469687 -681.9523033492605
375.37057990032235 712.2211656659613 -831.048462773948
369.8552762303709 755.5590991336879 -881.0558056614045
339.82450860611453 740.835682249701 -864.196944602532
297.1774346430509 687.3066686986699 -802.0359926580105
277.4315869755492 677.2589259271449 -790.5813343247187
263.30666490729595 675.4813630250685 -788.7682623016077
232.48222722105567 624.3405692107906 -729.2857343864433
213.11488783159476 597.1041864539828 -697.6897621273388
180.62180051875126 526.3770715697393 -615.2351133813168
177.82471887308864 537.5618928631919 -628.4926508043735
170.80744931344012 534.2957296938642 -624.8511308484237
170.66678245362516 551.1662499938794 -644.757082850636
173.78148138332358 578.2192249791503 -676.5817401094686
160.83173773353258 549.1467356386424 -643.8170820895973
166.7154617790211 584.3955869170508 -685.1938496264286
166.588640168405 598.4643102275587 -701.7432315321431
163.0411847736698 599.2987417688616 -702.7779373195419
160.28733407582743 601.9089805430149 -705.8980855353618
158.0780172314316 605.5637352126528 -710.2469467281364
156.87680083856748 612.2363289415342 -717.1127882016922
155.9293285614415 618.9814394623573 -725.2005078228599
155.00191300852063 625.1253554494104 -732.5838330077931
146.16026762433174 598.1332654125431 -701.1190992065982
145.33730037346734 602.9604988351657 -706.954071657155
145.21433563938496 610.1619051812596 -715.5715376482342
145.37546891867515 618.098275186554 -725.0504133968764
144.8482644761905 622.646716587423 -730.553522214232
152.7130916504307 663.1624611342036 -778.263626580887
151.3140599046963 663.3020187531665 -778.5941900053753
148.9259792751077 658.5392288082791 -773.162589836932
145.89110432639447 650.3176764437455 -763.6600781221028
140.2795625817302 629.9367910017467 -739.8653602370928
131.43195672021096 594.2122674678537 -698.0301632400476
121.32308854481879 551.905263081032 -648.439171343651
111.30283948529255 509.16529769317737 -598.3158478719454
101.95907125190816 468.7792650155243 -550.9366841064634
91.48525497720276 422.521131549041 -496.6354432111426
81.49435298454914 377.7809431459277 -444.082021834014
71.57638193369506 332.9566742698553 -391.43108398944094
62.345580742367936 290.875236901364 -341.9893512055966

VECTORS L float
24.484959682122206 -46.935154727976375 54.784264825055494
80.069079320272 -82.85240353601418 97.68569454324707
131.1754534882359 -93.30104076745774 110.88309724958745
760.2497621734701 -421.257107172556 487.7909214489195
801.2370216895239 -363.64584300739295 417.1994933086984
939.6849821739477 -361.4726268219337 414.0629451102655
1085.6854306491916 -362.94330407023295 416.60732752711084
1139.6722768234085 -338.09231635315126 388.37698306812393
1188.5905781355327 -318.0699834528441 365.16177334086956
1376.2830161457014 -336.684549588717 385.69334240862514
1711.0075006844947 -385.8790286456115 442.12904856507487
1873.9019383230184 -393.31349262580784 449.3483027041705
1887.52210890635 -371.35989049680774 423.8728424044319
1851.566632633697 -343.2034492737069 391.94974468507763
1948.890630838058 -341.9481639449286 390.9735290969109
2040.6756470215819 -340.53406776185886 389.59361984196454
1998.6731592480812 -318.33977545109457 364.6081890866463
1998.5179467394275 -304.93228602617944 349.4928501374269
1858.1334342271525 -272.35096398072426 312.4985870493852
1966.907612124201 -277.7929427541067 318.9120712674455
2016.5710060160059 -275.1285972916787 315.98776972578025
2191.0442423069076 -289.29257172308303 332.6681859655546
2361.546454314491 -302.52632430273826 348.02373527563634
2301.6638733682557 -286.40195605012275 330.6900470796055
2506.828023442699 -303.81882348716493 350.8154838104068
2673.4050022763427 -316.01877566965067 365.13775101056444
2753.3593401747107 -318.0247505241046 367.5686477502907
2829.8275826982035 -319.8893563357489 369.800185204284
2911.6060070522567 -322.5772441638452 372.9967793650911
2997.8374660215486 -326.73295900045986 376.86312137666346
3085.7094873600854 -330.4909149457634 381.39088880082176
3169.1802261809403 -333.9518010738599 385.57670351230576
3064.9958415610076 -318.1916249935722 367.49764352057355
3143.4717401797557 -321.75081315281216 371.82141847292223
3219.408798481925 -325.2329861891409 376.0064748053926
3292.3681995275383 -328.58276910208144 380.01926890897596
3359.9510781036547 -331.5342611147471 383.6192075557489
3607.210421847705 -352.21595081265616 407.692005800551
3643.017158637038 -352.25344342242954 407.9009328836592
3649.7887032508584 -349.72988834120713 405.1379489086511
3620.3726271236496 -344.04629609429145 398.66006028185376
3542.624254506351 -334.06391532877336 387.2577977026471
3386.0664946092224 -317.0233336359481 367.68925551851584
3168.0178705214335 -294.69764607412753 341.9110697330773
2941.225757629238 -272.00123367802246 315.67472254764164
2709.2417370273834 -249.24644916462455 289.3076621238309
2455.5139159305413 -224.83788530170952 261.04572430019965
2206.642028121861 -201.27006416342851 233.7245476746589
1950.4892794809653 -177.26202676165144 205.8814284738501
1710.8791641623382 -155.00235501733894 180.06235608418118
24.484959682122206 -46.935154727976375 54.784264825055494