# vtk DataFile Version 4.0
[MyVLM domain - lattices] 
ASCII
DATASET UNSTRUCTURED_GRID
POINTS 152 float
0.0 -0.837349995179893 -2.0851063963073666
0.0 -2.8865351954842913 -2.9937061705550487
0.0 -4.909394944633987 -3.8545361425842066
0.0 -6.891247532665075 -4.7079339789996535
0.0 -8.83197531574343 -5.55422290357919
0.0 -10.74420430429299 -6.35871323778524
0.0 -12.638393266438953 -7.092669752358513
0.0 -14.51724180952674 -7.748675337076082
0.0 -16.364287026576505 -8.371961457123643
0.0 -18.17278805718881 -8.98104847423634
0.0 -19.942829791765448 -9.575703153952135
0.0 -21.674536466602174 -10.15558415985376
0.0 -23.368044709041595 -10.720316111402518
0.0 -25.024478934092464 -11.26680970375178
0.0 -26.64308898133995 -11.797125985702237
0.0 -28.222230476699167 -12.315782837921278
0.0 -29.76165864565819 -12.82345277285324
0.0 -31.26177685488171 -13.319027549695138
0.0 -32.72287570816425 -13.801708741083548
0.0 -34.144955121706495 -14.271496577255139
0.0 -35.52801501394713 -14.728391282297817
0.0 -36.87205530556279 -15.172393074150738
0.0 -38.17707591946806 -15.603502164604308
0.0 -39.44307678081552 -16.02171875930017
0.0 -40.67005781699567 -16.427043057731222
0.0 -41.858018957637015 -16.81947525324161
0.0 -43.006960134606004 -17.199015533026714
0.0 -44.11688128200706 -17.56566407813317
0.0 -45.18778178996232 -17.919422564186576
0.0 -46.21965409442406 -18.260311773237326
0.0 -47.21249665775853 -18.58833592989934
0.0 -48.1663105622629 -18.90349206058564
0.0 -49.081096847698625 -19.205777308575108
0.0 -49.956856511291456 -19.495188934012486
0.0 -50.79359050773145 -19.771724313908386
0.0 -51.591299749173004 -20.035380942139284
0.0 -52.35012943431863 -20.285759888548604
0.0 -53.07053870721928 -20.52159966522407
0.0 -53.75325616579728 -20.740898465826326
0.0 -54.398660836087274 -20.942614924883753
0.0 -55.006487144777125 -21.127478699074622
0.0 -55.57682199032713 -21.295251036841528
0.0 -56.113693234462374 -21.434865479046074
0.0 -56.617009440808864 -21.546573245061168
0.0 -57.083720939872585 -21.63875323295838
0.0 -57.511749467996026 -21.717115425208398
0.0 -57.90056878672166 -21.783105650090558
0.0 -58.25068198574331 -21.835341680031057
0.0 -58.561648058771105 -21.875035169853216
0.0 -58.83259332070698 -21.904586549635663
0.0 -59.062761447137696 -21.926073803625577
-0.7686761955390344 -1.949915995392729 0.9716435669303497
-0.8409029948616161 -4.10208415219028 0.3459871402362844
-0.8940476007249757 -6.202403083649789 -0.30202547746724395
-0.9506443374492793 -8.266901997888413 -0.9283543988266052
-1.0210144815146838 -10.295087453006307 -1.5343553443194389
-1.048631451549771 -12.276521098004894 -2.1487074476106747
-0.9920275022819518 -14.20408859013395 -2.7909572047608147
-0.9074715353829097 -16.070925627137186 -3.4799641312193166
-0.8388231939293685 -17.89075384663532 -4.178028337465337
-0.7803448823218929 -19.670542762538123 -4.866001241407192
-0.7251531968841737 -21.411054765770537 -5.541788191193795
-0.671766762046156 -23.11336665611847 -6.20243070372812
-0.6188683613166902 -24.776031964716218 -6.851902919556603
-0.5668565661826578 -26.398575661107078 -7.4915099741326205
-0.5162677046190278 -27.98128415164696 -8.120464972460491
-0.4681223452427161 -29.526083301531546 -8.733476643402174
-0.42442582165628834 -31.033194742438027 -9.329936058929151
-0.3846819074085718 -32.50221364298318 -9.91095548412553
-0.3476243488905531 -33.93288319590605 -10.477240491141924
-0.3131098246080671 -35.325221957992504 -11.02874009562819
-0.28048746260446866 -36.6792614371794 -11.565367730239265
-0.2502235469699514 -37.9949976055728 -12.087134461522805
-0.2227998260917326 -39.272430621686645 -12.594039853965295
-0.19746739264611052 -40.51159129040911 -13.085999271832133
-0.17533279734900953 -41.71246733319974 -13.563046450135923
-0.15613374469432648 -42.87507877754301 -14.025126363815302
-0.13998404755873647 -43.99943632388857 -14.47220961362649
-0.12578653595324127 -45.08556822590703 -14.904218573247466
-0.11250427274737486 -46.133495309779704 -15.32109602321536
-0.10008179164308317 -47.14322166970137 -15.722830714822436
-0.08845752889585208 -48.11475028124737 -16.10941447274263
-0.07764231497362577 -49.04808270111626 -16.48084301998183
-0.06766212708627829 -49.943220428035815 -16.83711223881931
-0.0584684819534103 -50.800165690139195 -17.178216007509505
-0.050013688763705585 -51.61892050101612 -17.504148793760137
-0.042252254921319045 -52.39948666162165 -17.81490564948787
-0.03513536582041269 -53.141753146396184 -18.110791614910656
-0.028615518964613278 -53.84536265371173 -18.392788368183364
-0.022687693716904638 -54.50935471140872 -18.663534784876425
-0.017408965386693863 -55.13323252308732 -18.92439580188043
-0.013252482528008399 -55.71780465219911 -19.173149909369993
-0.010166684094042405 -56.26302978791853 -19.409910607905474
-0.00760098697125575 -56.76413473542895 -19.64779214246427
-0.005464879873870877 -57.221103911735995 -19.886837326971513
-0.0039015967321000085 -57.63753449222135 -20.117163003292177
-0.002883995165670249 -58.01580739915922 -20.332227641240497
-0.0022477517166190047 -58.35634416223925 -20.53087309751252
-0.00179874084072329 -58.65824139742816 -20.715581399340724
-0.0014595970466816986 -58.92186011371444 -20.885360682681064
-0.0012027506489664258 -59.148154771668985 -21.03758858866721
-0.0010073243559101815 -59.337951614328055 -21.169995033214118
-0.603592196400244 -2.7349857041766517 -0.14074005567031378
-0.6506064733449719 -4.838673980954811 -0.8395446656040164
-0.6917594768153456 -6.901069715239209 -1.5317012188081756
-0.7393720571114861 -8.926148900136582 -2.2062857640021227
-0.7761172248991705 -10.911375659133752 -2.8702655646443467
-0.7652471076868961 -12.853053329393559 -3.5337971184072776
-0.712312139124323 -14.747584715972387 -4.206763637171873
-0.6548605234921042 -16.595820907177593 -4.886826775031712
-0.607188028594223 -18.402620613910706 -5.560637333497197
-0.564561779702275 -20.17005130423503 -6.22251499074893
-0.5238449845988737 -21.89882881550433 -6.870492999821456
-0.48398817126106725 -23.58884712976848 -7.504862642638805
-0.4446468478122555 -25.23954331507549 -8.127170562027747
-0.4061716015506322 -26.85089341921182 -8.737482566154169
-0.369146268698154 -28.423427727196827 -9.334341708901437
-0.3347055625871267 -29.95771540678326 -9.916184214721062
-0.3034153983993225 -31.45370758210044 -10.483144368964053
-0.27461484611217185 -32.9112428849642 -11.035665527072632
-0.24777531506198255 -34.3302682864458 -11.573893384831129
-0.22259898270470088 -35.71080254014617 -12.097776417144415
-0.19901662859040753 -37.052855930970814 -12.607286366466845
-0.1773837648981315 -38.356426988351146 -13.10242727315242
-0.15760020702669117 -39.62152730457135 -13.583167287662095
-0.13980007124817 -40.84816380857972 -14.049487372866947
-0.124299953266251 -42.03633938835762 -14.501379594103312
-0.11104417209489861 -43.18606554956722 -14.93881233982421
-0.09966396881699166 -44.29735688324998 -15.361745521472717
-0.08935905326273105 -45.3702317098787 -15.770128803963525
-0.07971977414642176 -46.4046983528537 -16.16393931894216
-0.07070224520210072 -47.4007583256286 -16.543172908228982
-0.06228744145105419 -48.35841327088904 -16.907825058582294
-0.05448916577246402 -49.277664599677216 -17.25789189319552
-0.04729897838988322 -50.15851396418938 -17.593368872696754
-0.04068081401891846 -51.000963199061104 -17.914250956466226
-0.03459972888188424 -51.805013968102216 -18.220533573223964
-0.029020357778149403 -52.57064357594313 -18.512279077985433
-0.023906581794384738 -53.2977519427327 -18.78976243788184
-0.019238704755569217 -53.98599337104724 -19.053933448778718
-0.015036247163849435 -54.634959838171575 -19.30591314387258
-0.011498042968013347 -55.244782438340465 -19.545341344713705
-0.00878218748326905 -55.81572655693215 -19.771488910967822
-0.006662876649486808 -56.346501099353986 -19.987903095874604
-0.004899700066922485 -56.83580232709575 -20.198165891551824
-0.0035124287272390825 -57.28458069906919 -20.399665933601327
-0.0025445969616638467 -57.6944370102513 -20.588005073970596
-0.0019244050808584702 -58.06609661736414 -20.76119041144475
-0.0015174347090033604 -58.3993759314334 -20.91972635258517
-0.0012218767077768707 -58.69407932224278 -21.064150386993706
-0.0009983803858680466 -58.950535754453554 -21.19355869169171
-0.0008287781268287279 -59.16920924072948 -21.306676402363152

CELLS 100 350
4 0 51 52 1
4 1 52 53 2
4 2 53 54 3
4 3 54 55 4
4 4 55 56 5
4 5 56 57 6
4 6 57 58 7
4 7 58 59 8
4 8 59 60 9
4 9 60 61 10
4 10 61 62 11
4 11 62 63 12
4 12 63 64 13
4 13 64 65 14
4 14 65 66 15
4 15 66 67 16
4 16 67 68 17
4 17 68 69 18
4 18 69 70 19
4 19 70 71 20
4 20 71 72 21
4 21 72 73 22
4 22 73 74 23
4 23 74 75 24
4 24 75 76 25
4 25 76 77 26
4 26 77 78 27
4 27 78 79 28
4 28 79 80 29
4 29 80 81 30
4 30 81 82 31
4 31 82 83 32
4 32 83 84 33
4 33 84 85 34
4 34 85 86 35
4 35 86 87 36
4 36 87 88 37
4 37 88 89 38
4 38 89 90 39
4 39 90 91 40
4 40 91 92 41
4 41 92 93 42
4 42 93 94 43
4 43 94 95 44
4 44 95 96 45
4 45 96 97 46
4 46 97 98 47
4 47 98 99 48
4 48 99 100 49
4 49 100 101 50
1 102
1 103
1 104
1 105
1 106
1 107
1 108
1 109
1 110
1 111
1 112
1 113
1 114
1 115
1 116
1 117
1 118
1 119
1 120
1 121
1 122
1 123
1 124
1 125
1 126
1 127
1 128
1 129
1 130
1 131
1 132
1 133
1 134
1 135
1 136
1 137
1 138
1 139
1 140
1 141
1 142
1 143
1 144
1 145
1 146
1 147
1 148
1 149
1 150
1 151

CELL_TYPES 100
9
9
9
9
9
9
9
9
9
9
9
9
9
9
9
9
9
9
9
9
9
9
9
9
9
9
9
9
9
9
9
9
9
9
9
9
9
9
9
9
9
9
9
9
9
9
9
9
9
9
1
1
1
1
1
1
1
1
1
1
1
1
1
1
1
1
1
1
1
1
1
1
1
1
1
1
1
1
1
1
1
1
1
1
1
1
1
1
1
1
1
1
1
1
1
1
1
1
1
1

CELL_DATA 100

VECTORS S float
-0.0 -0.0 -0.0
-9.44242194887765e-18 -1.7466946440053219e-15 -3.231288940266853e-16
-2.4450099207463378e-17 -3.493935881886744e-15 -6.431086451364465e-16
6.854301218490999e-20 -4.362184580273958e-16 -8.323868381533638e-17
3.6243241633543636e-17 -1.3956271024931525e-14 -2.6776066258268114e-15
2.1350094833092498e-17 -6.9787638298332055e-15 -1.3354765123382522e-15
-1.856406723569192e-17 6.979930975790759e-15 1.3294047099168409e-15
0.0 -0.0 -0.0
1.811931044507414e-17 -6.981163279778533e-15 -1.3229243688909833e-15
-4.029704876847583e-17 1.3962875944930042e-14 2.6428891824920652e-15
4.257175111852054e-17 -1.3963445473294238e-14 -2.6398427788268867e-15
-4.3442194988419345e-17 1.3964020511056504e-14 2.6367851029363183e-15
0.0 -0.0 -0.0
4.151809132641316e-17 -1.3964625954750351e-14 -2.633607778046018e-15
-3.799009127906161e-17 1.3965438528976207e-14 2.629348813476535e-15
0.0 -0.0 -0.0
-3.31000751940616e-17 1.3966684464167795e-14 2.62278882107865e-15
3.1254535798278e-17 -1.3967176459555901e-14 -2.6201901912263182e-15
1.451909775598123e-17 -6.983814738769215e-15 -1.308899852737014e-15
-2.776186690212718e-17 1.396799490509408e-14 2.615863021373819e-15
0.0 -0.0 -0.0
2.491196672694467e-17 -1.3968620591563327e-14 -2.612548544897456e-15
2.4214737859036788e-17 -1.3968816716773997e-14 -2.611506254295538e-15
-2.343431002879054e-17 1.3969125362270678e-14 2.609861908771914e-15
2.2799784402737758e-17 -1.3969418390478875e-14 -2.608298629022522e-15
0.0 -0.0 -0.0
0.0 -0.0 -0.0
-1.974766574048858e-17 1.3970291335567196e-14 2.6036439398759937e-15
0.0 -0.0 -0.0
0.0 -0.0 -0.0
1.809770571424606e-17 -1.397100672231736e-14 -2.599814488495301e-15
0.0 -0.0 -0.0
0.0 -0.0 -0.0
0.0 -0.0 -0.0
0.0 -0.0 -0.0
0.0 -0.0 -0.0
-1.594692679106957e-17 1.3972368169134117e-14 2.5925017219420705e-15
0.0 -0.0 -0.0
1.54342198573575e-17 -1.3972894128240148e-14 -2.58966855068915e-15
0.0 -0.0 -0.0
0.0 -0.0 -0.0
-1.461490729453881e-17 1.3973628085919507e-14 2.585710010319281e-15
0.0 -0.0 -0.0
1.3941060705296298e-17 -1.3974070263684462e-14 -2.583322985810165e-15
6.8622624195353594e-18 -6.987134393272285e-15 -1.2911250186758777e-15
6.8403050001042795e-18 -6.9872240888552595e-15 -1.2906396385099343e-15
0.0 -0.0 -0.0
6.660161045854649e-18 -6.987375947871671e-15 -1.2898181807929597e-15
0.0 -0.0 -0.0
6.5354716825129094e-18 -6.9875020524983435e-15 -1.2891354808886848e-15
-0.0 -0.0 -0.0
-9.44242194887765e-18 -1.7466946440053219e-15 -3.231288940266853e-16
-2.4450099207463378e-17 -3.493935881886744e-15 -6.431086451364465e-16
6.854301218490999e-20 -4.362184580273958e-16 -8.323868381533638e-17
3.6243241633543636e-17 -1.3956271024931525e-14 -2.6776066258268114e-15
2.1350094833092498e-17 -6.9787638298332055e-15 -1.3354765123382522e-15
-1.856406723569192e-17 6.979930975790759e-15 1.3294047099168409e-15
0.0 -0.0 -0.0
1.811931044507414e-17 -6.981163279778533e-15 -1.3229243688909833e-15
-4.029704876847583e-17 1.3962875944930042e-14 2.6428891824920652e-15
4.257175111852054e-17 -1.3963445473294238e-14 -2.6398427788268867e-15
-4.3442194988419345e-17 1.3964020511056504e-14 2.6367851029363183e-15
0.0 -0.0 -0.0
4.151809132641316e-17 -1.3964625954750351e-14 -2.633607778046018e-15
-3.799009127906161e-17 1.3965438528976207e-14 2.629348813476535e-15
0.0 -0.0 -0.0
-3.31000751940616e-17 1.3966684464167795e-14 2.62278882107865e-15
3.1254535798278e-17 -1.3967176459555901e-14 -2.6201901912263182e-15
1.451909775598123e-17 -6.983814738769215e-15 -1.308899852737014e-15
-2.776186690212718e-17 1.396799490509408e-14 2.615863021373819e-15
0.0 -0.0 -0.0
2.491196672694467e-17 -1.3968620591563327e-14 -2.612548544897456e-15
2.4214737859036788e-17 -1.3968816716773997e-14 -2.611506254295538e-15
-2.343431002879054e-17 1.3969125362270678e-14 2.609861908771914e-15
2.2799784402737758e-17 -1.3969418390478875e-14 -2.608298629022522e-15
0.0 -0.0 -0.0
0.0 -0.0 -0.0
-1.974766574048858e-17 1.3970291335567196e-14 2.6036439398759937e-15
0.0 -0.0 -0.0
0.0 -0.0 -0.0
1.809770571424606e-17 -1.397100672231736e-14 -2.599814488495301e-15
0.0 -0.0 -0.0
0.0 -0.0 -0.0
0.0 -0.0 -0.0
0.0 -0.0 -0.0
0.0 -0.0 -0.0
-1.594692679106957e-17 1.3972368169134117e-14 2.5925017219420705e-15
0.0 -0.0 -0.0
1.54342198573575e-17 -1.3972894128240148e-14 -2.58966855068915e-15
0.0 -0.0 -0.0
0.0 -0.0 -0.0
-1.461490729453881e-17 1.3973628085919507e-14 2.585710010319281e-15
0.0 -0.0 -0.0
1.3941060705296298e-17 -1.3974070263684462e-14 -2.583322985810165e-15
6.8622624195353594e-18 -6.987134393272285e-15 -1.2911250186758777e-15
6.8403050001042795e-18 -6.9872240888552595e-15 -1.2906396385099343e-15
0.0 -0.0 -0.0
6.660161045854649e-18 -6.987375947871671e-15 -1.2898181807929597e-15
0.0 -0.0 -0.0
6.5354716825129094e-18 -6.9875020524983435e-15 -1.2891354808886848e-15

SCALARS Gamma float
LOOKUP_TABLE default
-0.0
-0.0
-0.0
50.90793112631968
54.445654962737734
54.48191719555912
52.413089136681876
47.76880553804324
44.77449764552833
47.315611650594256
53.80462855334224
54.42572090568072
50.35900935218332
45.40867138740177
44.41992297327382
43.65047575660747
40.088578613665575
37.95364821643217
33.247184118759606
33.585249330721744
33.1062978673548
34.73618560157044
36.35034609075606
34.345153703527224
36.442771292655245
37.68682393488478
37.80538022703207
37.92569337315827
38.1782820477392
38.45052731314402
38.79148828024855
39.0961642008684
37.14710527161371
37.46762366966631
37.79306022451671
38.05081313887751
38.30777282464487
40.62596675054352
40.55829050148022
40.197081178349286
39.48209798348035
38.26286415055781
36.23839856384772
33.63435593049777
30.98301605181924
28.373853374342158
25.558984735287478
22.86207377432097
20.114647408908446
17.571943664192062
-0.0
-0.0
-0.0
50.90793112631968
54.445654962737734
54.48191719555912
52.413089136681876
47.76880553804324
44.77449764552833
47.315611650594256
53.80462855334224
54.42572090568072
50.35900935218332
45.40867138740177
44.41992297327382
43.65047575660747
40.088578613665575
37.95364821643217
33.247184118759606
33.585249330721744
33.1062978673548
34.73618560157044
36.35034609075606
34.345153703527224
36.442771292655245
37.68682393488478
37.80538022703207
37.92569337315827
38.1782820477392
38.45052731314402
38.79148828024855
39.0961642008684
37.14710527161371
37.46762366966631
37.79306022451671
38.05081313887751
38.30777282464487
40.62596675054352
40.55829050148022
40.197081178349286
39.48209798348035
38.26286415055781
36.23839856384772
33.63435593049777
30.98301605181924
28.373853374342158
25.558984735287478
22.86207377432097
20.114647408908446
17.571943664192062

VECTORS Ftot float
114.69908770550192 6.821488853172731 -38.686585715723474
138.2767720808614 15.206870233886354 -86.24244669072561
141.7240862873032 22.60169978526051 -128.18060908460575
1260.1726072260772 -2.409267194565206 13.66363323913905
1289.337806402263 -38.016704551965 215.60344536733746
1382.4805725525011 -49.59855403604744 281.28737778396317
1466.963837759116 -48.673678385885445 276.0421473237923
1458.059650806047 -47.7434082451144 270.76632318710426
1474.5929080932788 -51.23280489264865 290.5556749557003
1664.9577247007312 -65.41221856695613 370.9711259396392
2020.4516751204148 -85.34447756655865 484.01258402799675
2176.13250522234 -95.49754643541714 541.5934989172805
2137.6610542017875 -95.27688837886721 540.3420848928168
2045.3312419177919 -87.42687995754531 495.82247484912784
2116.404371133758 -84.96146174670086 481.84039337221134
2188.034691400242 -84.65277628842927 480.0897511447352
2109.176771988651 -76.89687358556644 436.1038411512653
2087.3067476521855 -73.08243262001822 414.4710714513467
1907.1952110316356 -63.03019659224575 357.4620080205343
2002.1766480876834 -64.08862687201675 363.4646644235325
2045.6123456034722 -63.98813042069294 362.89472072620373
2222.790047519873 -65.30897222182723 370.3855868195677
2400.9186289173213 -69.06581442959184 391.6916977316357
2336.971364256807 -65.81285212523039 373.2432317550088
2549.898377684144 -70.6423729657918 400.6328054955496
2710.3859923046484 -70.7922204673114 401.48263290663283
2788.1335738264775 -70.71716640636377 401.0569801752921
2863.639096695184 -71.06909086469348 403.0528429576962
2947.6040102954653 -71.50195160250215 405.50771819045684
3031.3698389098795 -72.12434830946081 409.03750531922145
3119.0129977002584 -72.99739179456546 413.98878096403115
3202.321656344886 -73.78561365008481 418.45900924306335
3095.4896129508384 -71.13328837540007 403.41692513303116
3174.4640986830977 -71.28722736377814 404.2899565191501
3251.545203355298 -72.38413782779334 410.51084489146797
3321.045462168711 -73.447158364479 416.53953393505356
3389.197877060527 -73.9928147410481 419.6341050232483
3639.5217324969562 -79.36203695755545 450.0844773652141
3676.5983367682106 -79.49252879294494 450.8245333388671
3684.111941266135 -79.01066830219956 448.09176669811075
3655.014476160352 -78.58681651013089 445.6879837355393
3576.2301551958326 -75.67560636484963 429.177690565519
3417.2324915213076 -70.93874108184426 402.3135926040323
3197.027406940126 -65.86539245472665 373.5412027704777
2966.3862026676857 -60.728382576614024 344.40777204154085
2733.883441139447 -56.26658971240369 319.10368728784476
2477.1254819937226 -50.66754881409536 287.3499484339726
2227.2258155826926 -45.28726399144203 256.8368369348936
1968.3164429103397 -39.95424569675838 226.59178723656547
1726.134785526967 -34.866806071728135 197.73948338272865
114.69908770550192 6.821488853172731 -38.686585715723474
138.2767720808614 15.206870233886354 -86.24244669072561
141.7240862873032 22.60169978526051 -128.18060908460575
1260.1726072260772 -2.409267194565206 13.66363323913905
1289.337806402263 -38.016704551965 215.60344536733746
1382.4805725525011 -49.59855403604744 281.28737778396317
1466.963837759116 -48.673678385885445 276.0421473237923
1458.059650806047 -47.7434082451144 270.76632318710426
1474.5929080932788 -51.23280489264865 290.5556749557003
1664.9577247007312 -65.41221856695613 370.9711259396392
2020.4516751204148 -85.34447756655865 484.01258402799675
2176.13250522234 -95.49754643541714 541.5934989172805
2137.6610542017875 -95.27688837886721 540.3420848928168
2045.3312419177919 -87.42687995754531 495.82247484912784
2116.404371133758 -84.96146174670086 481.84039337221134
2188.034691400242 -84.65277628842927 480.0897511447352
2109.176771988651 -76.89687358556644 436.1038411512653
2087.3067476521855 -73.08243262001822 414.4710714513467
1907.1952110316356 -63.03019659224575 357.4620080205343
2002.1766480876834 -64.08862687201675 363.4646644235325
2045.6123456034722 -63.98813042069294 362.89472072620373
2222.790047519873 -65.30897222182723 370.3855868195677
2400.9186289173213 -69.06581442959184 391.6916977316357
2336.971364256807 -65.81285212523039 373.2432317550088
2549.898377684144 -70.6423729657918 400.6328054955496
2710.3859923046484 -70.7922204673114 401.48263290663283
2788.1335738264775 -70.71716640636377 401.0569801752921
2863.639096695184 -71.06909086469348 403.0528429576962
2947.6040102954653 -71.50195160250215 405.50771819045684
3031.3698389098795 -72.12434830946081 409.03750531922145
3119.0129977002584 -72.99739179456546 413.98878096403115
3202.321656344886 -73.78561365008481 418.45900924306335
3095.4896129508384 -71.13328837540007 403.41692513303116
3174.4640986830977 -71.28722736377814 404.2899565191501
3251.545203355298 -72.38413782779334 410.51084489146797
3321.045462168711 -73.447158364479 416.53953393505356
3389.197877060527 -73.9928147410481 419.6341050232483
3639.5217324969562 -79.36203695755545 450.0844773652141
3676.5983367682106 -79.49252879294494 450.8245333388671
3684.111941266135 -79.01066830219956 448.09176669811075
3655.014476160352 -78.58681651013089 445.6879837355393
3576.2301551958326 -75.67560636484963 429.177690565519
3417.2324915213076 -70.93874108184426 402.3135926040323
3197.027406940126 -65.86539245472665 373.5412027704777
2966.3862026676857 -60.728382576614024 344.40777204154085
2733.883441139447 -56.26658971240369 319.10368728784476
2477.1254819937226 -50.66754881409536 287.3499484339726
2227.2258155826926 -45.28726399144203 256.8368369348936
1968.3164429103397 -39.95424569675838 226.59178723656547
1726.134785526967 -34.866806071728135 197.73948338272865

VECTORS D float
90.61121598313892 -6.05018683073203 30.445443650328222
59.10316809521159 -7.118644132216665 36.753198943798445
12.035095935301849 -2.0824633022469525 10.856227820358757
524.3161514653665 -117.65344280699061 617.0032881007171
509.40918990674254 -139.8898675294287 736.0317704001998
467.6139699833985 -151.28911705401447 798.0631712363922
406.34481355132505 -150.77162242789345 797.2883819259415
342.73134928392886 -142.95728082443142 757.4563548735639
306.13981524966454 -141.38923939497602 750.3137986672962
318.36109315349574 -160.84595946318393 854.6333329779169
355.6951466664756 -194.65721371361082 1035.3752794876486
352.4573703136328 -207.22334117039406 1103.230788523447
318.61014687031115 -199.86411502756 1064.9397103169438
275.1904871880615 -183.3611817724274 976.6054472091663
256.33848310421206 -180.12962257044617 960.4383719205815
242.81400751271417 -179.18138796127167 956.2924613960929
213.24977848876273 -164.63980808449998 879.419194913246
194.85167516923025 -156.8717129628043 838.544050152672
163.71907315761905 -137.04254245539985 733.0253564165517
160.54985482580386 -139.35726469445268 745.833673628733
154.38852279413118 -138.6276869917669 742.303213300202
155.50205017082897 -144.11973307103196 772.053685611275
159.1258761254906 -151.9597532176904 814.300608663385
147.21441910762223 -144.48880914583353 774.6893235791207
153.42203323873358 -154.477612049392 828.6859333934981
153.1035206925325 -157.8710966629402 847.3314403025339
150.2593791414713 -158.41200282041237 850.6708586579084
148.08174789991827 -159.3702970847678 856.2513926063473
146.5529273337205 -160.76486893077262 864.0110117920304
145.35803625866572 -162.32891571238164 872.8675529303488
144.7051777105955 -164.30012594001184 883.9311442706356
144.05850205385477 -166.09704633336003 894.0748435020279
136.05185464136488 -159.11199788289295 856.9373014798671
135.2639012432677 -160.28563712144316 863.727551178317
135.39925725233098 -162.41001700061562 875.6527154508798
135.32946001956023 -164.36364357228473 886.1740060822292
135.0542921543463 -165.74935666571915 894.1420236758303
142.75838251890198 -176.9012145058158 954.8240486198908
141.63903890389963 -177.08217969154387 956.3141338051632
139.56749848116573 -175.9280056600356 950.5782536569646
136.97333492161133 -173.96372749288767 940.4407792540753
131.57322073784755 -168.26365219260634 910.0698133782429
123.36193967726298 -158.76154844918142 859.0773326382792
113.95005322625549 -147.49347717470016 798.4571845695543
104.54010657020387 -136.01860069258834 736.6425488710685
95.85269867616174 -125.29920554107197 678.8488923031699
86.01997102449641 -112.91472601037475 611.966231906366
76.70400731464383 -101.03178153112924 547.7189822587991
67.38276715373215 -89.03722565185133 482.83062594669866
58.698154133016494 -77.77219362501614 421.84626113258673
90.61121598313892 -6.05018683073203 30.445443650328222
59.10316809521159 -7.118644132216665 36.753198943798445
12.035095935301849 -2.0824633022469525 10.856227820358757
524.3161514653665 -117.65344280699061 617.0032881007171
509.40918990674254 -139.8898675294287 736.0317704001998
467.6139699833985 -151.28911705401447 798.0631712363922
406.34481355132505 -150.77162242789345 797.2883819259415
342.73134928392886 -142.95728082443142 757.4563548735639
306.13981524966454 -141.38923939497602 750.3137986672962
318.36109315349574 -160.84595946318393 854.6333329779169
355.6951466664756 -194.65721371361082 1035.3752794876486
352.4573703136328 -207.22334117039406 1103.230788523447
318.61014687031115 -199.86411502756 1064.9397103169438
275.1904871880615 -183.3611817724274 976.6054472091663
256.33848310421206 -180.12962257044617 960.4383719205815
242.81400751271417 -179.18138796127167 956.2924613960929
213.24977848876273 -164.63980808449998 879.419194913246
194.85167516923025 -156.8717129628043 838.544050152672
163.71907315761905 -137.04254245539985 733.0253564165517
160.54985482580386 -139.35726469445268 745.833673628733
154.38852279413118 -138.6276869917669 742.303213300202
155.50205017082897 -144.11973307103196 772.053685611275
159.1258761254906 -151.9597532176904 814.300608663385
147.21441910762223 -144.48880914583353 774.6893235791207
153.42203323873358 -154.477612049392 828.6859333934981
153.1035206925325 -157.8710966629402 847.3314403025339
150.2593791414713 -158.41200282041237 850.6708586579084
148.08174789991827 -159.3702970847678 856.2513926063473
146.5529273337205 -160.76486893077262 864.0110117920304
145.35803625866572 -162.32891571238164 872.8675529303488
144.7051777105955 -164.30012594001184 883.9311442706356
144.05850205385477 -166.09704633336003 894.0748435020279
136.05185464136488 -159.11199788289295 856.9373014798671
135.2639012432677 -160.28563712144316 863.727551178317
135.39925725233098 -162.41001700061562 875.6527154508798
135.32946001956023 -164.36364357228473 886.1740060822292
135.0542921543463 -165.74935666571915 894.1420236758303
142.75838251890198 -176.9012145058158 954.8240486198908
141.63903890389963 -177.08217969154387 956.3141338051632
139.56749848116573 -175.9280056600356 950.5782536569646
136.97333492161133 -173.96372749288767 940.4407792540753
131.57322073784755 -168.26365219260634 910.0698133782429
123.36193967726298 -158.76154844918142 859.0773326382792
113.95005322625549 -147.49347717470016 798.4571845695543
104.54010657020387 -136.01860069258834 736.6425488710685
95.85269867616174 -125.29920554107197 678.8488923031699
86.01997102449641 -112.91472601037475 611.966231906366
76.70400731464383 -101.03178153112924 547.7189822587991
67.38276715373215 -89.03722565185133 482.83062594669866
58.698154133016494 -77.77219362501614 421.84626113258673

VECTORS L float
24.087871722362994 12.871675683904764 -69.13202936605171
79.17360398564983 22.325514366103025 -122.99564563452407
129.6889903520014 24.684163087507475 -139.03683690496456
735.856455760711 115.24417561242544 -603.339654861578
779.9286164955204 101.87316297746374 -520.4283250328623
914.866602569103 101.69056301796702 -516.7757934524291
1060.6190242077912 102.097944042008 -521.2462346021493
1115.3283015221184 95.21387257931706 -486.69003168646
1168.4530928436145 90.15643450232736 -459.758123711596
1346.5966315472356 95.4337408962278 -483.6622070382776
1664.7565284539394 109.31273614705219 -551.362695459652
1823.675134908707 111.725794734977 -561.6372896061669
1819.0509073314763 104.58722664869283 -524.5976254241272
1770.1407547297306 95.93430181488215 -480.7829723600387
1860.0658880295462 95.16816082374535 -478.5979785483704
1945.2206838875281 94.5286116728424 -476.20271025135764
1895.9269934998883 87.74293449893355 -443.31535376198065
1892.4550724829555 83.7892803427861 -424.0729787013255
1743.4761378740168 74.01234586315411 -375.56334839601743
1841.6267932618796 75.26863782243593 -382.36900920520037
1891.2238228093415 74.63955657107398 -379.40849257399833
2067.2879973490444 78.81076084920473 -401.66809879170734
2241.7927527918305 82.89393878809855 -422.60891093174916
2189.7569451491845 78.67595702060315 -401.44609182411193
2396.4763444454106 83.83523908360021 -428.0531278979487
2557.2824716121163 87.07887619562882 -445.84880739590113
2637.8741946850064 87.69483641404862 -449.6138784826163
2715.5573487952656 88.30120622007433 -453.1985496486511
2801.0510829617456 89.26291732827048 -458.5032936015736
2886.011802651214 90.20456740292084 -463.83004761112727
2974.307819989663 91.30273414544645 -469.94236330660476
3058.2631542910312 92.31143268327524 -475.6158342589645
2959.437758309474 87.97870950749292 -453.52037634683603
3039.2001974398304 88.99840975766497 -459.43759465916685
3116.145946102967 90.02587917282226 -465.1418705594117
3185.716002149151 90.91648520780579 -469.63447214717604
3254.1435849061813 91.75654192467107 -474.5079186525821
3496.763349978054 97.53917754826043 -504.7395712546771
3534.9592978643113 97.58965089859893 -505.4896004662963
3544.5444427849698 96.91733735783608 -502.4864869588542
3518.0411412387407 95.3769109827568 -494.7527955185359
3444.6569344579852 92.58804582775672 -480.8921228127242
3293.8705518440447 87.82280736733718 -456.7637400342471
3083.0773537138716 81.62808471997351 -424.91598179907646
2861.846096097482 75.29021811597438 -392.2347768295278
2638.030742463285 69.03261582866831 -359.7452050153253
2391.105510969226 62.24717719627942 -324.6162834723935