# vtk DataFile Version 4.0
[MyVLM domain - lattices] 
ASCII
DATASET UNSTRUCTURED_GRID
POINTS 302 float
0.03418245623128624 -2.4008531673781794 -6.00275149110996
0.034058156390445196 -2.397416138720674 -6.008148792402551
0.03391102596659254 -2.393347819085258 -6.014537434748882
0.033741064959728256 -2.3886482084719334 -6.021917418148956
0.03354827336985236 -2.3833173068806994 -6.030288742602769
0.03333265119696484 -2.377355114311556 -6.039651408110323
0.0330941984410657 -2.3707616307645036 -6.05000541467162
0.03283291510215494 -2.3635368562395414 -6.061350762286657
0.03254880118023256 -2.3556807907366704 -6.073687450955435
0.03224185667529856 -2.3471934342558898 -6.087015480677954
0.03191208158735294 -2.3380747867972005 -6.101334851454215
0.0315594759163957 -2.328324848360601 -6.116645563284217
0.031184039662426853 -2.317943618946093 -6.132947616167959
0.030785772825446374 -2.3069310985536755 -6.150241010105443
0.03036467540545427 -2.2952872871833483 -6.168525745096668
0.029920747402450557 -2.2830121848351124 -6.187801821141634
0.02945398881643522 -2.270105791508967 -6.208069238240341
0.028964399647408254 -2.256568107204912 -6.229327996392789
0.028451979895369683 -2.242399131922948 -6.251578095598979
0.02791672956031948 -2.2275988656630745 -6.274819535858909
0.027358648642257663 -2.212167308425292 -6.299052317172581
0.02677773714118423 -2.1961044602096003 -6.324276439539993
0.02617399505709918 -2.179410321015999 -6.3504919029611475
0.025547422390002496 -2.162084890844488 -6.377698707436043
0.024898019139894208 -2.1441281696950685 -6.405896852964678
0.02422578530677429 -2.1255401575677393 -6.4350863395470554
0.02353072089064276 -2.106320854462501 -6.465267167183173
0.0228128258914996 -2.0864702603793535 -6.496439335873032
0.02207210030934483 -2.0659883753182964 -6.528602845616633
0.021308544144178432 -2.04487519927933 -6.5617576964139745
0.02052215739600042 -2.0231307322624548 -6.595903888265059
0.019712940064810787 -2.00075497426767 -6.63104142116988
0.01888089215060953 -1.9777479252949755 -6.667170295128447
0.01802601365339666 -1.9541095853443724 -6.704290510140752
0.01714830457317217 -1.9298399544158595 -6.7424020662067985
0.016247764909936055 -1.9049390325094377 -6.781504963326587
0.01532439466368832 -1.8794068196251064 -6.821599201500117
0.01437819383442897 -1.853243315762866 -6.862684780727388
0.013409162422158002 -1.8264485209227161 -6.904761701008398
0.012417300426875411 -1.799022435104657 -6.9478299623431505
0.011402607848581199 -1.7709650583086887 -6.991889564731645
0.010365084687275369 -1.7422763905348109 -7.036940508173879
0.009304730942957919 -1.7129564317830237 -7.082982792669855
0.008221546615628843 -1.6830051820533276 -7.130016418219573
0.007115531705288154 -1.6524226413457217 -7.1780413848230324
0.005986686211935843 -1.621208809660207 -7.227057692480232
0.004835010135571912 -1.5893636869967829 -7.277065341191171
0.0036605034761963613 -1.5568872733554493 -7.328064330955852
0.002463166233809198 -1.5237795687362068 -7.380054661774275
0.0012429984084104085 -1.4900405731390547 -7.433036333646439
0.0 -1.4556702865639934 -7.487009346572344
0.0012429984084104148 -1.5096303258333066 -7.5213999977090396
0.002463166233809209 -1.5625992623405305 -7.555158983824858
0.0036605034761963847 -1.614577096085665 -7.588286304919797
0.00483501013557194 -1.6655638270687099 -7.620781960993859
0.005986686211935874 -1.7155594552896654 -7.652645952047042
0.0071155317052881886 -1.7645639807485314 -7.683878278079348
0.008221546615628884 -1.8125774034453082 -7.714478939090775
0.00930473094295796 -1.8595997233799955 -7.744447935081324
0.010365084687275416 -1.905630940552593 -7.773785266050995
0.011402607848581253 -1.950671054963102 -7.802490931999788
0.012417300426875468 -1.9947200666115208 -7.830564932927704
0.013409162422158062 -2.0377779754978502 -7.85800726883474
0.014378193834429037 -2.07984478162209 -7.884817939720899
0.015324394663688396 -2.120920484984241 -7.910996945586178
0.01624776490993613 -2.161005085584302 -7.936544286430582
0.01714830457317225 -2.2000985834222737 -7.961459962254105
0.018026013653396743 -2.2382009784981562 -7.985743973056752
0.018880892150609625 -2.2753122708119493 -8.00939631883852
0.01971294006481088 -2.311432460363653 -8.03241699959941
0.02052215739600052 -2.346561547153267 -8.054806015339423
0.021308544144178536 -2.3806995311807917 -8.076563366058558
0.022072100309344932 -2.4138464124462273 -8.097689051756813
0.02281282589149971 -2.446002190949573 -8.118183072434192
0.023530720890642867 -2.4771668666908293 -8.138045428090692
0.024225785306774404 -2.5073404396699965 -8.157276118726314
0.024898019139894326 -2.536522909887074 -8.175875144341056
0.02554742239000262 -2.564714277342062 -8.193842504934922
0.026173995057099303 -2.591914542034961 -8.21117820050791
0.02677773714118436 -2.6181237039657703 -8.22788223106002
0.027358648642257805 -2.64334176313449 -8.243954596591252
0.027916729560319615 -2.66756871954112 -8.259395297101603
0.028451979895369812 -2.6908045731856616 -8.27420433259108
0.02896439964740839 -2.7130493240681126 -8.288381703059676
0.029453988816435354 -2.734302972188475 -8.301927408507394
0.029920747402450692 -2.754565517546748 -8.314841448934235
0.030364675405454417 -2.7738369601429316 -8.327123824340198
0.03078577282544651 -2.7921172999770247 -8.338774534725284
0.031184039662426992 -2.8094065370490298 -8.34979358008949
0.03155947591639585 -2.8257046713589444 -8.360180960432817
0.0319120815873531 -2.8410117029067705 -8.36993667575527
0.03224185667529871 -2.8553276316925063 -8.379060726056842
0.03254880118023271 -2.868652457716153 -8.387553111337535
0.032832915102155094 -2.88098618097771 -8.395413831597352
0.033094198441065856 -2.8923288014771784 -8.40264288683629
0.033332651196964984 -2.9026803192145563 -8.40924027705435
0.033548273369852506 -2.9120407341898455 -8.415206002251532
0.03374106495972842 -2.9204100464030454 -8.420540062427836
0.0339110259665927 -2.9277882558541553 -8.425242457583261
0.03405815639044536 -2.9341753625431766 -8.42931318771781
0.03418245623128641 -2.9395713664701075 -8.432752252831479
0.04785543872380077 -2.88666995952224 -5.895048501269311
0.04773113888295973 -2.8832329308647338 -5.900445802561901
0.04758400845910707 -2.879164611229318 -5.906834444908233
0.047414047452242786 -2.8744650006159933 -5.914214428308306
0.0472212558623669 -2.86913409902476 -5.922585752762119
0.04700563368947937 -2.8631719064556163 -5.931948418269674
0.04676718093358023 -2.856578422908564 -5.94230242483097
0.04650589759466947 -2.8493536483836017 -5.953647772446008
0.0462217836727471 -2.8414975828807307 -5.965984461114785
0.045914839167813096 -2.83301022639995 -5.979312490837305
0.04558506407986747 -2.8238915789412604 -5.993631861613565
0.045232458408910235 -2.814141640504662 -6.0089425734435675
0.044857022154941376 -2.8037604110901535 -6.025244626327309
0.044458755317960896 -2.7927478906977354 -6.042538020264793
0.044037657897968804 -2.7811040793274087 -6.060822755256018
0.043593729894965086 -2.7688289769791723 -6.080098831300984
0.04312697130894975 -2.7559225836530272 -6.100366248399691
0.04263738213992278 -2.742384899348972 -6.12162500655214
0.042124962387884206 -2.7282159240670083 -6.14387510575833
0.041589712052834016 -2.713415657807135 -6.16711654601826
0.041031631134772206 -2.6979841005693523 -6.191349327331931
0.04045071963369876 -2.68192125235366 -6.216573449699344
0.03984697754961371 -2.665227113160059 -6.242788913120497
0.039220404882517025 -2.6479016829885484 -6.269995717595393
0.03857100163240874 -2.629944961839129 -6.298193863124029
0.03789876779928882 -2.6113569497117997 -6.327383349706405
0.03720370338315729 -2.5921376466065613 -6.357564177342524
0.036485808384014135 -2.5722870525234134 -6.388736346032383
0.035745082801859354 -2.5518051674623567 -6.420899855775984
0.03498152663669297 -2.5306919914233905 -6.454054706573325
0.03419513988851495 -2.5089475244065147 -6.488200898424408
0.033385922557325316 -2.48657176641173 -6.523338431329232
0.032553874643124064 -2.463564717439036 -6.5594673052877965
0.0316989961459112 -2.4399263774884328 -6.596587520300102
0.030821287065686695 -2.41565674655992 -6.634699076366148
0.029920747402450588 -2.390755824653498 -6.673801973485938
0.028997377156202854 -2.3652236117691667 -6.713896211659467
0.028051176326943497 -2.339060107906926 -6.754981790886738
0.027082144914672535 -2.312265313066776 -6.797058711167749
0.02609028291938995 -2.2848392272487175 -6.840126972502502
0.02507559034109573 -2.256781850452749 -6.884186574890995
0.0240380671797899 -2.228093182678871 -6.929237518333231
0.022977713435472454 -2.198773223927084 -6.975279802829207
0.021894529108143372 -2.168821974197388 -7.022313428378923
0.020788514197802685 -2.1382394334897823 -7.070338394982382
0.019659668704450375 -2.107025601804267 -7.119354702639581
0.018507992628086445 -2.075180479140843 -7.169362351350522
0.017333485968710892 -2.0427040654995094 -7.220361341115202
0.01613614872632373 -2.009596360880267 -7.272351671933626
0.014915980900924938 -1.975857365283115 -7.325333343805788
0.013672982492514533 -1.9414870787080536 -7.379306356731694
0.014915980900924946 -1.995447117977367 -7.4136970078683895
0.016136148726323744 -2.0484160544845906 -7.4474559939842075
0.01733348596871092 -2.1003938882297253 -7.480583315079147
0.018507992628086473 -2.15138061921277 -7.513078971153208
0.019659668704450406 -2.2013762474337257 -7.5449429622063935
0.02078851419780272 -2.2503807728925915 -7.576175288238698
0.021894529108143417 -2.2983941955893683 -7.606775949250125
0.02297771343547249 -2.3454165155240556 -7.636744945240674
0.024038067179789947 -2.3914477326966534 -7.6660822762103455
0.025075590341095785 -2.436487847107162 -7.694787942159138
0.026090282919389998 -2.4805368587555807 -7.722861943087054
0.027082144914672597 -2.52359476764191 -7.75030427899409
0.028051176326943563 -2.5656615737661506 -7.777114949880248
0.02899737715620293 -2.606737277128301 -7.80329395574553
0.029920747402450664 -2.6468218777283625 -7.828841296589932
[...]
CELL_DATA 200

VECTORS Vinf float
5.236310181824171 -37.72194948030884 19.104335265513726
5.222337116525284 -37.7636774055746 19.079741231902705
5.206279160330215 -37.81237595020625 19.051036303445823
5.188279407309815 -37.868019862430266 19.018232769718146
5.168513098348625 -37.93057893513295 18.981344465808096
5.147189960120045 -38.00001787188269 18.940386492863677
5.1271541194964 -38.07422634837262 18.898292639769334
5.102298058204442 -38.15723148039231 18.849634884804924
5.076332485292527 -38.24706609548077 18.796894329660677
5.0463034412646355 -38.34419589334182 18.73941479904345
5.019975140776883 -38.44719429301254 18.67890048573704
4.993663319595356 -38.556772830118334 18.614485293983286
4.967687956384271 -38.67288288418728 18.5461831009873
4.942354511822749 -38.795480167301186 18.47400342406955
4.91794304355233 -38.924526403796904 18.3979508789841
4.8930815871297755 -39.05975103350848 18.31881524500056
4.8718523791525135 -39.20153488194873 18.23499745686516
4.851794892887292 -39.34970391885667 18.147368743713287
4.833185741005497 -39.504219541935505 18.05593469179354
4.816279028104273 -39.66504757698037 17.96069778382287
4.80145931287875 -39.83307301641665 17.85995882584184
4.786808667349381 -40.0075903019652 17.755391627425027
4.775776785482863 -40.18741307468613 17.648556600191316
4.765881744033763 -40.37390052231313 17.537395424641453
4.7571804565655365 -40.5670739857576 17.42185284838952
4.749725401886175 -40.76695559976507 17.301872768368007
4.743569448290415 -40.97356753407182 17.177398499371503
4.73877055209904 -41.18693135303297 17.04837287121759
4.737180619232152 -41.4035082252896 16.9205259295813
4.73569742306901 -41.62893561112771 16.78493059037804
4.732037389795672 -41.8621292793673 16.643697788202182
4.734058649646736 -42.100124668991164 16.500626389665943
4.737279116768045 -42.3447176894338 16.35334075585146
4.741811207895957 -42.595911440237984 16.201806810844054
4.747758938698489 -42.853711366734466 16.04598934648617
4.755219477634457 -43.118125051024194 15.885852487539122
4.764278649219865 -43.38916276796033 15.721359912058228
4.774998843123998 -43.6668389170168 15.552474875420819
4.787409904100177 -43.95032114351388 15.381098614195837
4.804654282636369 -44.24013200809361 15.204588298126204
4.821112948607272 -44.5369242659185 15.023980497737705
4.8388774291873755 -44.84028326328583 14.839229545516483
4.8573132306992095 -45.15028685529645 14.6503203391752
4.875520938894269 -45.467038297875185 14.457238338524263
4.892746083719445 -45.79039860309596 14.260537767772247
4.906998138933298 -46.120972128213246 14.059167270059593
4.918031473635638 -46.458665220225875 13.85355325800339
4.925411996425638 -46.80351404820869 13.643724528616524
4.92926847481902 -47.15548944932907 13.429353815185342
4.930617757933405 -47.51422757340018 13.21150256726976
4.931821385917169 -47.80512099321056 13.282698607738398
4.933504835612343 -48.02220480855068 13.64285914347212
4.93270657214311 -48.23625901549487 13.99461788644102
4.928377827308609 -48.44650077045219 14.34007166367477
4.920149621101404 -48.65295646411716 14.67927960622389
4.908434625655135 -48.85558415157384 15.012253005884288
4.8942486752881855 -49.05429178184003 15.338954534934695
4.87961871183559 -49.24901573228131 15.658912139810374
4.862612376882342 -49.440162909534195 15.971997305894565
4.846553049830267 -49.627034581507445 16.27872015481038
4.8320096338942164 -49.80959234262178 16.579014045414915
4.8192561265610045 -49.98782443690472 16.872828986303947
4.808347322936482 -50.1617387859323 17.160129331382386
4.797289877697436 -50.332041474309726 17.43954004596263
4.788786896947693 -50.497901791934865 17.71288373934938
4.781485664387069 -50.659493042443934 17.979742761959777
4.775283407677839 -50.816837708476655 18.24009964545452
4.772078932740023 -50.97029932084915 18.492627632387954
4.76836790827624 -51.11945230317591 18.739295876614552
4.76563603333042 -51.26447206890908 18.97927479875634
4.764674692148172 -51.40477835450114 19.213930222531424
4.763245626503948 -51.54176701652074 19.44016867693249
4.763111603711484 -51.674536775837545 19.659838709887755
4.764231645134239 -51.80309991802765 19.872928217185066
4.766588436986061 -51.92746675516237 20.079423860510563
4.770186457477976 -52.04764585881744 20.27931106531995
4.775049128648542 -52.163644340818145 20.472574105183103
4.781214810902554 -52.27546818789908 20.65919628174594
4.78873127046733 -52.38312267091746 20.83916022768899
4.796780882276549 -52.48611337864256 21.013612052785195
4.809499573790067 -52.58620797500176 21.17809097734
4.823978254864808 -52.682011904682795 21.3360980747494
4.839011266481798 -52.77350432038826 21.487967033495828
4.856110084772154 -52.860538905901784 21.633616491850614
4.875051063950598 -52.94342825964974 21.772464101651096
4.895697482250173 -53.02218503010546 21.904512494204134
4.917846351172753 -53.09682586151553 22.02976922709212
4.941234170215381 -53.16737088734975 22.14824668573295
4.965547568181174 -53.233842932722936 22.259961609076328
4.990437535452111 -53.29626651904076 22.364934304404322
5.01553556800533 -53.35466678431726 22.46318765163241
5.040469970466192 -53.40906843264408 22.55474601274921
5.06488076586599 -53.45949480928844 22.639634157693926
5.088432049102291 -53.50596716984264 22.717876298593005
5.110821096832659 -53.54850417956058 22.78949529610401
5.130318566157537 -53.587056298066436 22.85477368674457
5.149721253896758 -53.621756824465315 22.91320689280698
5.167279798766919 -53.652562293381685 22.965072743120377
5.182851539977356 -53.67948022763673 23.01038476232793
5.196327506496088 -53.70251601688578 23.04915406598573
5.236310181824171 -37.72194948030884 19.104335265513726
5.222337116525284 -37.7636774055746 19.079741231902705
5.206279160330215 -37.81237595020625 19.051036303445823
5.188279407309815 -37.868019862430266 19.018232769718146
5.168513098348625 -37.93057893513295 18.981344465808096
5.147189960120045 -38.00001787188269 18.940386492863677
5.1271541194964 -38.07422634837262 18.898292639769334
5.102298058204442 -38.15723148039231 18.849634884804924
5.076332485292527 -38.24706609548077 18.796894329660677
5.0463034412646355 -38.34419589334182 18.73941479904345
5.019975140776883 -38.44719429301254 18.67890048573704
4.993663319595356 -38.556772830118334 18.614485293983286
4.967687956384271 -38.67288288418728 18.5461831009873
4.942354511822749 -38.795480167301186 18.47400342406955
4.91794304355233 -38.924526403796904 18.3979508789841
4.8930815871297755 -39.05975103350848 18.31881524500056
4.8718523791525135 -39.20153488194873 18.23499745686516
4.851794892887292 -39.34970391885667 18.147368743713287
4.833185741005497 -39.504219541935505 18.05593469179354
4.816279028104273 -39.66504757698037 17.96069778382287
4.80145931287875 -39.83307301641665 17.85995882584184
4.786808667349381 -40.0075903019652 17.755391627425027
4.775776785482863 -40.18741307468613 17.648556600191316
4.765881744033763 -40.37390052231313 17.537395424641453
4.7571804565655365 -40.5670739857576 17.42185284838952
4.749725401886175 -40.76695559976507 17.301872768368007
4.743569448290415 -40.97356753407182 17.177398499371503
4.73877055209904 -41.18693135303297 17.04837287121759
4.737180619232152 -41.4035082252896 16.9205259295813
4.73569742306901 -41.62893561112771 16.78493059037804
4.732037389795672 -41.8621292793673 16.643697788202182
4.734058649646736 -42.100124668991164 16.500626389665943
4.737279116768045 -42.3447176894338 16.35334075585146
4.741811207895957 -42.595911440237984 16.201806810844054
4.747758938698489 -42.853711366734466 16.04598934648617
4.755219477634457 -43.118125051024194 15.885852487539122
4.764278649219865 -43.38916276796033 15.721359912058228
4.774998843123998 -43.6668389170168 15.552474875420819
4.787409904100177 -43.95032114351388 15.381098614195837
4.804654282636369 -44.24013200809361 15.204588298126204
4.821112948607272 -44.5369242659185 15.023980497737705
4.8388774291873755 -44.84028326328583 14.839229545516483
4.8573132306992095 -45.15028685529645 14.6503203391752
4.875520938894269 -45.467038297875185 14.457238338524263
4.892746083719445 -45.79039860309596 14.260537767772247
4.906998138933298 -46.120972128213246 14.059167270059593
4.918031473635638 -46.458665220225875 13.85355325800339
4.925411996425638 -46.80351404820869 13.643724528616524
4.92926847481902 -47.15548944932907 13.429353815185342
4.930617757933405 -47.51422757340018 13.21150256726976
4.931821385917169 -47.80512099321056 13.282698607738398
4.933504835612343 -48.02220480855068 13.64285914347212
4.93270657214311 -48.23625901549487 13.99461788644102
4.928377827308609 -48.44650077045219 14.34007166367477
4.920149621101404 -48.65295646411716 14.67927960622389
4.908434625655135 -48.85558415157384 15.012253005884288
4.8942486752881855 -49.05429178184003 15.338954534934695
4.87961871183559 -49.24901573228131 15.658912139810374
4.862612376882342 -49.440162909534195 15.971997305894565
4.846553049830267 -49.627034581507445 16.27872015481038
4.8320096338942164 -49.80959234262178 16.579014045414915
4.8192561265610045 -49.98782443690472 16.872828986303947
4.808347322936482 -50.1617387859323 17.160129331382386
4.797289877697436 -50.332041474309726 17.43954004596263
4.788786896947693 -50.497901791934865 17.71288373934938
4.781485664387069 -50.659493042443934 17.979742761959777
4.775283407677839 -50.816837708476655 18.24009964545452
4.772078932740023 -50.97029932084915 18.492627632387954
4.76836790827624 -51.11945230317591 18.739295876614552
4.76563603333042 -51.26447206890908 18.97927479875634
4.764674692148172 -51.40477835450114 19.213930222531424
4.763245626503948 -51.54176701652074 19.44016867693249
4.763111603711484 -51.674536775837545 19.659838709887755
4.764231645134239 -51.80309991802765 19.872928217185066
4.766588436986061 -51.92746675516237 20.079423860510563
4.770186457477976 -52.04764585881744 20.27931106531995
4.775049128648542 -52.163644340818145 20.472574105183103
4.781214810902554 -52.27546818789908 20.65919628174594
4.78873127046733 -52.38312267091746 20.83916022768899
4.796780882276549 -52.48611337864256 21.013612052785195
4.809499573790067 -52.58620797500176 21.17809097734
4.823978254864808 -52.682011904682795 21.3360980747494
4.839011266481798 -52.77350432038826 21.487967033495828
4.856110084772154 -52.860538905901784 21.633616491850614
4.875051063950598 -52.94342825964974 21.772464101651096
4.895697482250173 -53.02218503010546 21.904512494204134
4.917846351172753 -53.09682586151553 22.02976922709212
4.941234170215381 -53.16737088734975 22.14824668573295
4.965547568181174 -53.233842932722936 22.259961609076328
4.990437535452111 -53.29626651904076 22.364934304404322
5.01553556800533 -53.35466678431726 22.46318765163241
5.040469970466192 -53.40906843264408 22.55474601274921
5.06488076586599 -53.45949480928844 22.639634157693926
5.088432049102291 -53.50596716984264 22.717876298593005
5.110821096832659 -53.54850417956058 22.78949529610401
5.130318566157537 -53.587056298066436 22.85477368674457
5.149721253896758 -53.621756824465315 22.91320689280698
5.167279798766919 -53.652562293381685 22.965072743120377
5.182851539977356 -53.67948022763673 23.01038476232793
5.196327506496088 -53.70251601688578 23.04915406598573

VECTORS L float
0.05863990389963519 0.0 0.0
0.10603136904351423 0.0 0.0
0.1574374803506844 0.0 0.0
0.21458782283053054 0.0 0.0
0.2779756429720786 0.0 0.0
0.34775992699129143 0.0 0.0
0.4239648595752207 0.0 0.0
0.5065123377008224 0.0 0.0
0.5952843002295344 0.0 0.0
0.6901004343010929 0.0 0.0
0.7907643043228285 0.0 0.0
0.8970449457236969 0.0 0.0
1.0086300075911234 0.0 0.0
1.1251832130611232 0.0 0.0
1.2463409172026583 0.0 0.0
1.3717220816607067 0.0 0.0
1.5009727846045837 0.0 0.0
1.6336973816193008 0.0 0.0
1.7695288508065319 0.0 0.0
1.9081224928959657 0.0 0.0
2.049158754417758 0.0 0.0
2.1923201755658432 0.0 0.0
2.3373796939113674 0.0 0.0
2.484040822155589 0.0 0.0
2.632124548236812 0.0 0.0
2.781409480814759 0.0 0.0
2.9317034969700435 0.0 0.0
3.08285899655344 0.0 0.0
3.2347618374641707 0.0 0.0
3.3871819252886755 0.0 0.0
3.539920063529985 0.0 0.0
3.693044054716436 0.0 0.0
3.8462860548049123 0.0 0.0
3.999422505055125 0.0 0.0
4.1522014591323835 0.0 0.0
4.304311093254755 0.0 0.0
4.455369102268514 0.0 0.0
4.6048939416058925 0.0 0.0
4.752292258025309 0.0 0.0
4.8968963195638 0.0 0.0
5.037444974743476 0.0 0.0
5.172795518920196 0.0 0.0
5.301522591769045 0.0 0.0
5.422010322618454 0.0 0.0
5.532602582408894 0.0 0.0
5.631770727398102 0.0 0.0
5.718866813382783 0.0 0.0
5.795064709829727 0.0 0.0
5.865921958400034 0.0 0.0
5.956258583015289 0.0 0.0
6.217433803946427 0.0 0.0
6.24621364731729 0.0 0.0
6.291584687336585 0.0 0.0
6.328255984453066 0.0 0.0
6.349841186904284 0.0 0.0
6.354286665753363 0.0 0.0
6.341530855997172 0.0 0.0
6.312503609903063 0.0 0.0
6.2682795803417 0.0 0.0
6.210370824693595 0.0 0.0
6.140109867523286 0.0 0.0
6.058592051389714 0.0 0.0
5.966851909577076 0.0 0.0
5.865347733815591 0.0 0.0
5.755052365091928 0.0 0.0
5.636426274590716 0.0 0.0
5.510018025605276 0.0 0.0
5.376225267921197 0.0 0.0
5.235337590214642 0.0 0.0
5.087670088597441 0.0 0.0
4.9335600998793065 0.0 0.0
4.773288336677121 0.0 0.0
4.607235624977549 0.0 0.0
4.435757823579798 0.0 0.0
4.259217655140837 0.0 0.0
4.078010684066286 0.0 0.0
3.892576841205682 0.0 0.0
3.7033983649135642 0.0 0.0
3.511020100166918 0.0 0.0
3.3160298210880392 0.0 0.0
3.1191667263538356 0.0 0.0
2.9210684889532397 0.0 0.0
2.7224726209651107 0.0 0.0
2.5242420081813868 0.0 0.0
2.327268715628004 0.0 0.0
2.132488835165326 0.0 0.0
1.9408694839849399 0.0 0.0
1.753382039601481 0.0 0.0
1.5710097951401139 0.0 0.0
1.3946218188247437 0.0 0.0
1.2251329655241567 0.0 0.0
1.063355901356312 0.0 0.0
0.9100344828616712 0.0 0.0
0.7658272077227198 0.0 0.0
0.6312934542101484 0.0 0.0
0.5068697106270414 0.0 0.0
0.39283979651776224 0.0 0.0
0.289190159311772 0.0 0.0
0.19525870270360313 0.0 0.0
0.10802672502030224 0.0 0.0
0.05863990389963519 0.0 0.0
0.10603136904351423 0.0 0.0
0.1574374803506844 0.0 0.0
0.21458782283053054 0.0 0.0
0.2779756429720786 0.0 0.0
0.34775992699129143 0.0 0.0
0.4239648595752207 0.0 0.0
0.5065123377008224 0.0 0.0
0.5952843002295344 0.0 0.0
0.6901004343010929 0.0 0.0
0.7907643043228285 0.0 0.0
0.8970449457236969 0.0 0.0
1.0086300075911234 0.0 0.0
1.1251832130611232 0.0 0.0
1.2463409172026583 0.0 0.0
1.3717220816607067 0.0 0.0
1.5009727846045837 0.0 0.0
1.6336973816193008 0.0 0.0
1.7695288508065319 0.0 0.0
1.9081224928959657 0.0 0.0
2.049158754417758 0.0 0.0
2.1923201755658432 0.0 0.0
2.3373796939113674 0.0 0.0
2.484040822155589 0.0 0.0
2.632124548236812 0.0 0.0
2.781409480814759 0.0 0.0
2.9317034969700435 0.0 0.0
3.08285899655344 0.0 0.0
3.2347618374641707 0.0 0.0
3.3871819252886755 0.0 0.0
3.539920063529985 0.0 0.0
3.693044054716436 0.0 0.0
3.8462860548049123 0.0 0.0
3.999422505055125 0.0 0.0
4.1522014591323835 0.0 0.0
4.304311093254755 0.0 0.0
4.455369102268514 0.0 0.0
4.6048939416058925 0.0 0.0
4.752292258025309 0.0 0.0
4.8968963195638 0.0 0.0
5.037444974743476 0.0 0.0
5.172795518920196 0.0 0.0
5.301522591769045 0.0 0.0
5.422010322618454 0.0 0.0
5.532602582408894 0.0 0.0
5.631770727398102 0.0 0.0
5.718866813382783 0.0 0.0
5.795064709829727 0.0 0.0
5.865921958400034 0.0 0.0
5.956258583015289 0.0 0.0
6.217433803946427 0.0 0.0
6.24621364731729 0.0 0.0
6.291584687336585 0.0 0.0
6.328255984453066 0.0 0.0
6.349841186904284 0.0 0.0
6.354286665753363 0.0 0.0
6.341530855997172 0.0 0.0
6.312503609903063 0.0 0.0
6.2682795803417 0.0 0.0
6.210370824693595 0.0 0.0
6.140109867523286 0.0 0.0
6.058592051389714 0.0 0.0
5.966851909577076 0.0 0.0
5.865347733815591 0.0 0.0
5.755052365091928 0.0 0.0
5.636426274590716 0.0 0.0
5.510018025605276 0.0 0.0
5.376225267921197 0.0 0.0
5.235337590214642 0.0 0.0
5.087670088597441 0.0 0.0
4.9335600998793065 0.0 0.0
4.773288336677121 0.0 0.0
4.607235624977549 0.0 0.0
4.435757823579798 0.0 0.0
4.259217655140837 0.0 0.0
4.078010684066286 0.0 0.0
3.892576841205682 0.0 0.0
3.7033983649135642 0.0 0.0
3.511020100166918 0.0 0.0
3.3160298210880392 0.0 0.0
3.1191667263538356 0.0 0.0
2.9210684889532397 0.0 0.0
2.7224726209651107 0.0 0.0
2.5242420081813868 0.0 0.0
2.327268715628004 0.0 0.0
2.132488835165326 0.0 0.0
1.9408694839849399 0.0 0.0
1.753382039601481 0.0 0.0
1.5710097951401139 0.0 0.0
1.3946218188247437 0.0 0.0
1.2251329655241567 0.0 0.0
1.063355901356312 0.0 0.0
0.9100344828616712 0.0 0.0
0.7658272077227198 0.0 0.0
0.6312934542101484 0.0 0.0
0.5068697106270414 0.0 0.0
0.39283979651776224 0.0 0.0
0.289190159311772 0.0 0.0
0.19525870270360313 0.0 0.0
0.10802672502030224 0.0 0.0

SCALARS Gamma float
LOOKUP_TABLE default
0.4243191277160329
0.6521960703461367
0.8387047736683885
1.006530062014788
1.1632926153618732
1.3123388841861225
1.45532893986661
1.5930356238366805
1.725860028622487
1.853911039117249
1.977217191855124
2.095712289485181
2.209170757284021
2.3173725089209887
2.420100227727003
2.517161838519293
2.6084611233325674
2.693869623769126
2.773343879117519
2.8468995134915094
2.9146034933777205
2.9765354968707154
3.032894752026895
3.0837861791567125
3.1294530256005366
3.1700736452334417
3.205849991516721
3.2370181763427395
3.2638290027526113
3.2864049940939557
3.304898721851302
3.319688969698743
3.330833166954381
3.3384313507571646
3.3425618009909317
3.343260508833643
3.340520314614566
3.3342778791573155
3.324414883003789
3.3107904549776936
3.2929163261924885
3.2704555171517535
3.2429614881724707
3.209952246852078
3.1710032912546775
3.125830543945586
3.074655453286358
3.018554013370161
2.9602882125298455
2.907019246001168
2.901110992762716
2.9420613919166168
2.9874943119969064
3.0306173526387945
3.0688730167353464
3.1012966535933026
3.1277540680345037
3.148548093221122
3.1640379485645935
3.1747970416742906
3.1813170253964964
3.1839749278286873
3.1830677004200494
3.1787684916048233
3.171312314984906
3.1607670450854695
3.1471759633458993
3.130555483748314
3.1108230775241035
3.0878940080017503
3.061679863994693
3.032038982272546
2.998870180610732
2.9620361715019436
2.9213797436788695
2.8767390140579177
2.8279549831698647
2.7748704478809243
2.717345718191127
2.6552463599862532
2.5885326810435707
2.517064389122777
2.440757178431456
2.359619796650373
2.2736836568923873
2.1830237582649077
2.087757472633271
1.9880277522689234
1.884021121347903
1.7758253568643836
1.6636114713283405
1.547455215713403
1.4273521011247632
1.3031575586978035
1.1744971084285365
1.0405985765220687
0.8999899188263818
0.7496538879465763
0.5827644586559071
0.37904600208424355
0.4243191277160329
0.6521960703461367
0.8387047736683885
1.006530062014788
1.1632926153618732
1.3123388841861225
1.45532893986661
1.5930356238366805
1.725860028622487
1.853911039117249
1.977217191855124
2.095712289485181
2.209170757284021
2.3173725089209887
2.420100227727003
2.517161838519293
2.6084611233325674
2.693869623769126
2.773343879117519
2.8468995134915094
2.9146034933777205
2.9765354968707154
3.032894752026895
3.0837861791567125
3.1294530256005366
3.1700736452334417
3.205849991516721
3.2370181763427395
3.2638290027526113
3.2864049940939557
3.304898721851302
3.319688969698743
3.330833166954381
3.3384313507571646
3.3425618009909317
3.343260508833643
3.340520314614566
3.3342778791573155
3.324414883003789
3.3107904549776936
3.2929163261924885
3.2704555171517535
3.2429614881724707
3.209952246852078
3.1710032912546775
3.125830543945586
3.074655453286358
3.018554013370161
2.9602882125298455
2.907019246001168
2.901110992762716
2.9420613919166168
2.9874943119969064
3.0306173526387945
3.0688730167353464
3.1012966535933026
3.1277540680345037
3.148548093221122
3.1640379485645935
3.1747970416742906
3.1813170253964964
3.1839749278286873
3.1830677004200494
3.1787684916048233
3.171312314984906
3.1607670450854695
3.1471759633458993
3.130555483748314
3.1108230775241035
3.0878940080017503
3.061679863994693
3.032038982272546
2.998870180610732
2.9620361715019436
2.9213797436788695
2.8767390140579177
2.8279549831698647
2.7748704478809243
2.717345718191127
2.6552463599862532
2.5885326810435707
2.517064389122777
2.440757178431456
2.359619796650373
2.2736836568923873
2.1830237582649077
2.087757472633271