# vtk DataFile Version 4.0
[MyVLM domain - lattices] 
ASCII
DATASET UNSTRUCTURED_GRID
POINTS 302 float
0.03418245623128624 -3.3784395731169754 -5.496921595068976
0.034058156390445196 -3.3759919921815165 -5.502833732990227
0.03391102596659254 -3.3730948555640334 -5.509831773794973
0.033741064959728256 -3.369748163264527 -5.517915717483214
0.033548273369852354 -3.3659519152829986 -5.52708556405495
0.03333265119696484 -3.361706111619447 -5.537341313510181
0.0330941984410657 -3.357010752273871 -5.548682965848907
0.03283291510215494 -3.3518658372462724 -5.561110521071129
0.03254880118023256 -3.346271366536652 -5.574623979176844
0.03224185667529856 -3.340227340145006 -5.589223340166056
0.03191208158735294 -3.333733758071338 -5.604908604038762
0.0315594759163957 -3.3267906203156468 -5.621679770794964
0.031184039662426846 -3.3193979268779326 -5.63953684043466
0.030785772825446374 -3.3115556777581947 -5.658479812957852
0.03036467540545427 -3.3032638729564345 -5.678508688364539
0.029920747402450553 -3.294522512472651 -5.69962346665472
0.02945398881643522 -3.2853315963068432 -5.721824147828396
0.028964399647408254 -3.275691124459013 -5.745110731885569
0.028451979895369676 -3.2656010969291605 -5.7694832188262355
0.02791672956031948 -3.2550615137172834 -5.794941608650397
0.027358648642257663 -3.244072374823384 -5.821485901358055
0.02677773714118423 -3.232633680247461 -5.849116096949206
0.02617399505709918 -3.220745429989515 -5.877832195423854
0.025547422390002496 -3.2084076240495456 -5.907634196781996
0.024898019139894208 -3.1956202624275534 -5.938522101023633
0.02422578530677429 -3.182383345123538 -5.970495908148766
0.02353072089064276 -3.168696872137499 -6.003555618157392
0.0228128258914996 -3.154560843469437 -6.037701231049516
0.02207210030934483 -3.139975259119352 -6.072932746825133
0.021308544144178432 -3.1249401190872437 -6.109250165484245
0.02052215739600042 -3.109455423373112 -6.146653487026853
0.019712940064810783 -3.0935211719769575 -6.185142711452956
0.01888089215060953 -3.07713736489878 -6.224717838762553
0.01802601365339666 -3.060304002138579 -6.265378868955645
0.01714830457317217 -3.043021083696355 -6.307125802032234
0.016247764909936055 -3.0252886095721077 -6.349958637992317
0.01532439466368832 -3.0071065797658374 -6.393877376835895
0.01437819383442897 -2.988474994277544 -6.438882018562968
0.013409162422158002 -2.969393853107227 -6.484972563173535
0.012417300426875411 -2.949863156254887 -6.5321490106676
0.011402607848581199 -2.929882903720524 -6.580411361045155
0.010365084687275369 -2.9094530955041376 -6.62975961430621
0.009304730942957919 -2.888573731605728 -6.680193770450758
0.008221546615628843 -2.8672448120252954 -6.731713829478801
0.007115531705288152 -2.84546633676284 -6.78431979139034
0.005986686211935842 -2.8232383058183608 -6.838011656185373
0.004835010135571912 -2.8005607191918584 -6.892789423863902
0.0036605034761963613 -2.7774335768833334 -6.948653094425926
0.0024631662338091974 -2.753856878892785 -7.005602667871444
0.0012429984084104085 -2.729830625220213 -7.063638144200458
0.0 -2.7053548158656184 -7.122759523412967
0.0012429984084104148 -2.7644669547895475 -7.14725764079757
0.0024631662338092095 -2.822493360549568 -7.171305792760824
0.0036605034761963847 -2.8794340331456794 -7.19490397930273
0.00483501013557194 -2.935288972577882 -7.218052200423283
0.005986686211935875 -2.9900581788461755 -7.2407504561224885
0.0071155317052881886 -3.04374165195056 -7.262998746400342
0.008221546615628884 -3.096339391891036 -7.284797071256847
0.00930473094295796 -3.1478513986676027 -7.306145430692003
0.010365084687275416 -3.198277672280261 -7.327043824705807
0.011402607848581253 -3.2476182127290105 -7.347492253298262
0.012417300426875468 -3.2958730200138504 -7.367490716469368
0.013409162422158062 -3.3430420941347814 -7.387039214219123
0.014378193834429037 -3.3891254350918034 -7.406137746547528
0.015324394663688396 -3.4341230428849174 -7.424786313454584
0.01624776490993613 -3.4780349175141216 -7.44298491494029
0.01714830457317225 -3.5208610589794174 -7.460733551004646
0.018026013653396743 -3.562601467280804 -7.478032221647652
0.018880892150609625 -3.603256142418282 -7.494880926869308
0.019712940064810884 -3.642825084391851 -7.511279666669615
0.02052215739600052 -3.681308293201511 -7.527228441048571
0.021308544144178536 -3.718705768847262 -7.542727250006178
0.022072100309344932 -3.7550175113291044 -7.557776093542433
0.02281282589149971 -3.790243520647038 -7.572374971657341
0.023530720890642867 -3.8243837968010617 -7.586523884350899
0.024225785306774404 -3.857438339791178 -7.600222831623105
0.024898019139894326 -3.8894071496173845 -7.6134718134739625
0.025547422390002628 -3.9202902262796817 -7.62627082990347
0.026173995057099303 -3.950087569778071 -7.638619880911627
0.02677773714118436 -3.978799180112551 -7.650518966498435
0.027358648642257805 -4.006425057283122 -7.661968086663893
0.027916729560319615 -4.032965201289784 -7.672967241408
0.02845197989536982 -4.058419612132537 -7.683516430730759
0.02896439964740839 -4.082788289811381 -7.693615654632166
0.029453988816435354 -4.106071234326317 -7.703264913112226
0.0299207474024507 -4.128268445677343 -7.7124642061709325
0.030364675405454417 -4.14937992386446 -7.721213533808292
0.03078577282544651 -4.169405668887669 -7.729512896024301
0.031184039662427 -4.188345680746969 -7.73736229281896
0.03155947591639585 -4.20619995944236 -7.744761724192268
0.0319120815873531 -4.222968504973842 -7.751711190144228
0.03224185667529871 -4.238651317341415 -7.758210690674836
0.03254880118023271 -4.25324839654508 -7.764260225784095
0.032832915102155094 -4.266759742584835 -7.769859795472006
0.033094198441065856 -4.279185355460681 -7.775009399738565
0.033332651196964984 -4.290525235172618 -7.779709038583775
0.03354827336985251 -4.3007793817206466 -7.783958712007634
0.03374106495972842 -4.309947795104766 -7.787758420010145
0.0339110259665927 -4.318030475324977 -7.791108162591304
0.03405815639044536 -4.325027422381279 -7.794007939751115
0.03418245623128641 -4.330938636273672 -7.7964577514895765
0.04785543872380077 -3.838173288648858 -5.306493655015499
0.04773113888295973 -3.835725707713398 -5.312405792936751
0.04758400845910707 -3.832828571095916 -5.319403833741497
0.047414047452242786 -3.8294818787964098 -5.327487777429737
0.04722125586236689 -3.825685630814881 -5.336657624001473
0.04700563368947937 -3.821439827151329 -5.3469133734567045
0.04676718093358023 -3.8167444678057536 -5.358255025795431
0.04650589759466947 -3.811599552778155 -5.370682581017652
0.0462217836727471 -3.8060050820685327 -5.384196039123368
0.045914839167813096 -3.7999610556768886 -5.398795400112579
0.04558506407986747 -3.79346747360322 -5.414480663985286
0.045232458408910235 -3.7865243358475293 -5.431251830741488
0.044857022154941376 -3.779131642409815 -5.449108900381184
0.044458755317960896 -3.7712893932900773 -5.468051872904375
0.044037657897968804 -3.762997588488317 -5.488080748311062
0.043593729894965086 -3.754256228004533 -5.509195526601244
0.04312697130894975 -3.745065311838726 -5.531396207774921
0.04263738213992278 -3.7354248399908956 -5.554682791832093
0.042124962387884206 -3.725334812461043 -5.57905527877276
0.041589712052834016 -3.714795229249166 -5.604513668596921
0.041031631134772206 -3.7038060903552656 -5.631057961304578
0.04045071963369876 -3.6923673957793435 -5.65868815689573
0.03984697754961371 -3.680479145521397 -5.687404255370378
0.039220404882517025 -3.6681413395814277 -5.71720625672852
0.03857100163240874 -3.6553539779594355 -5.748094160970156
0.03789876779928882 -3.64211706065542 -5.780067968095289
0.03720370338315729 -3.6284305876693814 -5.813127678103917
0.036485808384014135 -3.614294559001319 -5.847273290996039
0.035745082801859354 -3.599708974651234 -5.8825048067716565
0.03498152663669297 -3.5846738346191263 -5.918822225430769
0.03419513988851495 -3.5691891389049943 -5.956225546973377
0.033385922557325316 -3.55325488750884 -5.9947147713994795
0.03255387464312406 -3.5368710804306622 -6.034289898709076
0.0316989961459112 -3.5200377176704616 -6.074950928902169
0.030821287065686695 -3.5027547992282373 -6.116697861978757
0.029920747402450588 -3.48502232510399 -6.15953069793884
0.028997377156202854 -3.46684029529772 -6.203449436782418
0.028051176326943497 -3.4482087098094256 -6.248454078509491
0.027082144914672535 -3.42912756863911 -6.294544623120059
0.026090282919389942 -3.409596871786769 -6.341721070614122
0.02507559034109573 -3.389616619252406 -6.389983420991681
0.0240380671797899 -3.36918681103602 -6.439331674252734
0.022977713435472454 -3.34830744713761 -6.489765830397282
0.021894529108143372 -3.326978527557178 -6.5412858894253265
0.020788514197802685 -3.305200052294722 -6.593891851336863
0.019659668704450375 -3.2829720213502434 -6.647583716131897
0.018507992628086445 -3.260294434723741 -6.702361483810425
0.017333485968710892 -3.2371672924152155 -6.758225154372449
0.01613614872632373 -3.213590594424667 -6.8151747278179675
0.014915980900924938 -3.1895643407520957 -6.873210204146981
0.013672982492514533 -3.1650885313975006 -6.93233158335949
0.014915980900924946 -3.22420067032143 -6.956829700744094
0.016136148726323744 -3.2822270760814507 -6.980877852707348
0.01733348596871092 -3.339167748677561 -7.004476039249252
0.018507992628086473 -3.3950226881097643 -7.027624260369807
0.019659668704450406 -3.4497918943780577 -7.050322516069012
0.02078851419780272 -3.5034753674824426 -7.0725708063468655
0.021894529108143417 -3.5560731074229186 -7.09436913120337
0.02297771343547249 -3.607585114199485 -7.115717490638525
0.024038067179789947 -3.658011387812143 -7.13661588465233
0.025075590341095785 -3.707351928260892 -7.157064313244786
0.026090282919389998 -3.7556067355457325 -7.177062776415892
0.027082144914672597 -3.802775809666663 -7.1966112741656465
0.028051176326943563 -3.848859150623686 -7.215709806494052
0.02899737715620293 -3.8938567584168 -7.234358373401108
0.029920747402450664 -3.937768633046004 -7.252556974886813
0.030821287065686778 -3.9805947745112995 -7.270305610951169
[...]
CELL_DATA 200

VECTORS Vinf float
5.23516611352326 -33.830631694112526 25.365043696964985
5.22102256140697 -33.87592609177214 25.34818146294023
5.204737412709379 -33.92878319033344 25.32850874702641
5.186351750874308 -33.98956492641709 25.30547766326
5.1661238652125805 -34.05746215769513 25.28024315477159
5.144159895227494 -34.13280886511646 25.252266532793733
5.120677585910899 -34.21555397217326 25.221571471624582
5.0967122701093714 -34.305332442412926 25.18843252166914
5.071315281249063 -34.402792112640135 25.15217216523018
5.045295737930437 -34.50751627604749 25.113194675343195
5.018969995488129 -34.61945038762734 25.07151073029307
4.9926614076806555 -34.73854101710075 25.02712847733064
4.966689886491303 -34.864737814542764 24.980052953300145
4.941360750814996 -34.9979954616641 24.930285643831894
4.916953827682283 -35.138275424110375 24.877824239870694
4.893713862495581 -35.28554731904494 24.822662635726353
4.871843230311489 -35.439789741668626 24.76479118820738
4.851497704345712 -35.60099045384885 24.704197224590835
4.832785656139751 -35.76914591968974 24.640865753497852
4.8149694359628805 -35.944833570046285 24.574378698167227
4.801722016607127 -36.12628747609367 24.50592867666806
4.789415265242661 -36.314866713751 24.434669082505142
4.7780738539575225 -36.51058750651744 24.360576069334453
4.764727457913935 -36.714569544255916 24.28256435065424
4.7560371627325075 -36.92469758746635 24.202466289121944
4.748866555883801 -37.14188185061718 24.119525818530644
4.743161861087064 -37.366137891203536 24.033733588936126
4.738877294291982 -37.59747893154908 23.945081816606134
4.735813881653242 -37.83717226321633 23.85199833904391
4.734530300644024 -38.08213713487641 23.7583354352024
4.734414164602391 -38.33438212793678 23.661601398928838
4.735623650850631 -38.59391486362156 23.56175582066039
4.7383031055391065 -38.86074624188044 23.458756535959974
4.742591847124659 -39.13488903067566 23.35256012692291
4.748631099460211 -39.41635691332842 23.243122192808936
4.753246224150395 -39.70388849270441 23.132661384690476
4.762676832435337 -39.999022507971276 23.018190138981325
4.7739174606527826 -40.30139977183329 22.900598187563354
4.787002523125889 -40.61104340179121 22.779853026923313
4.801872453954939 -40.92798884437922 22.655922549664336
4.823140593809986 -41.25088296186335 22.52963963552597
4.840086629769881 -41.58176374629043 22.400491361018993
4.85798122668828 -41.919880607791704 22.268387406771357
4.875891590109617 -42.26534542858375 22.133326505507586
4.8926878263187055 -42.61828449837047 21.995315439008518
4.90721780271283 -42.978817741829864 21.85437116396274
4.9179845839919505 -43.3470433059363 21.71055647791499
4.925144614481577 -43.723028538968954 21.563890993023403
4.928920665041317 -44.10664631470079 21.414427889982846
4.930150914492814 -44.4977849745616 21.26219608035676
4.931289398805761 -44.77189638182574 21.382844541260617
4.932712331227043 -44.923916389333314 21.77409020696995
4.931881959958625 -45.0733195863289 22.158150994582844
4.92771110013272 -45.22017683010085 22.535139052940842
4.917054835826217 -45.3643916852228 22.905811343412847
4.90556102691965 -45.50631913199128 23.26859816499125
4.891489350162197 -45.64552832406603 23.624475772072564
4.876099130223326 -45.78191994902788 23.973360895396212
4.860588446916443 -45.915405064777886 24.315160098578943
4.844435917510963 -46.04604380052936 24.649810704599368
4.83087962116192 -46.17371590096394 24.97697835671494
4.818538704222775 -46.29837646603012 25.29694180392374
4.807547321504053 -46.42002712004118 25.6096696489817
4.797899241179186 -46.538680722713174 25.915142786428376
4.789510961528085 -46.65435604790679 26.21335011253348
4.779206775477853 -46.766397116729074 26.50578225347254
4.776789735559964 -46.87752057387232 26.78720613125496
4.772110680941403 -46.98447348191938 27.063341052541936
4.768447225607305 -47.08851069138946 27.332168334646
4.765751577876233 -47.1896391526332 27.593689777473223
4.7640037590798965 -47.28786361261863 27.847905455775482
4.763210180213704 -47.383186864273625 28.094813643012703
4.764365679640322 -47.47577074815636 28.333961761504156
4.7651927278065775 -47.56524182360494 28.56641131279824
4.7672814333065565 -47.65174893676239 28.791591563457256
4.770662434126136 -47.73530068871525 29.0094893781567
4.775370959399799 -47.815905318258366 29.22009114891777
4.781438417665829 -47.89357119222835 29.423383426872533
4.788882898686236 -47.9683073057699 29.619353695289917
4.7976996146543405 -48.04012373577988 29.807991203341967
4.807852489630392 -48.109031988347695 29.989287760266535
4.822597998945981 -48.17592031920083 30.161495056145778
4.837891549668793 -48.239425756303625 30.327223812835356
4.855169805932116 -48.299988350341486 30.485568677132008
4.8743383688930395 -48.35762094816856 30.636527259573523
4.895240413783464 -48.412339317993 30.780102304706332
4.91765663835336 -48.46416196138794 30.91630196396853
4.941310701930602 -48.51310965478238 31.045139629112487
4.965258300593095 -48.5591658451533 31.166551352595448
4.990134094040226 -48.60240497435932 31.280765795634295
5.015220005060992 -48.6428493306112 31.38766419990187
5.040144135968815 -48.680518996803904 31.487274924321884
5.064546304953011 -48.71543264300624 31.57962648544895
5.088090406347283 -48.74760697602991 31.664746479308096
5.110473525954378 -48.77705638550754 31.74266071310388
5.131431592885654 -48.80379278618716 31.81339258037789
5.150741743658226 -48.82782563661275 31.876962681539467
5.16822185802682 -48.84916210147919 31.933388667187057
5.183727891675262 -48.86780731859331 31.982685265564974
5.197149691538961 -48.8837647305257 32.02486444744298
5.23516611352326 -33.830631694112526 25.365043696964985
5.22102256140697 -33.87592609177214 25.34818146294023
5.204737412709379 -33.92878319033344 25.32850874702641
5.186351750874308 -33.98956492641709 25.30547766326
5.1661238652125805 -34.05746215769513 25.28024315477159
5.144159895227494 -34.13280886511646 25.252266532793733
5.120677585910899 -34.21555397217326 25.221571471624582
5.0967122701093714 -34.305332442412926 25.18843252166914
5.071315281249063 -34.402792112640135 25.15217216523018
5.045295737930437 -34.50751627604749 25.113194675343195
5.018969995488129 -34.61945038762734 25.07151073029307
4.9926614076806555 -34.73854101710075 25.02712847733064
4.966689886491303 -34.864737814542764 24.980052953300145
4.941360750814996 -34.9979954616641 24.930285643831894
4.916953827682283 -35.138275424110375 24.877824239870694
4.893713862495581 -35.28554731904494 24.822662635726353
4.871843230311489 -35.439789741668626 24.76479118820738
4.851497704345712 -35.60099045384885 24.704197224590835
4.832785656139751 -35.76914591968974 24.640865753497852
4.8149694359628805 -35.944833570046285 24.574378698167227
4.801722016607127 -36.12628747609367 24.50592867666806
4.789415265242661 -36.314866713751 24.434669082505142
4.7780738539575225 -36.51058750651744 24.360576069334453
4.764727457913935 -36.714569544255916 24.28256435065424
4.7560371627325075 -36.92469758746635 24.202466289121944
4.748866555883801 -37.14188185061718 24.119525818530644
4.743161861087064 -37.366137891203536 24.033733588936126
4.738877294291982 -37.59747893154908 23.945081816606134
4.735813881653242 -37.83717226321633 23.85199833904391
4.734530300644024 -38.08213713487641 23.7583354352024
4.734414164602391 -38.33438212793678 23.661601398928838
4.735623650850631 -38.59391486362156 23.56175582066039
4.7383031055391065 -38.86074624188044 23.458756535959974
4.742591847124659 -39.13488903067566 23.35256012692291
4.748631099460211 -39.41635691332842 23.243122192808936
4.753246224150395 -39.70388849270441 23.132661384690476
4.762676832435337 -39.999022507971276 23.018190138981325
4.7739174606527826 -40.30139977183329 22.900598187563354
4.787002523125889 -40.61104340179121 22.779853026923313
4.801872453954939 -40.92798884437922 22.655922549664336
4.823140593809986 -41.25088296186335 22.52963963552597
4.840086629769881 -41.58176374629043 22.400491361018993
4.85798122668828 -41.919880607791704 22.268387406771357
4.875891590109617 -42.26534542858375 22.133326505507586
4.8926878263187055 -42.61828449837047 21.995315439008518
4.90721780271283 -42.978817741829864 21.85437116396274
4.9179845839919505 -43.3470433059363 21.71055647791499
4.925144614481577 -43.723028538968954 21.563890993023403
4.928920665041317 -44.10664631470079 21.414427889982846
4.930150914492814 -44.4977849745616 21.26219608035676
4.931289398805761 -44.77189638182574 21.382844541260617
4.932712331227043 -44.923916389333314 21.77409020696995
4.931881959958625 -45.0733195863289 22.158150994582844
4.92771110013272 -45.22017683010085 22.535139052940842
4.917054835826217 -45.3643916852228 22.905811343412847
4.90556102691965 -45.50631913199128 23.26859816499125
4.891489350162197 -45.64552832406603 23.624475772072564
4.876099130223326 -45.78191994902788 23.973360895396212
4.860588446916443 -45.915405064777886 24.315160098578943
4.844435917510963 -46.04604380052936 24.649810704599368
4.83087962116192 -46.17371590096394 24.97697835671494
4.818538704222775 -46.29837646603012 25.29694180392374
4.807547321504053 -46.42002712004118 25.6096696489817
4.797899241179186 -46.538680722713174 25.915142786428376
4.789510961528085 -46.65435604790679 26.21335011253348
4.779206775477853 -46.766397116729074 26.50578225347254
4.776789735559964 -46.87752057387232 26.78720613125496
4.772110680941403 -46.98447348191938 27.063341052541936
4.768447225607305 -47.08851069138946 27.332168334646
4.765751577876233 -47.1896391526332 27.593689777473223
4.7640037590798965 -47.28786361261863 27.847905455775482
4.763210180213704 -47.383186864273625 28.094813643012703
4.764365679640322 -47.47577074815636 28.333961761504156
4.7651927278065775 -47.56524182360494 28.56641131279824
4.7672814333065565 -47.65174893676239 28.791591563457256
4.770662434126136 -47.73530068871525 29.0094893781567
4.775370959399799 -47.815905318258366 29.22009114891777
4.781438417665829 -47.89357119222835 29.423383426872533
4.788882898686236 -47.9683073057699 29.619353695289917
4.7976996146543405 -48.04012373577988 29.807991203341967
4.807852489630392 -48.109031988347695 29.989287760266535
4.822597998945981 -48.17592031920083 30.161495056145778
4.837891549668793 -48.239425756303625 30.327223812835356
4.855169805932116 -48.299988350341486 30.485568677132008
4.8743383688930395 -48.35762094816856 30.636527259573523
4.895240413783464 -48.412339317993 30.780102304706332
4.91765663835336 -48.46416196138794 30.91630196396853
4.941310701930602 -48.51310965478238 31.045139629112487
4.965258300593095 -48.5591658451533 31.166551352595448
4.990134094040226 -48.60240497435932 31.280765795634295
5.015220005060992 -48.6428493306112 31.38766419990187
5.040144135968815 -48.680518996803904 31.487274924321884
5.064546304953011 -48.71543264300624 31.57962648544895
5.088090406347283 -48.74760697602991 31.664746479308096
5.110473525954378 -48.77705638550754 31.74266071310388
5.131431592885654 -48.80379278618716 31.81339258037789
5.150741743658226 -48.82782563661275 31.876962681539467
5.16822185802682 -48.84916210147919 31.933388667187057
5.183727891675262 -48.86780731859331 31.982685265564974
5.197149691538961 -48.8837647305257 32.02486444744298

VECTORS L float
0.05863042137893405 0.0 0.0
0.10601409680701139 0.0 0.0
0.15741143888816864 0.0 0.0
0.21455176516721003 0.0 0.0
0.27792776525310037 0.0 0.0
0.34769847683745214 0.0 0.0
0.42388398587312376 0.0 0.0
0.5064259816161306 0.0 0.0
0.595201936383249 0.0 0.0
0.6900402020521286 0.0 0.0
0.7907328870625615 0.0 0.0
0.8970206859272126 0.0 0.0
1.0086057920760856 0.0 0.0
1.1251579577441357 0.0 0.0
1.2463187460311167 0.0 0.0
1.3717129019376555 0.0 0.0
1.500958628128507 0.0 0.0
1.6336793868534538 0.0 0.0
1.7695101260129444 0.0 0.0
1.9081019972215578 0.0 0.0
2.049176827960842 0.0 0.0
2.1923999068170996 0.0 0.0
2.3374473544171885 0.0 0.0
2.4840353942679783 0.0 0.0
2.6320653805643777 0.0 0.0
2.7812027434261606 0.0 0.0
2.9315824604905916 0.0 0.0
3.082726601617645 0.0 0.0
3.234587577076743 0.0 0.0
3.38703001833534 0.0 0.0
3.5398743812613334 0.0 0.0
3.6929804796633663 0.0 0.0
3.8461736408188862 0.0 0.0
3.9992654627502136 0.0 0.0
4.151963558996623 0.0 0.0
4.303884033930699 0.0 0.0
4.45486675208645 0.0 0.0
4.6044029345473145 0.0 0.0
4.7518883384133295 0.0 0.0
4.896465282660176 0.0 0.0
5.037302523450374 0.0 0.0
5.172669654578494 0.0 0.0
5.3013440887768315 0.0 0.0
5.421755522526144 0.0 0.0
5.532191444504676 0.0 0.0
5.631297889528708 0.0 0.0
5.718296755149528 0.0 0.0
5.794378912618895 0.0 0.0
5.86510612698061 0.0 0.0
5.955275342634991 0.0 0.0
6.2164401841412085 0.0 0.0
6.245024014899507 0.0 0.0
6.290189666649626 0.0 0.0
6.326617143639623 0.0 0.0
6.347796283156641 0.0 0.0
6.352086910994578 0.0 0.0
6.339268029016005 0.0 0.0
6.310199823109152 0.0 0.0
6.266210131195531 0.0 0.0
6.208383421139869 0.0 0.0
6.138273745608817 0.0 0.0
6.056878691301467 0.0 0.0
5.965178864187213 0.0 0.0
5.8639142351485996 0.0 0.0
5.753726518125301 0.0 0.0
5.635071693290634 0.0 0.0
5.508913589238072 0.0 0.0
5.375181634122503 0.0 0.0
5.234341120869923 0.0 0.0
5.0867459722762405 0.0 0.0
4.9327344788880865 0.0 0.0
4.772673097582066 0.0 0.0
4.6068020362948365 0.0 0.0
4.435410119012729 0.0 0.0
4.258921469867005 0.0 0.0
4.0777482977255035 0.0 0.0
3.892335414771676 0.0 0.0
3.703172336020953 0.0 0.0
3.51080226324248 0.0 0.0
3.3158256667977355 0.0 0.0
3.1189171545039596 0.0 0.0
2.920836297657322 0.0 0.0
2.7222770452178584 0.0 0.0
2.524090714630019 0.0 0.0
2.3271655180669195 0.0 0.0
2.132431476667806 0.0 0.0
1.9408470720506112 0.0 0.0
1.753380640254483 0.0 0.0
1.570986944328318 0.0 0.0
1.3946067546026015 0.0 0.0
1.225119822965064 0.0 0.0
1.063343474996124 0.0 0.0
0.9100226475093302 0.0 0.0
0.7658164393394669 0.0 0.0
0.6312828449554979 0.0 0.0
0.5068670645087747 0.0 0.0
0.39283935606245873 0.0 0.0
0.2891904730384857 0.0 0.0
0.19525914640059913 0.0 0.0
0.10802699617169531 0.0 0.0
0.05863042137893405 0.0 0.0
0.10601409680701139 0.0 0.0
0.15741143888816864 0.0 0.0
0.21455176516721003 0.0 0.0
0.27792776525310037 0.0 0.0
0.34769847683745214 0.0 0.0
0.42388398587312376 0.0 0.0
0.5064259816161306 0.0 0.0
0.595201936383249 0.0 0.0
0.6900402020521286 0.0 0.0
0.7907328870625615 0.0 0.0
0.8970206859272126 0.0 0.0
1.0086057920760856 0.0 0.0
1.1251579577441357 0.0 0.0
1.2463187460311167 0.0 0.0
1.3717129019376555 0.0 0.0
1.500958628128507 0.0 0.0
1.6336793868534538 0.0 0.0
1.7695101260129444 0.0 0.0
1.9081019972215578 0.0 0.0
2.049176827960842 0.0 0.0
2.1923999068170996 0.0 0.0
2.3374473544171885 0.0 0.0
2.4840353942679783 0.0 0.0
2.6320653805643777 0.0 0.0
2.7812027434261606 0.0 0.0
2.9315824604905916 0.0 0.0
3.082726601617645 0.0 0.0
3.234587577076743 0.0 0.0
3.38703001833534 0.0 0.0
3.5398743812613334 0.0 0.0
3.6929804796633663 0.0 0.0
3.8461736408188862 0.0 0.0
3.9992654627502136 0.0 0.0
4.151963558996623 0.0 0.0
4.303884033930699 0.0 0.0
4.45486675208645 0.0 0.0
4.6044029345473145 0.0 0.0
4.7518883384133295 0.0 0.0
4.896465282660176 0.0 0.0
5.037302523450374 0.0 0.0
5.172669654578494 0.0 0.0
5.3013440887768315 0.0 0.0
5.421755522526144 0.0 0.0
5.532191444504676 0.0 0.0
5.631297889528708 0.0 0.0
5.718296755149528 0.0 0.0
5.794378912618895 0.0 0.0
5.86510612698061 0.0 0.0
5.955275342634991 0.0 0.0
6.2164401841412085 0.0 0.0
6.245024014899507 0.0 0.0
6.290189666649626 0.0 0.0
6.326617143639623 0.0 0.0
6.347796283156641 0.0 0.0
6.352086910994578 0.0 0.0
6.339268029016005 0.0 0.0
6.310199823109152 0.0 0.0
6.266210131195531 0.0 0.0
6.208383421139869 0.0 0.0
6.138273745608817 0.0 0.0
6.056878691301467 0.0 0.0
5.965178864187213 0.0 0.0
5.8639142351485996 0.0 0.0
5.753726518125301 0.0 0.0
5.635071693290634 0.0 0.0
5.508913589238072 0.0 0.0
5.375181634122503 0.0 0.0
5.234341120869923 0.0 0.0
5.0867459722762405 0.0 0.0
4.9327344788880865 0.0 0.0
4.772673097582066 0.0 0.0
4.6068020362948365 0.0 0.0
4.435410119012729 0.0 0.0
4.258921469867005 0.0 0.0
4.0777482977255035 0.0 0.0
3.892335414771676 0.0 0.0
3.703172336020953 0.0 0.0
3.51080226324248 0.0 0.0
3.3158256667977355 0.0 0.0
3.1189171545039596 0.0 0.0
2.920836297657322 0.0 0.0
2.7222770452178584 0.0 0.0
2.524090714630019 0.0 0.0
2.3271655180669195 0.0 0.0
2.132431476667806 0.0 0.0
1.9408470720506112 0.0 0.0
1.753380640254483 0.0 0.0
1.570986944328318 0.0 0.0
1.3946067546026015 0.0 0.0
1.225119822965064 0.0 0.0
1.063343474996124 0.0 0.0
0.9100226475093302 0.0 0.0
0.7658164393394669 0.0 0.0
0.6312828449554979 0.0 0.0
0.5068670645087747 0.0 0.0
0.39283935606245873 0.0 0.0
0.2891904730384857 0.0 0.0
0.19525914640059913 0.0 0.0
0.10802699617169531 0.0 0.0

SCALARS Gamma float
LOOKUP_TABLE default
0.4242590516207346
0.6521020029195566
0.83858135605634
1.0063791875137549
1.16311346735393
1.3121311558389062
1.455080198759965
1.5927967527437334
1.7256579700940629
1.8537884195340708
1.9771787585086318
2.095698267476343
2.209163268349368
2.317369098510655
2.4201087360582414
2.517198270807401
2.608492677288993
2.693898866786135
2.7733760609241624
2.8469339701706478
2.914695897724303
2.976709349122134
3.033048778577255
3.083848476628863
3.1294535838350224
3.1700296540954103
3.2057910892634887
3.2369528264584027
3.263728574800392
3.2863336375607997
3.304929324486243
3.3197045743488367
3.3308081100473905
3.338356545475646
3.3424222664017664
3.342980457494055
3.3401948329939177
3.33397302056325
3.324181293351561
3.310549028146084
3.2928684410191673
3.27041792294604
3.2428898502807297
3.209832843618761
3.1708254802181886
3.1256237927051753
3.074402891165649
3.01824898255121
2.9599268961457765
2.906588949256035
2.9006191502445717
2.94146979704844
2.986797901519975
3.0297956813377462
3.06784566819369
3.1001801630407417
3.126591674705189
3.1473498388074557
3.1628999460283107
3.1737049396350065
3.1803017338966466
3.1830308380598527
3.182185197973682
3.177981835327495
3.17056297250941
3.159965174120585
3.1465013256557963
3.1299050409664764
3.110188899120736
3.087291492310116
3.0611263521455556
3.0316067813404284
2.998547106748061
2.961764504838037
2.921138317872039
2.8765167755456305
2.8277435664855015
2.774666159975513
2.7171433337331146
2.655050087383449
2.5882945933098966
2.5168340452425815
2.440552478663068
2.359450065683962
2.2735556791085805
2.1829391433851306
2.087708893548752
1.988003203902129
1.8839728953450516
1.7757865031694184
1.6635754552364963
1.5474204553291915
1.427318347232763
1.3031255268738522
1.1744652061966316
1.0405823638484104
0.8999798235624019
0.7496473471409222
0.582760294388243
0.3790436893632842
0.4242590516207346
0.6521020029195566
0.83858135605634
1.0063791875137549
1.16311346735393
1.3121311558389062
1.455080198759965
1.5927967527437334
1.7256579700940629
1.8537884195340708
1.9771787585086318
2.095698267476343
2.209163268349368
2.317369098510655
2.4201087360582414
2.517198270807401
2.608492677288993
2.693898866786135
2.7733760609241624
2.8469339701706478
2.914695897724303
2.976709349122134
3.033048778577255
3.083848476628863
3.1294535838350224
3.1700296540954103
3.2057910892634887
3.2369528264584027
3.263728574800392
3.2863336375607997
3.304929324486243
3.3197045743488367
3.3308081100473905
3.338356545475646
3.3424222664017664
3.342980457494055
3.3401948329939177
3.33397302056325
3.324181293351561
3.310549028146084
3.2928684410191673
3.27041792294604
3.2428898502807297
3.209832843618761
3.1708254802181886
3.1256237927051753
3.074402891165649
3.01824898255121
2.9599268961457765
2.906588949256035
2.9006191502445717
2.94146979704844
2.986797901519975
3.0297956813377462
3.06784566819369
3.1001801630407417
3.126591674705189
3.1473498388074557
3.1628999460283107
3.1737049396350065
3.1803017338966466
3.1830308380598527
3.182185197973682
3.177981835327495
3.17056297250941
3.159965174120585
3.1465013256557963
3.1299050409664764
3.110188899120736
3.087291492310116
3.0611263521455556
3.0316067813404284
2.998547106748061
2.961764504838037
2.921138317872039
2.8765167755456305
2.8277435664855015
2.774666159975513
2.7171433337331146
2.655050087383449
2.5882945933098966
2.5168340452425815
2.440552478663068
2.359450065683962
2.2735556791085805
2.1829391433851306
2.087708893548752