# vtk DataFile Version 4.0
[MyVLM domain - lattices] 
ASCII
DATASET UNSTRUCTURED_GRID
POINTS 302 float
0.03418245623128639 -2.173190521241784 5.7654753141136945
0.03405815639044535 -2.1793709284777556 5.767132599132351
0.03391102596659269 -2.1866865125529875 5.7690942834401495
0.03374106495972841 -2.1951372734674797 5.771360367037089
0.033548273369852506 -2.2047232112212316 5.77393084992317
0.033332651196964984 -2.2154443258142438 5.776805732098391
0.03309419844106585 -2.227300617246516 5.779985013562754
0.03283291510215509 -2.240292085518049 5.783468694316258
0.032548801180232706 -2.254418730628841 5.787256774358903
0.032241856675298705 -2.269680552578894 5.791349253690689
0.031912081587353085 -2.2860775513682063 5.795746132311617
0.03155947591639584 -2.3036097269967795 5.800447410221685
0.03118403966242699 -2.3222770794646124 5.8054530874208945
0.03078577282544651 -2.342079608771705 5.810763163909245
0.030364675405454407 -2.3630173149180584 5.8163776396867375
0.02992074740245069 -2.3850901979036716 5.82229651475337
0.029453988816435354 -2.408298257728545 5.828519789109144
0.028964399647408386 -2.432641494392679 5.835047462754059
0.028451979895369805 -2.4581199078960725 5.841879535688116
0.02791672956031961 -2.484733498238726 5.849016007911313
0.027358648642257788 -2.51248226542064 5.856456879423652
0.02677773714118435 -2.541366209441814 5.864202150225132
0.0261739950570993 -2.571385330302248 5.872251820315752
0.02554742239000261 -2.602539628001942 5.880605889695514
0.02489801913989432 -2.6348291025408965 5.889264358364417
0.0242257853067744 -2.668253753919111 5.8982272263224615
0.023530720890642863 -2.7028135821365855 5.907494493569646
0.022812825891499706 -2.73850858719332 5.917066160105973
0.022072100309344925 -2.7753387690893145 5.92694222593144
0.02130854414417853 -2.8133041278245696 5.937122691046049
0.02052215739600051 -2.852404663399085 5.947607555449799
0.019712940064810874 -2.89264037581286 5.958396819142689
0.018880892150609615 -2.934011265065895 5.969490482124721
0.01802601365339674 -2.97651733115819 5.980888544395895
0.017148304573172245 -3.020158574089746 5.992591005956209
0.016247764909936128 -3.0649349938605615 6.004597866805664
0.015324394663688387 -3.1108465904706373 6.0169091269442605
0.014378193834429035 -3.157893363919973 6.029524786371998
0.01340916242215806 -3.2060753142085687 6.042444845088877
0.012417300426875466 -3.2553924413364244 6.055669303094897
0.01140260784858125 -3.30584474530354 6.069198160390058
0.010365084687275414 -3.357432226109917 6.08303141697436
0.00930473094295796 -3.4101548837555526 6.097169072847803
0.00822154661562888 -3.4640127182404497 6.111611128010387
0.007115531705288185 -3.519005729564606 6.126357582462113
0.005986686211935869 -3.5751339177280226 6.14140843620298
0.004835010135571934 -3.632397282730699 6.156763689232987
0.0036605034761963773 -3.6907958245726364 6.172423341552136
0.0024631662338092087 -3.7503295432538333 6.188387393160426
0.0012429984084104141 -3.8109984387742903 6.204655844057857
0.0 -3.872802511134008 6.221228694244429
0.0012429984084104092 -3.8562529842288384 6.283039016058563
0.0024631662338091983 -3.8400074282260093 6.343714046247539
0.003660503476196368 -3.82406584312552 6.403253784811358
0.004835010135571918 -3.8084282289273705 6.46165823175002
0.005986686211935848 -3.793094585631561 6.518927387063525
0.007115531705288158 -3.7780649132380915 6.57506125075187
0.008221546615628848 -3.763339211746961 6.630059822815058
0.009304730942957919 -3.7489174811581707 6.6839231032530915
0.01036508468727537 -3.734799721471721 6.736651092065964
0.0114026078485812 -3.7209859326876105 6.788243789253681
0.012417300426875413 -3.70747611480584 6.838701194816239
0.013409162422158004 -3.694270267826409 6.88802330875364
0.014378193834428976 -3.6813683917493187 6.936210131065883
0.015324394663688328 -3.6687704865745667 6.983261661752969
0.01624776490993606 -3.6564765523021556 7.029177900814897
0.017148304573172173 -3.644486588932084 7.073958848251668
0.018026013653396664 -3.6328005964643526 7.11760450406328
0.018880892150609542 -3.6214185748989602 7.160114868249735
0.019712940064810794 -3.610340524235909 7.201489940811033
0.02052215739600043 -3.5995664444751965 7.241729721747174
0.02130854414417844 -3.589096335616824 7.280834211058156
0.022072100309344835 -3.5789301976607923 7.3188034087439835
0.022812825891499605 -3.569068030607099 7.35563731480465
0.023530720890642762 -3.5595098344557465 7.39133592924016
0.024225785306774293 -3.5502556092067343 7.425899252050514
0.024898019139894215 -3.5413053548600613 7.459327283235707
0.025547422390002506 -3.5326590714157287 7.491620022795745
0.026173995057099185 -3.5243167588737347 7.522777470730626
0.02677773714118424 -3.5162784172340813 7.552799627040346
0.02735864864225768 -3.5085440464967674 7.581686491724913
0.027916729560319493 -3.501113646661793 7.609438064784319
0.028451979895369687 -3.4939872177291598 7.636054346218569
0.028964399647408268 -3.4871647596988655 7.6615353360276615
0.02945398881643522 -3.4806462725709113 7.685881034211596
0.029920747402450563 -3.4744317563452967 7.709091440770372
0.030364675405454282 -3.4685212110220216 7.731166555703991
0.030785772825446374 -3.462914636601087 7.752106379012453
0.031184039662426857 -3.4576120330824924 7.771910910695757
0.03155947591639571 -3.452613400466237 7.790580150753904
0.03191208158735295 -3.4479187387523225 7.808114099186894
0.032241856675298566 -3.4435280479407466 7.824512755994726
0.03254880118023257 -3.4394413280315113 7.8397761211774
0.03283291510215495 -3.4356585790246155 7.853904194734916
0.03309419844106571 -3.4321798009200584 7.866896976667273
0.03333265119696484 -3.429004993717843 7.878754466974475
0.03354827336985236 -3.426134157417967 7.889476665656519
0.03374106495972827 -3.4235672920204308 7.899063572713405
0.033911025966592546 -3.421304397525234 7.907515188145133
0.03405815639044521 -3.419345473932377 7.9148315119517045
0.034182456231286254 -3.41769052124186 7.921012544133117
0.04785543872380092 -1.7422457252849095 6.014281408065285
0.047731138882959885 -1.7484261325208812 6.0159386930839425
0.04758400845910722 -1.7557417165961131 6.01790037739174
0.04741404745224294 -1.7641924775106053 6.02016646098868
0.04722125586236704 -1.7737784152643572 6.022736943874761
0.04700563368947951 -1.78449952985737 6.025611826049983
0.04676718093358038 -1.7963558212896416 6.028791107514345
0.04650589759466962 -1.8093472895611744 6.032274788267849
0.04622178367274724 -1.8234739346719662 6.036062868310494
0.04591483916781324 -1.8387357566220195 6.040155347642281
0.045585064079867614 -1.8551327554113317 6.044552226263208
0.045232458408910374 -1.872664931039905 6.049253504173276
0.044857022154941514 -1.8913322835077377 6.054259181372486
0.044458755317961035 -1.9111348128148309 6.0595692578608364
0.044037657897968936 -1.9320725189611838 6.065183733638328
0.04359372989496522 -1.9541454019467972 6.071102608704961
0.04312697130894988 -1.9773534617716706 6.077325883060735
0.042637382139922915 -2.0016966984358047 6.08385355670565
0.04212496238788434 -2.027175111939198 6.090685629639706
0.04158971205283414 -2.0537887022818517 6.097822101862904
0.041031631134772324 -2.0815374694637656 6.105262973375242
0.04045071963369888 -2.1104214134849397 6.113008244176722
0.039846977549613825 -2.1404405343453736 6.121057914267343
0.03922040488251714 -2.1715948320450678 6.129411983647104
0.03857100163240885 -2.203884306584022 6.138070452316008
0.03789876779928893 -2.2373089579622367 6.147033320274052
0.03720370338315739 -2.271868786179711 6.156300587521237
0.03648580838401424 -2.3075637912364453 6.165872254057564
0.03574508280185946 -2.3443939731324406 6.175748319883031
0.03498152663669306 -2.382359331867695 6.18592878499764
0.03419513988851504 -2.42145986744221 6.196413649401389
0.033385922557325406 -2.461695579855985 6.207202913094281
0.03255387464312415 -2.5030664691090205 6.2182965760763125
0.031698996145911276 -2.5455725352013157 6.229694638347485
0.030821287065686775 -2.5892137781328715 6.2413970999077995
0.02992074740245066 -2.633990197903687 6.253403960757255
0.028997377156202923 -2.6799017945137624 6.265715220895852
0.028051176326943563 -2.7269485679630985 6.278330880323589
0.02708214491467259 -2.775130518251694 6.291250939040468
0.026090282919389998 -2.82444764537955 6.304475397046487
0.025075590341095782 -2.8748999493466663 6.318004254341648
0.024038067179789947 -2.9264874301530424 6.331837510925951
0.022977713435472495 -2.9792100877986787 6.345975166799394
0.02189452910814341 -3.0330679222835752 6.360417221961979
0.020788514197802716 -3.088060933607732 6.375163676413703
0.019659668704450402 -3.1441891217711486 6.39021453015457
0.018507992628086466 -3.2014524867738254 6.4055697831845775
0.01733348596871091 -3.259851028615762 6.421229435503727
0.01613614872632374 -3.319384747296959 6.437193487112017
0.014915980900924945 -3.380053642817416 6.453461938009448
0.013672982492514533 -3.4418577151771337 6.47003478819602
0.014915980900924941 -3.4253081882719645 6.531845110010154
0.016136148726323733 -3.4090626322691353 6.592520140199131
0.017333485968710902 -3.393121047168646 6.65205987876295
0.018507992628086452 -3.377483432970496 6.7104643257016106
0.019659668704450378 -3.3621497896746866 6.767733481015115
0.02078851419780269 -3.347120117281217 6.823867344703462
0.02189452910814338 -3.332394415790087 6.87886591676665
0.02297771343547245 -3.3179726852012967 6.932729197204681
0.0240380671797899 -3.3038549255148464 6.985457186017554
0.025075590341095733 -3.290041136730736 7.037049883205271
0.02609028291938995 -3.2765313188489658 7.087507288767829
0.027082144914672535 -3.2633254718695346 7.136829402705231
0.028051176326943504 -3.2504235957924443 7.185016225017472
0.02899737715620286 -3.2378256906176928 7.232067755704559
0.02992074740245059 -3.225531756345281 7.277983994766488
0.030821287065686702 -3.21354179297521 7.322764942203259
0.03169899614591121 -3.201855800507478 7.366410598014872
0.03255387464312407 -3.1904737789420867 7.408920962201328
[...]
CELL_DATA 200

VECTORS Vinf float
5.1706252979263585 40.72459347677722 11.39804188562615
5.156681661008514 40.7387269461309 11.444286211360232
5.140626737060974 40.75522453109435 11.498250474039368
5.122586871452654 40.774078362613594 11.559905658544663
5.102716699626881 40.79527844948263 11.629218043806718
5.08120100566455 40.81881243637848 11.706149377053439
5.058255445156985 40.84466543328818 11.790657288949665
5.034392699565732 40.8727029761158 11.883136310135054
5.009046913859096 40.9029943394619 11.98284719610161
4.9835424941211866 40.93574715925792 12.089597651966564
4.957645385645233 40.970727089796966 12.203800070264663
4.931698218551283 41.00790241927775 12.325417864053385
4.9060542204677136 41.0472393405855 12.454417598790668
4.881067122104652 41.08870266588995 12.59077074553315
4.857080891310476 41.13225660891929 12.734455229351989
4.834420316501755 41.17786556203327 12.885456596843857
4.8122999397522515 41.225971659531716 13.04242146155735
4.792202979066892 41.27585552662329 13.207499825235258
4.773710260688634 41.32779747147971 13.379783654506374
4.75688456368417 41.381786959546794 13.559286059774681
4.741749988283197 41.43781664508987 13.74602531164969
4.7282991638781535 41.495881991892986 13.940023020729036
4.716501366334336 41.55598077485016 14.141302378655693
4.70631061340809 41.618112526697594 14.349886627268935
4.697673039738249 41.68227798374929 14.5657978562306
4.6905331737753695 41.74847856599971 14.789056156658745
4.684839054287451 41.816715906517814 15.01967909751204
4.680546357463992 41.88699142829406 15.257681454998885
4.674754728781346 41.959693875481754 15.503694851839152
4.670911126605259 42.034212268258116 15.756265384842067
4.671640200787772 42.110568261516406 16.01633553071418
4.673542712032306 42.18895836526881 16.283905641651092
4.676695627450715 42.26936683938319 16.558996386148554
4.681176066074339 42.35177789611595 16.841628851283634
4.687064759470306 42.43617557257198 17.131824333930872
4.694445578813827 42.5225439618398 17.429604676530687
4.7055350733460255 42.610836370098134 17.732850957779863
4.716013102216936 42.701340731755494 18.044923382810712
4.728521658196877 42.79380336478425 18.364425314138945
4.743022040820379 42.88822192407496 18.691388325178504
4.759322511930874 42.98460656094009 19.025856879290707
4.777020674712158 43.08298359046263 19.367891495927914
4.794510920296207 43.18368406936062 19.717044320691993
4.812379104110328 43.28635175365996 20.074138496963585
4.828957858077821 43.391234556735085 20.438963530309792
4.843145789441099 43.4984157908599 20.811594497114505
4.854073942962837 43.60796636660215 21.1920736105543
4.861369840208706 43.719926579789394 21.580390585162345
4.865304971362242 43.834293621013835 21.976477680293794
4.866726295669116 43.95102204026897 22.38022619082343
4.868152940090551 44.21309722899379 22.525101827426102
4.869962646408549 44.61564961996208 22.408462189438907
4.869536211138093 45.01092845941345 22.294096707822685
4.8712689915952545 45.39961134736472 22.180218639043453
4.858193269839369 45.78013738858673 22.072111323386725
4.847119944471182 46.15413164069086 21.96440655695537
4.833441833065308 46.520973235669224 21.858829873379737
4.818326785620232 46.880548512498784 21.755343030160763
4.802902196532095 47.23274015876414 21.653921074308506
4.7880556250074 47.577450593111024 21.55455190594755
4.774367572556274 47.9146117885013 21.457233538405326
4.76213935126339 48.24418453099654 21.361970735300822
4.75146502676614 48.566152189948646 21.268772019729344
4.7423088620001765 48.88051316515617 21.17764743931469
4.734650229490367 49.18670230073647 21.091138028661447
4.728169979010749 49.48590408446174 21.004034312495726
4.722599689984536 49.777980588412106 20.917613197040296
4.718426201252117 50.06185456869893 20.83542053468165
4.715171884444904 50.338217999517504 20.75518576120666
4.7127854960251625 50.607073451110345 20.676928472219
4.711241878744698 50.86842080306941 20.60066736872191
4.710538084187007 51.12225758651127 20.52642048511549
4.712145518805162 51.368588910300666 20.453551127334517
4.713314995037951 51.60718293718901 20.383965958646527
4.7158448803358235 51.83822189267166 20.316395468065508
4.719739744154222 52.06170204810798 20.250855621590496
4.725021172833549 52.27761798068685 20.18736230521582
4.731723452082756 52.48596296430959 20.125931436638012
4.739887449517428 52.68672953198587 20.066579027280653
4.7495525499637665 52.87991022530093 20.009321182541253
4.7607468370959785 53.06549851727032 19.954174029906895
4.7750611586793665 53.243708805363106 19.89968565435628
4.790355347025568 53.41390870449549 19.849128056274136
4.80752535191276 53.57645923371062 19.800763513559126
4.826501495675352 53.73136490829941 19.75459961620227
4.847148557936819 53.878636359498806 19.710643344091167
4.869265996456922 54.01829041282279 19.668900746368145
4.892593613912255 54.15034965577421 19.62937667415471
4.916822042889424 54.27484154359257 19.592074592763808
4.941606773113055 54.391797154042656 19.55699648826143
4.9665840659675355 54.50124974056331 19.524142870921505
4.991387028353986 54.60323324327138 19.493512867068976
5.015660315114941 54.69778090208309 19.465104382636834
5.039072312913923 54.784924082885 19.43891431719935
5.061324127422802 54.8646913854829 19.414938806209914
5.082155157821294 54.9371080595153 19.39317347099492
5.101345431335262 55.0021957180168 19.373613659782787
5.118715150296941 55.059972311389416 19.356254667664206
5.134122067571607 55.11045230815032 19.341091928080854
5.147457366058425 55.153647021999056 19.328121172613724
5.1706252979263585 40.72459347677722 11.39804188562615
5.156681661008514 40.7387269461309 11.444286211360232
5.140626737060974 40.75522453109435 11.498250474039368
5.122586871452654 40.774078362613594 11.559905658544663
5.102716699626881 40.79527844948263 11.629218043806718
5.08120100566455 40.81881243637848 11.706149377053439
5.058255445156985 40.84466543328818 11.790657288949665
5.034392699565732 40.8727029761158 11.883136310135054
5.009046913859096 40.9029943394619 11.98284719610161
4.9835424941211866 40.93574715925792 12.089597651966564
4.957645385645233 40.970727089796966 12.203800070264663
4.931698218551283 41.00790241927775 12.325417864053385
4.9060542204677136 41.0472393405855 12.454417598790668
4.881067122104652 41.08870266588995 12.59077074553315
4.857080891310476 41.13225660891929 12.734455229351989
4.834420316501755 41.17786556203327 12.885456596843857
4.8122999397522515 41.225971659531716 13.04242146155735
4.792202979066892 41.27585552662329 13.207499825235258
4.773710260688634 41.32779747147971 13.379783654506374
4.75688456368417 41.381786959546794 13.559286059774681
4.741749988283197 41.43781664508987 13.74602531164969
4.7282991638781535 41.495881991892986 13.940023020729036
4.716501366334336 41.55598077485016 14.141302378655693
4.70631061340809 41.618112526697594 14.349886627268935
4.697673039738249 41.68227798374929 14.5657978562306
4.6905331737753695 41.74847856599971 14.789056156658745
4.684839054287451 41.816715906517814 15.01967909751204
4.680546357463992 41.88699142829406 15.257681454998885
4.674754728781346 41.959693875481754 15.503694851839152
4.670911126605259 42.034212268258116 15.756265384842067
4.671640200787772 42.110568261516406 16.01633553071418
4.673542712032306 42.18895836526881 16.283905641651092
4.676695627450715 42.26936683938319 16.558996386148554
4.681176066074339 42.35177789611595 16.841628851283634
4.687064759470306 42.43617557257198 17.131824333930872
4.694445578813827 42.5225439618398 17.429604676530687
4.7055350733460255 42.610836370098134 17.732850957779863
4.716013102216936 42.701340731755494 18.044923382810712
4.728521658196877 42.79380336478425 18.364425314138945
4.743022040820379 42.88822192407496 18.691388325178504
4.759322511930874 42.98460656094009 19.025856879290707
4.777020674712158 43.08298359046263 19.367891495927914
4.794510920296207 43.18368406936062 19.717044320691993
4.812379104110328 43.28635175365996 20.074138496963585
4.828957858077821 43.391234556735085 20.438963530309792
4.843145789441099 43.4984157908599 20.811594497114505
4.854073942962837 43.60796636660215 21.1920736105543
4.861369840208706 43.719926579789394 21.580390585162345
4.865304971362242 43.834293621013835 21.976477680293794
4.866726295669116 43.95102204026897 22.38022619082343
4.868152940090551 44.21309722899379 22.525101827426102
4.869962646408549 44.61564961996208 22.408462189438907
4.869536211138093 45.01092845941345 22.294096707822685
4.8712689915952545 45.39961134736472 22.180218639043453
4.858193269839369 45.78013738858673 22.072111323386725
4.847119944471182 46.15413164069086 21.96440655695537
4.833441833065308 46.520973235669224 21.858829873379737
4.818326785620232 46.880548512498784 21.755343030160763
4.802902196532095 47.23274015876414 21.653921074308506
4.7880556250074 47.577450593111024 21.55455190594755
4.774367572556274 47.9146117885013 21.457233538405326
4.76213935126339 48.24418453099654 21.361970735300822
4.75146502676614 48.566152189948646 21.268772019729344
4.7423088620001765 48.88051316515617 21.17764743931469
4.734650229490367 49.18670230073647 21.091138028661447
4.728169979010749 49.48590408446174 21.004034312495726
4.722599689984536 49.777980588412106 20.917613197040296
4.718426201252117 50.06185456869893 20.83542053468165
4.715171884444904 50.338217999517504 20.75518576120666
4.7127854960251625 50.607073451110345 20.676928472219
4.711241878744698 50.86842080306941 20.60066736872191
4.710538084187007 51.12225758651127 20.52642048511549
4.712145518805162 51.368588910300666 20.453551127334517
4.713314995037951 51.60718293718901 20.383965958646527
4.7158448803358235 51.83822189267166 20.316395468065508
4.719739744154222 52.06170204810798 20.250855621590496
4.725021172833549 52.27761798068685 20.18736230521582
4.731723452082756 52.48596296430959 20.125931436638012
4.739887449517428 52.68672953198587 20.066579027280653
4.7495525499637665 52.87991022530093 20.009321182541253
4.7607468370959785 53.06549851727032 19.954174029906895
4.7750611586793665 53.243708805363106 19.89968565435628
4.790355347025568 53.41390870449549 19.849128056274136
4.80752535191276 53.57645923371062 19.800763513559126
4.826501495675352 53.73136490829941 19.75459961620227
4.847148557936819 53.878636359498806 19.710643344091167
4.869265996456922 54.01829041282279 19.668900746368145
4.892593613912255 54.15034965577421 19.62937667415471
4.916822042889424 54.27484154359257 19.592074592763808
4.941606773113055 54.391797154042656 19.55699648826143
4.9665840659675355 54.50124974056331 19.524142870921505
4.991387028353986 54.60323324327138 19.493512867068976
5.015660315114941 54.69778090208309 19.465104382636834
5.039072312913923 54.784924082885 19.43891431719935
5.061324127422802 54.8646913854829 19.414938806209914
5.082155157821294 54.9371080595153 19.39317347099492
5.101345431335262 55.0021957180168 19.373613659782787
5.118715150296941 55.059972311389416 19.356254667664206
5.134122067571607 55.11045230815032 19.341091928080854
5.147457366058425 55.153647021999056 19.328121172613724

VECTORS L float
0.05768057338984226 0.0 0.0
0.10429499925997635 0.0 0.0
0.15485601416227887 0.0 0.0
0.2110651812967553 0.0 0.0
0.27340761389205265 0.0 0.0
0.34203981091616814 0.0 0.0
0.4169816893046255 0.0 0.0
0.4981763154177225 0.0 0.0
0.5854988100880871 0.0 0.0
0.6787868741137685 0.0 0.0
0.7778274089906535 0.0 0.0
0.882365887820303 0.0 0.0
0.9921092644386654 0.0 0.0
1.1067310742957275 0.0 0.0
1.225878532296888 0.0 0.0
1.349181956677695 0.0 0.0
1.4762549572215549 0.0 0.0
1.606734546644868 0.0 0.0
1.7402514504628126 0.0 0.0
1.8764757518044068 0.0 0.0
2.0150906124127776 0.0 0.0
2.1558220633965908 0.0 0.0
2.298393682700942 0.0 0.0
2.4425540804318464 0.0 0.0
2.5880814063248665 0.0 0.0
2.734777364544424 0.0 0.0
2.8824622034506002 0.0 0.0
3.0309659312577244 0.0 0.0
3.1800840238687553 0.0 0.0
3.3297800090484824 0.0 0.0
3.479989709111473 0.0 0.0
3.6304966698043732 0.0 0.0
3.7811148755691493 0.0 0.0
3.9316375913363832 0.0 0.0
4.081818034641403 0.0 0.0
4.231354869224521 0.0 0.0
4.379906116636144 0.0 0.0
4.526842734222391 0.0 0.0
4.671623639228173 0.0 0.0
4.813487761137016 0.0 0.0
4.9514650833450045 0.0 0.0
5.084348541165561 0.0 0.0
5.21072691926506 0.0 0.0
5.32902020028145 0.0 0.0
5.437595812377769 0.0 0.0
5.535035332016605 0.0 0.0
5.620668624082878 0.0 0.0
5.695647571738336 0.0 0.0
5.765400929755029 0.0 0.0
5.854115178671996 0.0 0.0
6.10585205378833 0.0 0.0
6.134619379222622 0.0 0.0
6.17960229726995 0.0 0.0
6.216393503113862 0.0 0.0
6.237515520603961 0.0 0.0
6.242109845668428 0.0 0.0
6.229860079017103 0.0 0.0
6.201591843150579 0.0 0.0
6.158566111378679 0.0 0.0
6.102074759913984 0.0 0.0
6.033459855354225 0.0 0.0
5.9537719406091965 0.0 0.0
5.863955658849367 0.0 0.0
5.764753722082217 0.0 0.0
5.656867411170489 0.0 0.0
5.540789469648168 0.0 0.0
5.416965488727482 0.0 0.0
5.285808135964056 0.0 0.0
5.1476608561225365 0.0 0.0
5.00287012342259 0.0 0.0
4.851694956013094 0.0 0.0
4.694488482909321 0.0 0.0
4.5316112253544505 0.0 0.0
4.363293107076589 0.0 0.0
4.189966955648554 0.0 0.0
4.012025794607854 0.0 0.0
3.8299008594775166 0.0 0.0
3.6440740545855865 0.0 0.0
3.455059488871561 0.0 0.0
3.2634454199082295 0.0 0.0
3.069878494403936 0.0 0.0
2.8750884957979244 0.0 0.0
2.6797937039471935 0.0 0.0
2.4848300358219615 0.0 0.0
2.2910786546034205 0.0 0.0
2.0994584844998285 0.0 0.0
1.9109172248937514 0.0 0.0
1.7264128915767065 0.0 0.0
1.5468893683993166 0.0 0.0
1.3732687275061977 0.0 0.0
1.206419986970132 0.0 0.0
1.04715135203761 0.0 0.0
0.8961979355822314 0.0 0.0
0.7542093714069 0.0 0.0
0.6217389859023225 0.0 0.0
0.49922093088945335 0.0 0.0
0.38692580014731676 0.0 0.0
0.28484653462091325 0.0 0.0
0.19233330664828593 0.0 0.0
0.10641403331973709 0.0 0.0
0.05768057338984226 0.0 0.0
0.10429499925997635 0.0 0.0
0.15485601416227887 0.0 0.0
0.2110651812967553 0.0 0.0
0.27340761389205265 0.0 0.0
0.34203981091616814 0.0 0.0
0.4169816893046255 0.0 0.0
0.4981763154177225 0.0 0.0
0.5854988100880871 0.0 0.0
0.6787868741137685 0.0 0.0
0.7778274089906535 0.0 0.0
0.882365887820303 0.0 0.0
0.9921092644386654 0.0 0.0
1.1067310742957275 0.0 0.0
1.225878532296888 0.0 0.0
1.349181956677695 0.0 0.0
1.4762549572215549 0.0 0.0
1.606734546644868 0.0 0.0
1.7402514504628126 0.0 0.0
1.8764757518044068 0.0 0.0
2.0150906124127776 0.0 0.0
2.1558220633965908 0.0 0.0
2.298393682700942 0.0 0.0
2.4425540804318464 0.0 0.0
2.5880814063248665 0.0 0.0
2.734777364544424 0.0 0.0
2.8824622034506002 0.0 0.0
3.0309659312577244 0.0 0.0
3.1800840238687553 0.0 0.0
3.3297800090484824 0.0 0.0
3.479989709111473 0.0 0.0
3.6304966698043732 0.0 0.0
3.7811148755691493 0.0 0.0
3.9316375913363832 0.0 0.0
4.081818034641403 0.0 0.0
4.231354869224521 0.0 0.0
4.379906116636144 0.0 0.0
4.526842734222391 0.0 0.0
4.671623639228173 0.0 0.0
4.813487761137016 0.0 0.0
4.9514650833450045 0.0 0.0
5.084348541165561 0.0 0.0
5.21072691926506 0.0 0.0
5.32902020028145 0.0 0.0
5.437595812377769 0.0 0.0
5.535035332016605 0.0 0.0
5.620668624082878 0.0 0.0
5.695647571738336 0.0 0.0
5.765400929755029 0.0 0.0
5.854115178671996 0.0 0.0
6.10585205378833 0.0 0.0
6.134619379222622 0.0 0.0
6.17960229726995 0.0 0.0
6.216393503113862 0.0 0.0
6.237515520603961 0.0 0.0
6.242109845668428 0.0 0.0
6.229860079017103 0.0 0.0
6.201591843150579 0.0 0.0
6.158566111378679 0.0 0.0
6.102074759913984 0.0 0.0
6.033459855354225 0.0 0.0
5.9537719406091965 0.0 0.0
5.863955658849367 0.0 0.0
5.764753722082217 0.0 0.0
5.656867411170489 0.0 0.0
5.540789469648168 0.0 0.0
5.416965488727482 0.0 0.0
5.285808135964056 0.0 0.0
5.1476608561225365 0.0 0.0
5.00287012342259 0.0 0.0
4.851694956013094 0.0 0.0
4.694488482909321 0.0 0.0
4.5316112253544505 0.0 0.0
4.363293107076589 0.0 0.0
4.189966955648554 0.0 0.0
4.012025794607854 0.0 0.0
3.8299008594775166 0.0 0.0
3.6440740545855865 0.0 0.0
3.455059488871561 0.0 0.0
3.2634454199082295 0.0 0.0
3.069878494403936 0.0 0.0
2.8750884957979244 0.0 0.0
2.6797937039471935 0.0 0.0
2.4848300358219615 0.0 0.0
2.2910786546034205 0.0 0.0
2.0994584844998285 0.0 0.0
1.9109172248937514 0.0 0.0
1.7264128915767065 0.0 0.0
1.5468893683993166 0.0 0.0
1.3732687275061977 0.0 0.0
1.206419986970132 0.0 0.0
1.04715135203761 0.0 0.0
0.8961979355822314 0.0 0.0
0.7542093714069 0.0 0.0
0.6217389859023225 0.0 0.0
0.49922093088945335 0.0 0.0
0.38692580014731676 0.0 0.0
0.28484653462091325 0.0 0.0
0.19233330664828593 0.0 0.0
0.10641403331973709 0.0 0.0

SCALARS Gamma float
LOOKUP_TABLE default
0.4173341127876162
0.6414539520451477
0.8248821368767635
0.9899301614508976
1.1440934976336157
1.290664461984398
1.4312644870066686
1.5667169390211129
1.69738044969948
1.8233963979350833
1.944733116919622
2.061265929932914
2.1728157843384124
2.2791796997955314
2.3801554016920488
2.4755622562373034
2.565241122532738
2.6491160382797934
2.727133468415756
2.7993249875186463
2.8657544510222017
2.926550642644016
2.9818378477288867
3.0317705407004674
3.0765327890474885
3.116325693233462
3.151358367882743
3.181836735990262
3.207922234237877
3.2299288510594546
3.248115120112359
3.2625848700160187
3.2734680660080175
3.2808743360898758
3.2848807699787352
3.2855261797393402
3.282826389569974
3.2766055066173734
3.2667839513995367
3.2531600619290706
3.235438037426154
3.21322806703149
3.1860841914457643
3.1535373202596384
3.11516731673367
3.07074077242397
3.020453614782112
2.9653614747268353
2.9081679394861557
2.855897486762922
2.850209547900408
2.890591328394277
2.9354402286520416
2.9782019839663008
3.0157834770686316
3.0477803726339934
3.0739422426697547
3.0945238237054746
3.1099799414330596
3.120780342867974
3.1274247149465033
3.1302712142800653
3.1296263016826034
3.125692433034459
3.118648856578555
3.1085593599872263
3.0954538166236447
3.0793345890402914
3.060153338576666
3.037849324356587
3.012293249796014
2.9833928765327364
2.9510424331788965
2.9150299130138957
2.8752475419596553
2.831538866296311
2.7837464143938284
2.7317209261360476
2.6753086953891234
2.614383855859731
2.5488409253020277
2.4786198793326535
2.4036324877186908
2.3238752954721464
2.2393807151609098
2.1502187838535147
2.0564985199760484
1.9583594213048154
1.8559531154251079
1.7494392887403456
1.6389486331201393
1.5245631607484609
1.4062801928993984
1.2839571477238394
1.1572271869423387
1.025336218486514
0.8868137731569301
0.7386950753565288
0.5742559694839221
0.37351761732740485
0.4173341127876162
0.6414539520451477
0.8248821368767635
0.9899301614508976
1.1440934976336157
1.290664461984398
1.4312644870066686
1.5667169390211129
1.69738044969948
1.8233963979350833
1.944733116919622
2.061265929932914
2.1728157843384124
2.2791796997955314
2.3801554016920488
2.4755622562373034
2.565241122532738
2.6491160382797934
2.727133468415756
2.7993249875186463
2.8657544510222017
2.926550642644016
2.9818378477288867
3.0317705407004674
3.0765327890474885
3.116325693233462
3.151358367882743
3.181836735990262
3.207922234237877
3.2299288510594546
3.248115120112359
3.2625848700160187
3.2734680660080175
3.2808743360898758
3.2848807699787352
3.2855261797393402
3.282826389569974
3.2766055066173734
3.2667839513995367
3.2531600619290706
3.235438037426154
3.21322806703149
3.1860841914457643
3.1535373202596384
3.11516731673367
3.07074077242397
3.020453614782112
2.9653614747268353
2.9081679394861557
2.855897486762922
2.850209547900408
2.890591328394277
2.9354402286520416
2.9782019839663008
3.0157834770686316
3.0477803726339934
3.0739422426697547
3.0945238237054746
3.1099799414330596
3.120780342867974
3.1274247149465033
3.1302712142800653
3.1296263016826034
3.125692433034459
3.118648856578555
3.1085593599872263
3.0954538166236447
3.0793345890402914
3.060153338576666
3.037849324356587
3.012293249796014
2.9833928765327364
2.9510424331788965
2.9150299130138957
2.8752475419596553
2.831538866296311
2.7837464143938284
2.7317209261360476
2.6753086953891234
2.614383855859731
2.5488409253020277
2.4786198793326535
2.4036324877186908
2.3238752954721464
2.2393807151609098
2.1502187838535147
2.0564985199760484
1.9583594213048154
1.8559531154251079
1.7494392887403456
1.6389486331201393
1.5245631607484609
1.4062801928993984