# vtk DataFile Version 4.0
[MyVLM domain - lattices] 
ASCII
DATASET UNSTRUCTURED_GRID
POINTS 302 float
0.03418245623128643 -3.169609256222531 5.2978336040467084
0.034058156390445384 -3.175983553708653 5.298392494728265
0.03391102596659273 -3.1835286405289613 5.299054038800313
0.033741064959728444 -3.192244516683455 5.29981823626285
0.03354827336985254 -3.2021311821721348 5.300685087115879
0.03333265119696502 -3.213188636995 5.301654591359396
0.033094198441065883 -3.225416881152051 5.302726748993404
0.032832915102155115 -3.238815914643288 5.303901560017902
0.032548801180232734 -3.25338573746871 5.305179024432891
0.03224185667529873 -3.2691263496283183 5.3065591422383696
0.03191208158735311 -3.2860377511221124 5.308041913434338
0.03155947591639587 -3.304119941950092 5.309627338020796
0.031184039662427016 -3.323372922112257 5.311315415997745
0.030785772825446537 -3.343796691608608 5.313106147365184
0.030364675405454435 -3.365391250439145 5.314999532123114
0.029920747402450716 -3.3881565986038678 5.316995570271533
0.029453988816435375 -3.412092736102776 5.3190942618104415
0.028964399647408406 -3.43719966293587 5.321295606739842
0.028451979895369833 -3.4634773791031503 5.323599605059731
0.027916729560319632 -3.490925884604615 5.3260062567701105
0.027358648642257816 -3.5195451794402666 5.32851556187098
0.026777737141184376 -3.5493352636101037 5.33112752036234
0.026173995057099313 -3.5802961371141264 5.333842132244191
0.025547422390002638 -3.612427799952335 5.336659397516531
0.02489801913989434 -3.645730252124729 5.339579316179361
0.024225785306774425 -3.680203493631309 5.342601888232682
0.023530720890642884 -3.7158475244720743 5.345727113676492
0.022812825891499727 -3.752662344647026 5.3489549925107935
0.022072100309344946 -3.7906479541561633 5.352285524735585
0.02130854414417855 -3.829804352999486 5.355718710350866
0.02052215739600053 -3.8701315411769945 5.359254549356637
0.019712940064810894 -3.911629518688689 5.362893041752898
0.018880892150609636 -3.9542982855345685 5.366634187539649
0.01802601365339676 -3.998137841714635 5.370477986716891
0.017148304573172263 -4.043148187228886 5.374424439284622
0.01624776490993614 -4.089329322077323 5.378473545242844
0.015324394663688401 -4.136681246259947 5.382625304591556
0.01437819383442905 -4.185203959776755 5.386879717330759
0.013409162422158075 -4.23489746262775 5.391236783460451
0.012417300426875479 -4.285761754812929 5.395696502980633
0.011402607848581261 -4.337796836332296 5.400258875891306
0.010365084687275424 -4.391002707185847 5.404923902192468
0.00930473094295797 -4.445379367373585 5.409691581884121
0.008221546615628886 -4.500926816895507 5.4145619149662645
0.007115531705288193 -4.557645055751617 5.419534901438897
0.005986686211935875 -4.6155340839419114 5.4246105413020205
0.004835010135571937 -4.674593901466392 5.429788834555634
0.0036605034761963812 -4.734824508325057 5.435069781199737
0.002463166233809211 -4.796225904517909 5.440453381234331
0.0012429984084104152 -4.858798090044947 5.445939634659414
0.0 -4.92254106490617 5.451528541474988
0.0012429984084104096 -4.916976212245318 5.51527362080206
0.0024631662338091987 -4.911513571163952 5.577847872141493
0.00366050347619637 -4.906153141662071 5.639251295493285
0.00483501013557192 -4.900894923739674 5.699483890857437
0.00598668621193585 -4.895738917396764 5.758545658233948
0.007115531705288159 -4.890685122633337 5.81643659762282
0.008221546615628851 -4.8857335394493955 5.873156709024052
0.00930473094295792 -4.88088416784494 5.928705992437643
0.010365084687275372 -4.876137007819969 5.983084447863594
0.011402607848581204 -4.871492059374482 6.036292075301906
0.012417300426875418 -4.866949322508481 6.088328874752577
0.013409162422158007 -4.862508797221965 6.139194846215608
0.014378193834428978 -4.858170483514934 6.188889989690999
0.015324394663688335 -4.853934381387388 6.23741430517875
0.016247764909936065 -4.849800490839327 6.284767792678861
0.017148304573172176 -4.845768811870751 6.330950452191331
0.01802601365339667 -4.841839344481659 6.375962283716162
0.01888089215060955 -4.838012088672054 6.419803287253353
0.0197129400648108 -4.834287044441933 6.462473462802903
0.020522157396000437 -4.830664211791297 6.503972810364814
0.021308544144178446 -4.827143590720146 6.544301329939082
0.022072100309344842 -4.82372518122848 6.583459021525713
0.022812825891499612 -4.820408983316299 6.621445885124704
0.02353072089064277 -4.817194996983603 6.658261920736054
0.024225785306774304 -4.814083222230392 6.693907128359762
0.02489801913989422 -4.8110736590566665 6.728381507995833
0.02554742239000252 -4.808166307462426 6.761685059644263
0.026173995057099192 -4.80536116744767 6.793817783305053
0.026777737141184248 -4.8026582390124 6.8247796789782
0.027358648642257687 -4.800057522156614 6.85457074666371
0.027916729560319497 -4.797559016880314 6.88319098636158
0.028451979895369694 -4.7951627231834975 6.910640398071809
0.02896439964740827 -4.792868641066168 6.936918981794396
0.029453988816435222 -4.7906767705283215 6.962026737529346
0.02992074740245057 -4.788587111569961 6.985963665276655
0.03036467540545429 -4.786599664191086 7.008729765036324
0.030785772825446377 -4.784714428391695 7.030325036808352
0.031184039662426864 -4.78293140417179 7.050749480592741
0.03155947591639572 -4.78125059153137 7.070003096389489
0.03191208158735297 -4.779671990470434 7.088085884198597
0.03224185667529858 -4.778195600988983 7.104997844020066
0.03254880118023258 -4.776821423087018 7.120738975853893
0.03283291510215496 -4.775549456764538 7.135309279700081
0.03309419844106572 -4.774379702021543 7.14870875555863
0.033332651196964845 -4.773312158858032 7.1609374034295366
0.03354827336985237 -4.772346827274007 7.171995223312804
0.03374106495972828 -4.771483707269467 7.181882215208431
0.03391102596659255 -4.770722798844411 7.190598379116419
0.03405815639044522 -4.770064101998841 7.1981437150367675
0.03418245623128626 -4.769507616732756 7.204518222969475
0.047855438723800964 -2.7884162048511203 5.61769255285995
0.04773113888295993 -2.7947905023372424 5.6182514435415065
0.04758400845910727 -2.8023355891575505 5.618912987613554
0.04741404745224298 -2.8110514653120444 5.619677185076092
0.047221255862367084 -2.820938130800724 5.62054403592912
0.04700563368947956 -2.831995585623589 5.6215135401726375
0.04676718093358042 -2.84422382978064 5.622585697806645
0.04650589759466965 -2.857622863271877 5.623760508831144
0.04622178367274728 -2.872192686097299 5.625037973246132
0.045914839167813276 -2.8879332982569075 5.626418091051611
0.045585064079867656 -2.9048446997507016 5.6279008622475795
0.045232458408910416 -2.922926890578681 5.629486286834037
0.044857022154941556 -2.9421798707408464 5.631174364810986
0.04445875531796108 -2.9626036402371976 5.632965096178426
0.04403765789796898 -2.9841981990677344 5.634858480936355
0.04359372989496525 -3.006963547232457 5.636854519084774
0.043126971308949914 -3.0308996847313656 5.638953210623683
0.04263738213992295 -3.0560066115644595 5.641154555553083
0.04212496238788437 -3.0822843277317395 5.643458553872972
0.041589712052834175 -3.109732833233205 5.645865205583352
0.04103163113477236 -3.138352128068856 5.648374510684222
0.040450719633698916 -3.1681422122386933 5.650986469175582
0.03984697754961386 -3.1991030857427156 5.653701081057433
0.03922040488251718 -3.2312347485809245 5.656518346329772
0.03857100163240888 -3.264537200753318 5.659438264992603
0.037898767799288954 -3.2990104422598976 5.6624608370459235
0.03720370338315743 -3.334654473100664 5.665586062489734
0.036485808384014266 -3.371469293275615 5.668813941324035
0.035745082801859486 -3.409454902784752 5.672144473548825
0.03498152663669309 -3.4486113016280755 5.675577659164107
0.034195139888515066 -3.488938489805584 5.679113498169878
0.033385922557325434 -3.5304364673172786 5.682751990566139
0.032553874643124175 -3.573105234163158 5.68649313635289
0.0316989961459113 -3.616944790343224 5.690336935530132
0.030821287065686803 -3.661955135857476 5.694283388097864
0.02992074740245068 -3.708136270705913 5.6983324940560856
0.028997377156202944 -3.755488194888536 5.702484253404798
0.02805117632694358 -3.8040109084053446 5.706738666144
0.02708214491467261 -3.853704411256339 5.711095732273693
0.026090282919390022 -3.904568703441519 5.7155554517938745
0.025075590341095803 -3.9566037849608855 5.720117824704547
0.024038067179789964 -4.009809655814436 5.72478285100571
0.02297771343547251 -4.064186316002174 5.729550530697362
0.021894529108143428 -4.1197337655240975 5.734420863779506
0.020788514197802734 -4.176452004380206 5.739393850252139
0.019659668704450416 -4.234341032570501 5.744469490115262
0.018507992628086476 -4.293400850094981 5.749647783368875
0.017333485968710923 -4.3536314569536465 5.7549287300129786
0.016136148726323754 -4.415032853146498 5.760312330047572
0.014915980900924958 -4.477605038673536 5.765798583472655
0.013672982492514541 -4.541348013534759 5.771387490288229
0.01491598090092495 -4.535783160873908 5.835132569615301
0.01613614872632374 -4.530320519792541 5.897706820954734
0.01733348596871091 -4.52496009029066 5.959110244306526
0.018507992628086462 -4.519701872368264 6.019342839670678
0.01965966870445039 -4.514545866025353 6.078404607047189
0.0207885141978027 -4.509492071261926 6.136295546436061
0.02189452910814339 -4.504540488077985 6.193015657837293
0.022977713435472464 -4.499691116473529 6.248564941250884
0.024038067179789912 -4.494943956448558 6.302943396676835
0.025075590341095747 -4.490299008003071 6.356151024115147
0.026090282919389952 -4.48575627113707 6.408187823565818
0.027082144914672552 -4.481315745850554 6.459053795028849
0.028051176326943515 -4.476977432143523 6.50874893850424
0.02899737715620287 -4.472741330015977 6.557273253991992
0.0299207474024506 -4.468607439467916 6.604626741492102
0.030821287065686716 -4.46457576049934 6.650809401004573
0.031698996145911214 -4.460646293110249 6.695821232529402
0.032553874643124085 -4.456819037300643 6.739662236066594
0.03338592255732534 -4.453093993070522 6.782332411616145
[...]
CELL_DATA 200

VECTORS Vinf float
5.151647019888154 38.12130121829235 18.309239655878848
5.137773166393444 38.12720512560695 18.357219989872842
5.121798444915799 38.1340988938935 18.413210848360364
5.103848525160202 38.14197963239219 18.477182316986244
5.084077237412413 38.15084314964985 18.549099502959848
5.0626684291248925 38.16068368519483 18.6289226700736
5.03983669211212 38.171493670301835 18.71660762233563
5.015826561156894 38.183263542920116 18.812106388361023
4.990909845230183 38.19598164285601 18.915368239521026
4.96538087338062 38.20963421165413 19.02634104514164
4.939549621911278 38.22420551654145 19.144972928633933
4.913732929156279 38.239678108888725 19.271214142588313
4.888244275208383 38.25603321514003 19.405019034565477
4.863382866797666 38.27325124313849 19.546347936996984
4.839422970973334 38.291312371211745 19.695168793911847
4.816604531962323 38.31019717394829 19.851458342745175
4.801870608715124 38.32655787200437 20.021229303266498
4.7713635684261515 38.35358566547699 20.181223688777372
4.755488953773628 38.37354885652986 20.362042835047223
4.740818279365282 38.394439063748834 20.550087531020086
4.727408616114145 38.41626689330776 20.745317621425816
4.715294327287347 38.43904525928387 20.947693879699152
4.704493957040025 38.46278925520452 21.157176388570722
4.695017309533439 38.487515931936095 21.373723090050774
4.686872133961399 38.51324400904605 21.59728860187089
4.680070110426963 38.53999354111571 21.827823329572507
4.65810349666309 38.57394773789415 22.054142014791147
4.656299420241366 38.60018518396362 22.303593467552282
4.655418394847498 38.62737765985092 22.560316638451987
4.655521884987205 38.65553630198456 22.824270211270072
4.656665180205583 38.68467288343182 23.095412562090516
4.658904269592591 38.7147995196463 23.37370073444504
4.662302789394253 38.745928311975554 23.659089618184012
4.666521074678264 38.778938792113436 23.94979248217062
4.672404390841153 38.811495746841906 24.250604667865563
4.679934784063482 38.84482031404811 24.55884575587961
4.689206444002937 38.87890250255226 24.87450872593951
4.70028952118892 38.913734369595545 25.197589889191917
4.7132070167158915 38.94931160742066 25.528091247640358
4.724884561754245 38.987148777093395 25.862234429394682
4.741540383332879 39.02369094392739 26.209075005457464
4.759501179665226 39.06094539474417 26.563557387888007
4.77810055683751 39.09894706409972 26.925757785218202
4.796408801280394 39.137748032388565 27.29577094910047
4.813955492206096 39.17697878547542 27.674026945521657
4.828539192672417 39.21777610969178 28.059702629145356
4.839963182708043 39.259574024017276 28.453390879895807
4.8478152963627945 39.302419417614864 28.855088198477837
4.8523353809502625 39.34632564211293 29.264725319447237
4.849925888761638 39.390624564583455 29.683402293988422
4.851404798120528 39.62348824059753 29.871628900379502
4.8533290672940375 40.040183053104975 29.826735892941933
4.853025201571459 40.449317662115824 29.78281202844999
4.849388231577901 40.851023845081755 29.73986789448934
4.841959212424991 41.245377710507896 29.697881451898386
4.831037527647042 41.632379182337075 29.65680558712852
4.817514292504304 42.011961560189555 29.61658206462001
4.802552113767555 42.384020685553715 29.577155382301196
4.787273655822285 42.74844698520606 29.538482030355546
4.772562966805725 43.10514822504552 29.50053398813948
4.7589985491457965 43.45405937504797 29.46329774191627
4.7468812359788615 43.79514229921958 29.42677094484527
4.736305966113072 44.128380087638334 29.390958519297072
4.729111753720534 44.45575266441037 29.352196320736734
4.7203930029067855 44.77338839841105 29.317907367705455
4.712509607249411 45.08299463330426 29.28484415284544
4.705413407324438 45.38459061161295 29.252984328999045
4.699065714750473 45.67819451696992 29.22230545360468
4.693437089310746 45.96382321626212 29.19278506184518
4.698298025549603 46.243184302779184 29.158546487530334
4.697230669513825 46.51394299417102 29.128468817705176
4.6969101837880265 46.77676745445319 29.099462747433886
4.697375449722455 47.03166510687956 29.071509325046947
4.698686364922893 47.27864075661305 29.04459005771054
4.700917270814565 47.51769723185483 29.018687139905843
4.7041489705205315 47.74883615632595 28.9937836340323
4.708459432317587 47.972058843429 28.969863603287884
4.718044548153686 48.187974987435304 28.944724836865984
4.726218205562133 48.39596316293134 28.92125181100411
4.736035704720369 48.59606856987531 28.89858352637682
4.747603766579271 48.788279018839795 28.876725215362814
4.761003422849375 48.97258439545876 28.855682958722127
4.776276882507893 49.14897791494916 28.835463701218693
4.793415409140815 49.31745732198915 28.816075187909675
4.812349977211518 49.478025867950336 28.79752581362832
4.83294623481568 49.63069291385941 28.779824390682744
4.8550047228087445 49.775474056741544 28.762979852667915
4.878266520986491 49.91239074747403 28.747000922577435
4.902423694164313 50.04146944317967 28.731895778934494
4.927133266406282 50.16274040022573 28.717671753503502
4.952033074871231 50.27623625357688 28.704335088791296
4.976757782333706 50.38199054016718 28.691890774529366
5.0009535239167535 50.48003631046786 28.680342471717186
5.024290045639925 50.5704049405781 28.66969252260246
5.046469659375064 50.653125215987025 28.6599420366609
5.0672327990111805 50.728222716154534 28.65109103708492
5.086360349733795 50.79571949263235 28.64313864962316
5.103673200935811 50.85563400625497 28.63608331549821
5.119029635990279 50.90798127205115 28.6299230118904
5.132321231765354 50.952773153119026 28.62465546639563
5.151647019888154 38.12130121829235 18.309239655878848
5.137773166393444 38.12720512560695 18.357219989872842
5.121798444915799 38.1340988938935 18.413210848360364
5.103848525160202 38.14197963239219 18.477182316986244
5.084077237412413 38.15084314964985 18.549099502959848
5.0626684291248925 38.16068368519483 18.6289226700736
5.03983669211212 38.171493670301835 18.71660762233563
5.015826561156894 38.183263542920116 18.812106388361023
4.990909845230183 38.19598164285601 18.915368239521026
4.96538087338062 38.20963421165413 19.02634104514164
4.939549621911278 38.22420551654145 19.144972928633933
4.913732929156279 38.239678108888725 19.271214142588313
4.888244275208383 38.25603321514003 19.405019034565477
4.863382866797666 38.27325124313849 19.546347936996984
4.839422970973334 38.291312371211745 19.695168793911847
4.816604531962323 38.31019717394829 19.851458342745175
4.801870608715124 38.32655787200437 20.021229303266498
4.7713635684261515 38.35358566547699 20.181223688777372
4.755488953773628 38.37354885652986 20.362042835047223
4.740818279365282 38.394439063748834 20.550087531020086
4.727408616114145 38.41626689330776 20.745317621425816
4.715294327287347 38.43904525928387 20.947693879699152
4.704493957040025 38.46278925520452 21.157176388570722
4.695017309533439 38.487515931936095 21.373723090050774
4.686872133961399 38.51324400904605 21.59728860187089
4.680070110426963 38.53999354111571 21.827823329572507
4.65810349666309 38.57394773789415 22.054142014791147
4.656299420241366 38.60018518396362 22.303593467552282
4.655418394847498 38.62737765985092 22.560316638451987
4.655521884987205 38.65553630198456 22.824270211270072
4.656665180205583 38.68467288343182 23.095412562090516
4.658904269592591 38.7147995196463 23.37370073444504
4.662302789394253 38.745928311975554 23.659089618184012
4.666521074678264 38.778938792113436 23.94979248217062
4.672404390841153 38.811495746841906 24.250604667865563
4.679934784063482 38.84482031404811 24.55884575587961
4.689206444002937 38.87890250255226 24.87450872593951
4.70028952118892 38.913734369595545 25.197589889191917
4.7132070167158915 38.94931160742066 25.528091247640358
4.724884561754245 38.987148777093395 25.862234429394682
4.741540383332879 39.02369094392739 26.209075005457464
4.759501179665226 39.06094539474417 26.563557387888007
4.77810055683751 39.09894706409972 26.925757785218202
4.796408801280394 39.137748032388565 27.29577094910047
4.813955492206096 39.17697878547542 27.674026945521657
4.828539192672417 39.21777610969178 28.059702629145356
4.839963182708043 39.259574024017276 28.453390879895807
4.8478152963627945 39.302419417614864 28.855088198477837
4.8523353809502625 39.34632564211293 29.264725319447237
4.849925888761638 39.390624564583455 29.683402293988422
4.851404798120528 39.62348824059753 29.871628900379502
4.8533290672940375 40.040183053104975 29.826735892941933
4.853025201571459 40.449317662115824 29.78281202844999
4.849388231577901 40.851023845081755 29.73986789448934
4.841959212424991 41.245377710507896 29.697881451898386
4.831037527647042 41.632379182337075 29.65680558712852
4.817514292504304 42.011961560189555 29.61658206462001
4.802552113767555 42.384020685553715 29.577155382301196
4.787273655822285 42.74844698520606 29.538482030355546
4.772562966805725 43.10514822504552 29.50053398813948
4.7589985491457965 43.45405937504797 29.46329774191627
4.7468812359788615 43.79514229921958 29.42677094484527
4.736305966113072 44.128380087638334 29.390958519297072
4.729111753720534 44.45575266441037 29.352196320736734
4.7203930029067855 44.77338839841105 29.317907367705455
4.712509607249411 45.08299463330426 29.28484415284544
4.705413407324438 45.38459061161295 29.252984328999045
4.699065714750473 45.67819451696992 29.22230545360468
4.693437089310746 45.96382321626212 29.19278506184518
4.698298025549603 46.243184302779184 29.158546487530334
4.697230669513825 46.51394299417102 29.128468817705176
4.6969101837880265 46.77676745445319 29.099462747433886
4.697375449722455 47.03166510687956 29.071509325046947
4.698686364922893 47.27864075661305 29.04459005771054
4.700917270814565 47.51769723185483 29.018687139905843
4.7041489705205315 47.74883615632595 28.9937836340323
4.708459432317587 47.972058843429 28.969863603287884
4.718044548153686 48.187974987435304 28.944724836865984
4.726218205562133 48.39596316293134 28.92125181100411
4.736035704720369 48.59606856987531 28.89858352637682
4.747603766579271 48.788279018839795 28.876725215362814
4.761003422849375 48.97258439545876 28.855682958722127
4.776276882507893 49.14897791494916 28.835463701218693
4.793415409140815 49.31745732198915 28.816075187909675
4.812349977211518 49.478025867950336 28.79752581362832
4.83294623481568 49.63069291385941 28.779824390682744
4.8550047228087445 49.775474056741544 28.762979852667915
4.878266520986491 49.91239074747403 28.747000922577435
4.902423694164313 50.04146944317967 28.731895778934494
4.927133266406282 50.16274040022573 28.717671753503502
4.952033074871231 50.27623625357688 28.704335088791296
4.976757782333706 50.38199054016718 28.691890774529366
5.0009535239167535 50.48003631046786 28.680342471717186
5.024290045639925 50.5704049405781 28.66969252260246
5.046469659375064 50.653125215987025 28.6599420366609
5.0672327990111805 50.728222716154534 28.65109103708492
5.086360349733795 50.79571949263235 28.64313864962316
5.103673200935811 50.85563400625497 28.63608331549821
5.119029635990279 50.90798127205115 28.6299230118904
5.132321231765354 50.952773153119026 28.62465546639563

VECTORS L float
0.057439758988510316 0.0 0.0
0.10385970723853002 0.0 0.0
0.1542089812533104 0.0 0.0
0.2101820198676359 0.0 0.0
0.27226160134074645 0.0 0.0
0.3406033308755147 0.0 0.0
0.41522613822710547 0.0 0.0
0.4960705750124627 0.0 0.0
0.583019746161304 0.0 0.0
0.6759077429105479 0.0 0.0
0.7745236116621574 0.0 0.0
0.8786142403684772 0.0 0.0
0.9878873924695708 0.0 0.0
1.1020173226718906 0.0 0.0
1.2206500549481933 0.0 0.0
1.343399362690345 0.0 0.0
1.469995319176227 0.0 0.0
1.5998437214490038 0.0 0.0
1.732849068743196 0.0 0.0
1.8685808628307574 0.0 0.0
2.006696950368761 0.0 0.0
2.146888984834487 0.0 0.0
2.2888766541013554 0.0 0.0
2.432407125706098 0.0 0.0
2.577205609398502 0.0 0.0
2.723093862953868 0.0 0.0
2.8696542668719363 0.0 0.0
3.0174554423811686 0.0 0.0
3.1660767380245645 0.0 0.0
3.3153157168485445 0.0 0.0
3.4650006266747133 0.0 0.0
3.614957281826405 0.0 0.0
3.7649948446814734 0.0 0.0
3.914894269555429 0.0 0.0
4.064433013869077 0.0 0.0
4.213309364099691 0.0 0.0
4.361140546313649 0.0 0.0
4.507437434354381 0.0 0.0
4.6515761687937 0.0 0.0
4.792648576992329 0.0 0.0
4.930014211869467 0.0 0.0
5.062392625206584 0.0 0.0
5.188355719404496 0.0 0.0
5.306310336526086 0.0 0.0
5.414630990201084 0.0 0.0
5.511786457520835 0.0 0.0
5.597122261008453 0.0 0.0
5.671744638029371 0.0 0.0
5.7410192767227635 0.0 0.0
5.828651925370645 0.0 0.0
6.075826792970444 0.0 0.0
6.1042687304565515 0.0 0.0
6.14879644854874 0.0 0.0
6.184893552421043 0.0 0.0
6.206307045568021 0.0 0.0
6.211005408287657 0.0 0.0
6.198908940532274 0.0 0.0
6.170874656707011 0.0 0.0
6.128150467646613 0.0 0.0
6.072064825317864 0.0 0.0
6.0038639729671015 0.0 0.0
5.924667549186139 0.0 0.0
5.835295382382001 0.0 0.0
5.736665866365382 0.0 0.0
5.629172864043884 0.0 0.0
5.513581412234247 0.0 0.0
5.39012156407984 0.0 0.0
5.259359817030789 0.0 0.0
5.121777241250069 0.0 0.0
4.9780590354636 0.0 0.0
4.8277922245710645 0.0 0.0
4.671524325386423 0.0 0.0
4.5094944681639335 0.0 0.0
4.342082694478739 0.0 0.0
4.169685537004023 0.0 0.0
3.9926558152614344 0.0 0.0
3.8114688773664236 0.0 0.0
3.6266949131850184 0.0 0.0
3.43867196604401 0.0 0.0
3.248039602866627 0.0 0.0
3.0554609907432293 0.0 0.0
2.861615643411332 0.0 0.0
2.667273462979393 0.0 0.0
2.4732563279202915 0.0 0.0
2.280437796684781 0.0 0.0
2.0897334914595063 0.0 0.0
1.9020888473077036 0.0 0.0
1.718457111468713 0.0 0.0
1.5397816111077185 0.0 0.0
1.366975793641326 0.0 0.0
1.2009060380672807 0.0 0.0
1.042377762440118 0.0 0.0
0.8921241512030526 0.0 0.0
0.7507892643760513 0.0 0.0
0.6189257373485412 0.0 0.0
0.49696661798881514 0.0 0.0
0.38518194676742806 0.0 0.0
0.2835652476537167 0.0 0.0
0.19147005579879936 0.0 0.0
0.1059379372621599 0.0 0.0
0.057439758988510316 0.0 0.0
0.10385970723853002 0.0 0.0
0.1542089812533104 0.0 0.0
0.2101820198676359 0.0 0.0
0.27226160134074645 0.0 0.0
0.3406033308755147 0.0 0.0
0.41522613822710547 0.0 0.0
0.4960705750124627 0.0 0.0
0.583019746161304 0.0 0.0
0.6759077429105479 0.0 0.0
0.7745236116621574 0.0 0.0
0.8786142403684772 0.0 0.0
0.9878873924695708 0.0 0.0
1.1020173226718906 0.0 0.0
1.2206500549481933 0.0 0.0
1.343399362690345 0.0 0.0
1.469995319176227 0.0 0.0
1.5998437214490038 0.0 0.0
1.732849068743196 0.0 0.0
1.8685808628307574 0.0 0.0
2.006696950368761 0.0 0.0
2.146888984834487 0.0 0.0
2.2888766541013554 0.0 0.0
2.432407125706098 0.0 0.0
2.577205609398502 0.0 0.0
2.723093862953868 0.0 0.0
2.8696542668719363 0.0 0.0
3.0174554423811686 0.0 0.0
3.1660767380245645 0.0 0.0
3.3153157168485445 0.0 0.0
3.4650006266747133 0.0 0.0
3.614957281826405 0.0 0.0
3.7649948446814734 0.0 0.0
3.914894269555429 0.0 0.0
4.064433013869077 0.0 0.0
4.213309364099691 0.0 0.0
4.361140546313649 0.0 0.0
4.507437434354381 0.0 0.0
4.6515761687937 0.0 0.0
4.792648576992329 0.0 0.0
4.930014211869467 0.0 0.0
5.062392625206584 0.0 0.0
5.188355719404496 0.0 0.0
5.306310336526086 0.0 0.0
5.414630990201084 0.0 0.0
5.511786457520835 0.0 0.0
5.597122261008453 0.0 0.0
5.671744638029371 0.0 0.0
5.7410192767227635 0.0 0.0
5.828651925370645 0.0 0.0
6.075826792970444 0.0 0.0
6.1042687304565515 0.0 0.0
6.14879644854874 0.0 0.0
6.184893552421043 0.0 0.0
6.206307045568021 0.0 0.0
6.211005408287657 0.0 0.0
6.198908940532274 0.0 0.0
6.170874656707011 0.0 0.0
6.128150467646613 0.0 0.0
6.072064825317864 0.0 0.0
6.0038639729671015 0.0 0.0
5.924667549186139 0.0 0.0
5.835295382382001 0.0 0.0
5.736665866365382 0.0 0.0
5.629172864043884 0.0 0.0
5.513581412234247 0.0 0.0
5.39012156407984 0.0 0.0
5.259359817030789 0.0 0.0
5.121777241250069 0.0 0.0
4.9780590354636 0.0 0.0
4.8277922245710645 0.0 0.0
4.671524325386423 0.0 0.0
4.5094944681639335 0.0 0.0
4.342082694478739 0.0 0.0
4.169685537004023 0.0 0.0
3.9926558152614344 0.0 0.0
3.8114688773664236 0.0 0.0
3.6266949131850184 0.0 0.0
3.43867196604401 0.0 0.0
3.248039602866627 0.0 0.0
3.0554609907432293 0.0 0.0
2.861615643411332 0.0 0.0
2.667273462979393 0.0 0.0
2.4732563279202915 0.0 0.0
2.280437796684781 0.0 0.0
2.0897334914595063 0.0 0.0
1.9020888473077036 0.0 0.0
1.718457111468713 0.0 0.0
1.5397816111077185 0.0 0.0
1.366975793641326 0.0 0.0
1.2009060380672807 0.0 0.0
1.042377762440118 0.0 0.0
0.8921241512030526 0.0 0.0
0.7507892643760513 0.0 0.0
0.6189257373485412 0.0 0.0
0.49696661798881514 0.0 0.0
0.38518194676742806 0.0 0.0
0.2835652476537167 0.0 0.0
0.19147005579879936 0.0 0.0
0.1059379372621599 0.0 0.0

SCALARS Gamma float
LOOKUP_TABLE default
0.415386799471897
0.6384598258169899
0.8210300223564291
0.9853044182383262
1.1387427616313808
1.2846219095151226
1.4245534808774316
1.559350432468249
1.689393305452837
1.8148093189807597
1.935570416017307
2.051553008215586
2.1625775985091056
2.268440632383162
2.368935666082169
2.463854562306231
2.553231494322111
2.636602811966533
2.7143582699732396
2.7863515721572374
2.852602996771604
2.9131942045989123
2.9682489341595417
3.0179236795443534
3.0623459538796816
3.101748317139905
3.1361045748083467
3.1664078699185447
3.192549842813654
3.2146600245158754
3.2328938716476214
3.247398421473783
3.2583011983696957
3.265703936546872
3.269705611377096
3.2703451240459214
3.2676097205766736
3.261425757541315
3.251649400027806
3.2379824895390685
3.220349660490747
3.19830317863584
3.1713798356493434
3.139097445032901
3.101035252538171
3.0568939814323755
3.0068797853549545
2.952026401831049
2.8950122161244156
2.8426806515295886
2.8368634228624274
2.8769319064124352
2.921445807235678
2.9637514386729706
3.0013322039316694
3.0332310944580416
3.059307154949304
3.079831292088131
3.0952530204928133
3.1060615669418046
3.1127095362823005
3.1155907134748935
3.1149475791964365
3.111074918011949
3.103988346575433
3.093896276008897
3.0807102850541916
3.0645163640602826
3.0453482527571003
3.02335442847758
2.9980156430887193
2.96935286152117
2.9371850429368456
2.901394930603256
2.861854693796224
2.818382176144206
2.7708515376008624
2.719181983525719
2.6630960447633814
2.602505158822743
2.537319219736185
2.4674392209296756
2.3928211991188695
2.3134536852635668
2.2293654504562213
2.1406265648474054
2.0473472315275605
1.9496656143385127
1.8477366435554303
1.7417140327990877
1.6317288221026132
1.5178632818417483
1.400116349807072
1.2783414411504102
1.1521750627246368
1.0208670003447544
0.882953613157503
0.7354833799061893
0.5717616488741089
0.37189651745211216
0.415386799471897
0.6384598258169899
0.8210300223564291
0.9853044182383262
1.1387427616313808
1.2846219095151226
1.4245534808774316
1.559350432468249
1.689393305452837
1.8148093189807597
1.935570416017307
2.051553008215586
2.1625775985091056
2.268440632383162
2.368935666082169
2.463854562306231
2.553231494322111
2.636602811966533
2.7143582699732396
2.7863515721572374
2.852602996771604
2.9131942045989123
2.9682489341595417
3.0179236795443534
3.0623459538796816
3.101748317139905
3.1361045748083467
3.1664078699185447
3.192549842813654
3.2146600245158754
3.2328938716476214
3.247398421473783
3.2583011983696957
3.265703936546872
3.269705611377096
3.2703451240459214
3.2676097205766736
3.261425757541315
3.251649400027806
3.2379824895390685
3.220349660490747
3.19830317863584
3.1713798356493434
3.139097445032901
3.101035252538171
3.0568939814323755
3.0068797853549545
2.952026401831049
2.8950122161244156
2.8426806515295886
2.8368634228624274
2.8769319064124352
2.921445807235678
2.9637514386729706
3.0013322039316694
3.0332310944580416
3.059307154949304
3.079831292088131
3.0952530204928133
3.1060615669418046
3.1127095362823005
3.1155907134748935
3.1149475791964365
3.111074918011949
3.103988346575433
3.093896276008897
3.0807102850541916
3.0645163640602826
3.0453482527571003
3.02335442847758
2.9980156430887193
2.96935286152117
2.9371850429368456
2.901394930603256
2.861854693796224
2.818382176144206
2.7708515376008624
2.719181983525719
2.6630960447633814
2.602505158822743
2.537319219736185
2.4674392209296756
2.3928211991188695
2.3134536852635668
2.2293654504562213
2.1406265648474054
2.0473472315275605
1.9496656143385127
1.8477366435554303
1.7417140327990877
1.6317288221026132
1.5178632818417483
1.400116349807072
1.2783414411504102