# vtk DataFile Version 4.0
[MyVLM domain - lattices] 
ASCII
DATASET UNSTRUCTURED_GRID
POINTS 302 float
0.03418245623128632 1.6505934338410935 -6.258234665187006
0.03405815639044528 1.6566058808548711 -6.2604243017189525
0.03391102596659262 1.6637226548711792 -6.26301611638942
0.03374106495972834 1.6719437558900176 -6.266010109198409
0.033548273369852444 1.6812691839113867 -6.269406280145918
0.03333265119696492 1.6916989389352866 -6.273204629231948
0.033094198441065786 1.7032330209617164 -6.277405156456499
0.03283291510215502 1.7158714299906772 -6.2820078618195705
0.032548801180232644 1.7296141660221689 -6.287012745321164
0.03224185667529864 1.7444612290561905 -6.292419806961277
0.03191208158735302 1.7604126190927434 -6.298229046739911
0.031559475916395775 1.777468336131826 -6.304440464657066
0.03118403966242692 1.7956283801734394 -6.311054060712742
0.030785772825446447 1.8148927512175832 -6.318069834906939
0.030364675405454344 1.8352614492642583 -6.325487787239656
0.029920747402450633 1.856734474313463 -6.333307917710895
0.02945398881643529 1.8793118263651991 -6.341530226320654
0.02896439964740833 1.9029935054194655 -6.350154713068934
0.02845197989536975 1.9277795114762624 -6.359181377955736
0.027916729560319556 1.9536698445355896 -6.368610220981057
0.027358648642257736 1.9806645045974478 -6.378441242144899
0.026777737141184296 2.008763491661836 -6.388674441447263
0.02617399505709924 2.037966805728755 -6.399309818888147
0.025547422390002565 2.068274446798205 -6.410347374467552
0.024898019139894267 2.099686414870185 -6.4217871081854785
0.024225785306774352 2.1322027099446954 -6.433629020041925
0.023530720890642818 2.165823332021737 -6.445873110036892
0.022812825891499657 2.200548281101309 -6.458519378170381
0.022072100309344884 2.236377557183411 -6.47156782444239
0.021308544144178487 2.273311160268044 -6.48501844885292
0.02052215739600047 2.3113490903552076 -6.498871251401971
0.019712940064810835 2.3504913474449016 -6.513126232089543
0.01888089215060958 2.390737931537126 -6.527783390915635
0.018026013653396705 2.432088842631881 -6.542842727880249
0.01714830457317221 2.474544080729167 -6.558304242983383
0.016247764909936093 2.518103645828983 -6.574167936225037
0.015324394663688356 2.56276753793133 -6.590433807605215
0.014378193834429004 2.6085357570362073 -6.60710185712391
0.013409162422158031 2.6554083031436155 -6.6241720847811285
0.012417300426875442 2.7033851762535535 -6.641644490576867
0.011402607848581228 2.7524663763660224 -6.659519074511126
0.010365084687275395 2.802651903481022 -6.677795836583906
0.009304730942957942 2.853941757598552 -6.696474776795207
0.008221546615628864 2.906335938718613 -6.7155558951450285
0.00711553170528817 2.9598344468412043 -6.735039191633371
0.005986686211935857 3.0144372819663263 -6.754924666260235
0.004835010135571923 3.0701444440939785 -6.77521231902562
0.0036605034761963704 3.126955933224161 -6.795902149929524
0.0024631662338092035 3.1848717493568746 -6.81699415897195
0.0012429984084104115 3.2438918924921185 -6.8384883461528965
0.0 3.304016362629893 -6.860384711472364
0.0012429984084104159 3.2821426871638604 -6.920517440041409
0.0024631662338092113 3.2606707730839375 -6.9795456899224515
0.0036605034761963873 3.239600620390126 -7.0374694611154895
0.004835010135571944 3.218932229082425 -7.094288753620526
0.00598668621193588 3.1986655991608353 -7.15000356743756
0.007115531705288196 3.1788007306253565 -7.204613902566589
0.008221546615628891 3.159337623475988 -7.258119759007616
0.009304730942957968 3.1402762777127307 -7.3105211367606415
0.010365084687275422 3.121616693335584 -7.361818035825663
0.011402607848581261 3.103358870344548 -7.4120104562026805
0.012417300426875479 3.0855028087396232 -7.461098397891697
0.013409162422158075 3.068048508520809 -7.509081860892711
0.01437819383442905 3.0509959696881057 -7.555960845205721
0.01532439466368841 3.034345192241513 -7.601735350830729
0.01624776490993614 3.0180961761810314 -7.646405377767732
0.017148304573172263 3.0022489215066606 -7.689970926016735
0.01802601365339676 2.9868034282184 -7.732431995577735
0.01888089215060964 2.971759696316251 -7.7737885864507295
0.019712940064810898 2.957117725800212 -7.814040698635723
0.020522157396000537 2.9428775166702845 -7.853188332132713
0.02130854414417855 2.9290390689264676 -7.891231486941701
0.022072100309344953 2.9156023825687614 -7.928170163062684
0.022812825891499727 2.9025674575971663 -7.964004360495667
0.023530720890642884 2.889934294011682 -7.998734079240646
0.024225785306774425 2.877702891812308 -8.032359319297623
0.024898019139894343 2.865873250999045 -8.064880080666594
0.02554742239000264 2.8544453715718934 -8.096296363347566
0.026173995057099327 2.8434192535308522 -8.126608167340532
0.026777737141184383 2.832794896875922 -8.155815492645496
0.027358648642257823 2.822572301607102 -8.183918339262458
0.02791672956031964 2.8127514677243934 -8.210916707191418
0.02845197989536984 2.8033323952277955 -8.236810596432374
0.028964399647408417 2.794315084117309 -8.261600006985326
0.029453988816435375 2.7856995343929323 -8.285284938850277
0.02992074740245072 2.7774857460546665 -8.307865392027225
0.030364675405454438 2.769673719102512 -8.329341366516168
0.030785772825446537 2.762263453536468 -8.34971286231711
0.03118403966242702 2.7552549493565346 -8.368979879430048
0.03155947591639587 2.748648206562713 -8.387142417854985
0.03191208158735312 2.742443225155001 -8.404200477591917
0.03224185667529874 2.7366400051334008 -8.420154058640849
0.03254880118023274 2.7312385464979108 -8.435003161001775
0.032832915102155115 2.726238849248532 -8.4487477846747
0.033094198441065883 2.7216409133852637 -8.461387929659622
0.03333265119696501 2.7174447389081067 -8.47292359595654
0.033548273369852534 2.71365032581706 -8.483354783565456
0.03374106495972845 2.710257674112124 -8.49268149248637
0.03391102596659273 2.7072667837932993 -8.50090372271928
0.03405815639044539 2.7046776548605846 -8.508021474264186
0.034182456231286434 2.7024902873139816 -8.51403474712109
0.047855438723800874 1.1996036330201512 -6.46853466305968
0.04773113888295984 1.2056160800339288 -6.470724299591627
0.04758400845910717 1.2127328540502367 -6.4733161142620945
0.04741404745224289 1.2209539550690751 -6.4763101070710825
0.047221255862367 1.2302793830904442 -6.4797062780185914
0.04700563368947947 1.2407091381143442 -6.483504627104622
0.046767180933580337 1.252243220140774 -6.4877051543291735
0.046505897594669575 1.264881629169735 -6.492307859692246
0.0462217836727472 1.2786243652012264 -6.497312743193837
0.04591483916781319 1.2934714282352484 -6.50271980483395
0.04558506407986757 1.3094228182718008 -6.508529044612586
0.04523245840891034 1.3264785353108834 -6.514740462529741
0.04485702215494148 1.344638579352497 -6.521354058585416
0.044458755317961 1.3639029503966411 -6.528369832779613
0.0440376578979689 1.384271648443316 -6.535787785112331
0.043593729894965176 1.405744673492521 -6.543607915583569
0.04312697130894984 1.4283220255442568 -6.551830224193327
0.04263738213992288 1.4520037045985232 -6.560454710941608
0.0421249623878843 1.47678971065532 -6.569481375828409
0.041589712052834106 1.5026800437146473 -6.57891021885373
0.04103163113477229 1.5296747037765053 -6.588741240017574
0.04045071963369885 1.557773690840894 -6.598974439319936
0.0398469775496138 1.586977004907813 -6.6096098167608215
0.039220404882517115 1.6172846459772625 -6.620647372340226
0.03857100163240882 1.6486966140492425 -6.632087106058151
0.037898767799288906 1.6812129091237533 -6.643929017914599
0.03720370338315737 1.7148335312007945 -6.656173107909566
0.03648580838401421 1.7495584802803663 -6.6688193760430545
0.03574508280185944 1.785387756362469 -6.6818678223150645
0.034981526636693044 1.8223213594471017 -6.695318446725594
0.03419513988851502 1.8603592895342653 -6.709171249274645
0.03338592255732539 1.8995015466239595 -6.723426229962217
0.032553874643124134 1.9397481307161837 -6.73808338878831
0.03169899614591126 1.9810990418109387 -6.753142725752922
0.03082128706568676 2.0235542799082245 -6.768604240856057
0.029920747402450647 2.0671138450080413 -6.784467934097713
0.028997377156202916 2.111777737110388 -6.800733805477889
0.02805117632694356 2.157545956215265 -6.817401854996586
0.027082144914672583 2.204418502322673 -6.834472082653802
0.026090282919389994 2.252395375432611 -6.85194448844954
0.025075590341095782 2.30147657554508 -6.8698190723838
0.024038067179789947 2.3516621026600797 -6.88809583445658
0.022977713435472495 2.40295195677761 -6.9067747746678805
0.021894529108143417 2.4553461378976706 -6.925855893017702
0.020788514197802727 2.508844646020262 -6.945339189506045
0.01965966870445041 2.563447481145384 -6.96522466413291
0.01850799262808648 2.619154643273036 -6.985512316898292
0.017333485968710923 2.675966132403219 -7.006202147802199
0.016136148726323758 2.7338819485359322 -7.027294156844624
0.014915980900924967 2.792902091671176 -7.048788344025571
0.013672982492514555 2.8530265618089508 -7.070684709345038
0.014915980900924969 2.8311528863429176 -7.130817437914084
0.016136148726323764 2.809680972262995 -7.189845687795125
0.017333485968710944 2.788610819569184 -7.247769458988163
0.018507992628086497 2.767942428261483 -7.304588751493198
0.019659668704450434 2.747675798339893 -7.3603035653102316
0.020788514197802747 2.727810929804414 -7.414913900439262
0.02189452910814345 2.7083478226550457 -7.468419756880291
0.022977713435472523 2.6892864768917883 -7.520821134633316
0.024038067179789978 2.6706268925146417 -7.572118033698336
0.025075590341095817 2.6523690695236057 -7.622310454075357
0.026090282919390032 2.634513007918681 -7.671398395764371
0.027082144914672625 2.617058707699867 -7.719381858765384
0.028051176326943605 2.6000061688671634 -7.766260843078395
0.02899737715620296 2.5833553914205707 -7.812035348703402
0.0299207474024507 2.5671063753600887 -7.856705375640407
0.03082128706568682 2.5512591206857183 -7.900270923889409
0.03169899614591132 2.5358136273974576 -7.942731993450407
0.032553874643124196 2.5207698954953086 -7.984088584323404
[...]
CELL_DATA 200

VECTORS Vinf float
5.17186447301919 -41.564992425264734 -7.814974193711434
5.157906966604785 -41.58310811086006 -7.859801705380658
5.141835764158973 -41.60425244048816 -7.912112126135523
5.12377721765591 -41.62841493558555 -7.971877209995791
5.1038859997541905 -41.65558258055383 -8.039064212300675
5.082346973448327 -41.68573959890057 -8.11363608668008
5.05937592647329 -41.718867322066934 -8.195551915396095
5.035218768955122 -41.75494418860635 -8.284767617174861
5.0101488534803975 -41.79394590731467 -8.381236957812531
4.98446219822957 -41.83584580851644 -8.484912860477806
4.958470579369182 -41.88061539247979 -8.595748975784195
4.932492699912544 -41.92822506335431 -8.713701429652945
4.906843914819066 -41.97864501291728 -8.83873062546844
4.881825256446942 -42.03184619404434 -8.970802943933597
4.857712709085226 -42.08780130361423 -9.10989216813347
4.834747772497372 -42.146485683351166 -9.255980470223749
4.81313029061466 -42.20787804890593 -9.40905883380077
4.793014288772916 -42.271960974101376 -9.569126850193317
4.771979291208424 -42.33911522422576 -9.735519245445982
4.756247044104305 -42.40839851227478 -9.909757426632495
4.741475705182121 -42.4804426908649 -10.090942302021896
4.727804689711797 -42.55523339090576 -10.279061745311173
4.71535094182797 -42.63275810174971 -10.474106811526113
4.7071178144768515 -42.712463760998716 -10.677091142158122
4.698498358758089 -42.79519422540599 -10.886539648456505
4.691380863098996 -42.880589869677046 -11.103127341887186
4.685712584214634 -42.968653307228166 -11.326871571011532
4.681448372683881 -43.059386604062304 -11.557787045857008
4.67855416647122 -43.152790918771665 -11.795885833558064
4.6770100345148995 -43.24886620773253 -12.041177465637057
4.6786270744045515 -43.34755505581914 -12.293173412977385
4.677165574418565 -43.44908156424337 -12.553495343098671
4.6802103196029625 -43.55315900513633 -12.820146686147147
4.684516545740302 -43.65990041981021 -13.094076921752144
4.690184763889106 -43.769290672489845 -13.375305948813056
4.697308299752532 -43.88131592462177 -13.663855145499932
4.705968531623975 -43.995964217270945 -13.959747564941345
4.71940987630425 -44.11259848042586 -14.264885959908096
4.731059373406681 -44.23271341119698 -14.574536123372665
4.744865350399702 -44.35540363478681 -14.891463975288422
4.76063240148932 -44.48068333816566 -15.215712515997634
4.777962333431541 -44.60858317859216 -15.547338986735037
4.7962057471959945 -44.73915352111697 -15.886416742379403
4.814453465087743 -44.872464828830154 -16.23303324661615
4.831605257057483 -45.00860270150119 -16.587281429666863
4.846541481124407 -45.1476556910457 -16.949243192311172
4.8583812185885185 -45.289696625606666 -17.31896802026695
4.86177460957975 -45.43570698361765 -17.69615252091638
4.866298357849501 -45.58382752929329 -18.080532943962755
4.867688567606867 -45.73525741808126 -18.47255138102491
4.8691227001120385 -46.008938382111815 -18.59397795420715
4.870974416611259 -46.399786412256674 -18.442606339947595
4.870585711943426 -46.783584818931544 -18.29413619281239
4.866848109648062 -47.160465090958176 -18.1485430605241
4.859302230922784 -47.530496060531895 -18.005784906720837
4.8466755300735676 -47.89409645604896 -17.865347146334287
4.833077574162294 -48.25035454955337 -17.727848166212357
4.8179283572850675 -48.59955395285495 -17.5931334694182
4.802413927464707 -48.941570099273754 -17.461188620387034
4.789267837270823 -49.2759086077681 -17.332827401016225
4.775676455440744 -49.60322647446705 -17.206650061329096
4.763585487577314 -49.92317061046673 -17.083149317674106
4.753088856468399 -50.2357237008182 -16.962344565830957
4.744142712122571 -50.5408846937931 -16.84425478106866
4.736629414713283 -50.838661928931785 -16.72889764518682
4.729365113264334 -51.12925192452784 -16.61573986751927
4.724107181091953 -51.41233303455148 -16.505765217896165
4.719924239597772 -51.68805953428434 -16.39855273325359
4.716742011038115 -51.95643944127127 -16.294107265171807
4.714513957602569 -52.21747811780935 -16.19243300945782
4.713220765285538 -52.4711782366724 -16.093533742455428
4.712868766428368 -52.71753990179597 -15.997413042503629
4.713488072578753 -52.956560827100304 -15.904074490389899
4.712369267467798 -53.18876605980236 -15.812424836805727
4.7158192979354405 -53.41293987854621 -15.725019459479874
4.720404789487029 -53.62977072418634 -15.640348057761726
4.726177492315134 -53.83925303933149 -15.558421169807115
4.733204160968415 -54.04137971673448 -15.479249710501207
4.741560573576377 -54.23614264642502 -15.402845012949987
4.751323388559087 -54.42353346449307 -15.329218792427982
4.762559922224935 -54.603544498927675 -15.258383019713671
4.776600070190778 -54.776141520657745 -15.190010964862807
4.791901019424547 -54.941288552667146 -15.124788517152838
4.809077498933639 -55.099006329575886 -15.062418275449708
4.8280599746763375 -55.249299977453134 -15.00290744945823
4.8487133060000405 -55.39218067755614 -14.946262106773196
4.8698736312074296 -55.527729806405134 -14.892674894764314
4.895197881726323 -55.65566228776674 -14.841719766131542
4.91918687127617 -55.77646409226381 -14.793663315466114
4.9437847472463226 -55.889944552390475 -14.748485156284623
4.968616955922951 -55.99613823569382 -14.706182158290332
4.993308124121378 -56.09508002218398 -14.666749848166543
5.017496216971542 -56.18680378910985 -14.630182682357866
5.040844304342664 -56.271341300317175 -14.596474353338758
5.063049224444885 -56.34872136999074 -14.565618100743384
5.083846906802757 -56.41896932721152 -14.537607004320067
5.103014513421988 -56.48210677092286 -14.512434242683266
5.120343636374762 -56.53813268662047 -14.490091255850679
5.135753776870189 -56.58709869348103 -14.470579273180286
5.149091853667545 -56.62899822098637 -14.453886949806135
5.17186447301919 -41.564992425264734 -7.814974193711434
5.157906966604785 -41.58310811086006 -7.859801705380658
5.141835764158973 -41.60425244048816 -7.912112126135523
5.12377721765591 -41.62841493558555 -7.971877209995791
5.1038859997541905 -41.65558258055383 -8.039064212300675
5.082346973448327 -41.68573959890057 -8.11363608668008
5.05937592647329 -41.718867322066934 -8.195551915396095
5.035218768955122 -41.75494418860635 -8.284767617174861
5.0101488534803975 -41.79394590731467 -8.381236957812531
4.98446219822957 -41.83584580851644 -8.484912860477806
4.958470579369182 -41.88061539247979 -8.595748975784195
4.932492699912544 -41.92822506335431 -8.713701429652945
4.906843914819066 -41.97864501291728 -8.83873062546844
4.881825256446942 -42.03184619404434 -8.970802943933597
4.857712709085226 -42.08780130361423 -9.10989216813347
4.834747772497372 -42.146485683351166 -9.255980470223749
4.81313029061466 -42.20787804890593 -9.40905883380077
4.793014288772916 -42.271960974101376 -9.569126850193317
4.771979291208424 -42.33911522422576 -9.735519245445982
4.756247044104305 -42.40839851227478 -9.909757426632495
4.741475705182121 -42.4804426908649 -10.090942302021896
4.727804689711797 -42.55523339090576 -10.279061745311173
4.71535094182797 -42.63275810174971 -10.474106811526113
4.7071178144768515 -42.712463760998716 -10.677091142158122
4.698498358758089 -42.79519422540599 -10.886539648456505
4.691380863098996 -42.880589869677046 -11.103127341887186
4.685712584214634 -42.968653307228166 -11.326871571011532
4.681448372683881 -43.059386604062304 -11.557787045857008
4.67855416647122 -43.152790918771665 -11.795885833558064
4.6770100345148995 -43.24886620773253 -12.041177465637057
4.6786270744045515 -43.34755505581914 -12.293173412977385
4.677165574418565 -43.44908156424337 -12.553495343098671
4.6802103196029625 -43.55315900513633 -12.820146686147147
4.684516545740302 -43.65990041981021 -13.094076921752144
4.690184763889106 -43.769290672489845 -13.375305948813056
4.697308299752532 -43.88131592462177 -13.663855145499932
4.705968531623975 -43.995964217270945 -13.959747564941345
4.71940987630425 -44.11259848042586 -14.264885959908096
4.731059373406681 -44.23271341119698 -14.574536123372665
4.744865350399702 -44.35540363478681 -14.891463975288422
4.76063240148932 -44.48068333816566 -15.215712515997634
4.777962333431541 -44.60858317859216 -15.547338986735037
4.7962057471959945 -44.73915352111697 -15.886416742379403
4.814453465087743 -44.872464828830154 -16.23303324661615
4.831605257057483 -45.00860270150119 -16.587281429666863
4.846541481124407 -45.1476556910457 -16.949243192311172
4.8583812185885185 -45.289696625606666 -17.31896802026695
4.86177460957975 -45.43570698361765 -17.69615252091638
4.866298357849501 -45.58382752929329 -18.080532943962755
4.867688567606867 -45.73525741808126 -18.47255138102491
4.8691227001120385 -46.008938382111815 -18.59397795420715
4.870974416611259 -46.399786412256674 -18.442606339947595
4.870585711943426 -46.783584818931544 -18.29413619281239
4.866848109648062 -47.160465090958176 -18.1485430605241
4.859302230922784 -47.530496060531895 -18.005784906720837
4.8466755300735676 -47.89409645604896 -17.865347146334287
4.833077574162294 -48.25035454955337 -17.727848166212357
4.8179283572850675 -48.59955395285495 -17.5931334694182
4.802413927464707 -48.941570099273754 -17.461188620387034
4.789267837270823 -49.2759086077681 -17.332827401016225
4.775676455440744 -49.60322647446705 -17.206650061329096
4.763585487577314 -49.92317061046673 -17.083149317674106
4.753088856468399 -50.2357237008182 -16.962344565830957
4.744142712122571 -50.5408846937931 -16.84425478106866
4.736629414713283 -50.838661928931785 -16.72889764518682
4.729365113264334 -51.12925192452784 -16.61573986751927
4.724107181091953 -51.41233303455148 -16.505765217896165
4.719924239597772 -51.68805953428434 -16.39855273325359
4.716742011038115 -51.95643944127127 -16.294107265171807
4.714513957602569 -52.21747811780935 -16.19243300945782
4.713220765285538 -52.4711782366724 -16.093533742455428
4.712868766428368 -52.71753990179597 -15.997413042503629
4.713488072578753 -52.956560827100304 -15.904074490389899
4.712369267467798 -53.18876605980236 -15.812424836805727
4.7158192979354405 -53.41293987854621 -15.725019459479874
4.720404789487029 -53.62977072418634 -15.640348057761726
4.726177492315134 -53.83925303933149 -15.558421169807115
4.733204160968415 -54.04137971673448 -15.479249710501207
4.741560573576377 -54.23614264642502 -15.402845012949987
4.751323388559087 -54.42353346449307 -15.329218792427982
4.762559922224935 -54.603544498927675 -15.258383019713671
4.776600070190778 -54.776141520657745 -15.190010964862807
4.791901019424547 -54.941288552667146 -15.124788517152838
4.809077498933639 -55.099006329575886 -15.062418275449708
4.8280599746763375 -55.249299977453134 -15.00290744945823
4.8487133060000405 -55.39218067755614 -14.946262106773196
4.8698736312074296 -55.527729806405134 -14.892674894764314
4.895197881726323 -55.65566228776674 -14.841719766131542
4.91918687127617 -55.77646409226381 -14.793663315466114
4.9437847472463226 -55.889944552390475 -14.748485156284623
4.968616955922951 -55.99613823569382 -14.706182158290332
4.993308124121378 -56.09508002218398 -14.666749848166543
5.017496216971542 -56.18680378910985 -14.630182682357866
5.040844304342664 -56.271341300317175 -14.596474353338758
5.063049224444885 -56.34872136999074 -14.565618100743384
5.083846906802757 -56.41896932721152 -14.537607004320067
5.103014513421988 -56.48210677092286 -14.512434242683266
5.120343636374762 -56.53813268662047 -14.490091255850679
5.135753776870189 -56.58709869348103 -14.470579273180286
5.149091853667545 -56.62899822098637 -14.453886949806135

VECTORS L float
0.057725059868091816 0.0 0.0
0.10437563600843715 0.0 0.0
0.1549754657948161 0.0 0.0
0.21122724344387467 0.0 0.0
0.273616168928438 0.0 0.0
0.34229840081575663 0.0 0.0
0.41729297103528656 0.0 0.0
0.49854010996594333 0.0 0.0
0.5859223098238538 0.0 0.0
0.6792727221665716 0.0 0.0
0.778379780855464 0.0 0.0
0.8829870301792374 0.0 0.0
0.9928068186693416 0.0 0.0
1.1075091893782896 0.0 0.0
1.2267399058598119 0.0 0.0
1.350128473385775 0.0 0.0
1.4772982163813548 0.0 0.0
1.607876777005388 0.0 0.0
1.7414802886207712 0.0 0.0
1.8778363571044132 0.0 0.0
2.0165901893028217 0.0 0.0
2.1574371586972414 0.0 0.0
2.300113844428998 0.0 0.0
2.444451904699776 0.0 0.0
2.5901482280326227 0.0 0.0
2.7370149884203427 0.0 0.0
2.884908344216208 0.0 0.0
3.0336450293674453 0.0 0.0
3.1830690061363422 0.0 0.0
3.3330369022254276 0.0 0.0
3.4834351543933444 0.0 0.0
3.633977737689053 0.0 0.0
3.784882944934696 0.0 0.0
3.9354057032739345 0.0 0.0
4.085561629776294 0.0 0.0
4.235057331964203 0.0 0.0
4.383523082905364 0.0 0.0
4.5305637158393575 0.0 0.0
4.6753263077484375 0.0 0.0
4.817148365062497 0.0 0.0
4.955097891051364 0.0 0.0
5.087984654017028 0.0 0.0
5.214464630433661 0.0 0.0
5.332950833706388 0.0 0.0
5.441517892705514 0.0 0.0
5.538999851515774 0.0 0.0
5.624558730934572 0.0 0.0
5.699055208143494 0.0 0.0
5.768605811577443 0.0 0.0
5.857144146398138 0.0 0.0
6.107039696545282 0.0 0.0
6.135604367818848 0.0 0.0
6.180343477599119 0.0 0.0
6.216573297219302 0.0 0.0
6.237997378965369 0.0 0.0
6.242503419782843 0.0 0.0
6.230276996991249 0.0 0.0
6.202082065027408 0.0 0.0
6.15920783154413 0.0 0.0
6.103055824185261 0.0 0.0
6.0346339790920975 0.0 0.0
5.955108192110304 0.0 0.0
5.865392893098946 0.0 0.0
5.76630046671871 0.0 0.0
5.658452602521538 0.0 0.0
5.542343192927975 0.0 0.0
5.418521838421933 0.0 0.0
5.287355076086677 0.0 0.0
5.149242118203475 0.0 0.0
5.004314035560192 0.0 0.0
4.853090048787333 0.0 0.0
4.6958274827564335 0.0 0.0
4.532829493849691 0.0 0.0
4.364370067452501 0.0 0.0
4.191031013201461 0.0 0.0
4.013107854576922 0.0 0.0
3.830991484753719 0.0 0.0
3.6451601998994687 0.0 0.0
3.456115232397939 0.0 0.0
3.2644575638651743 0.0 0.0
3.0708385684609167 0.0 0.0
2.875986116094574 0.0 0.0
2.6806331711024973 0.0 0.0
2.4856115216434693 0.0 0.0
2.2918013610687664 0.0 0.0
2.1001133492581867 0.0 0.0
1.9115021466842061 0.0 0.0
1.7269661328848576 0.0 0.0
1.5473966186693535 0.0 0.0
1.3737492967104594 0.0 0.0
1.2068546524858161 0.0 0.0
1.0475359836501192 0.0 0.0
0.8965315543941256 0.0 0.0
0.7544935065498957 0.0 0.0
0.6219758005481151 0.0 0.0
0.499413255814546 0.0 0.0
0.3870775015709688 0.0 0.0
0.28495906015853784 0.0 0.0
0.19240966841183582 0.0 0.0
0.10645641269224508 0.0 0.0
0.057725059868091816 0.0 0.0
0.10437563600843715 0.0 0.0
0.1549754657948161 0.0 0.0
0.21122724344387467 0.0 0.0
0.273616168928438 0.0 0.0
0.34229840081575663 0.0 0.0
0.41729297103528656 0.0 0.0
0.49854010996594333 0.0 0.0
0.5859223098238538 0.0 0.0
0.6792727221665716 0.0 0.0
0.778379780855464 0.0 0.0
0.8829870301792374 0.0 0.0
0.9928068186693416 0.0 0.0
1.1075091893782896 0.0 0.0
1.2267399058598119 0.0 0.0
1.350128473385775 0.0 0.0
1.4772982163813548 0.0 0.0
1.607876777005388 0.0 0.0
1.7414802886207712 0.0 0.0
1.8778363571044132 0.0 0.0
2.0165901893028217 0.0 0.0
2.1574371586972414 0.0 0.0
2.300113844428998 0.0 0.0
2.444451904699776 0.0 0.0
2.5901482280326227 0.0 0.0
2.7370149884203427 0.0 0.0
2.884908344216208 0.0 0.0
3.0336450293674453 0.0 0.0
3.1830690061363422 0.0 0.0
3.3330369022254276 0.0 0.0
3.4834351543933444 0.0 0.0
3.633977737689053 0.0 0.0
3.784882944934696 0.0 0.0
3.9354057032739345 0.0 0.0
4.085561629776294 0.0 0.0
4.235057331964203 0.0 0.0
4.383523082905364 0.0 0.0
4.5305637158393575 0.0 0.0
4.6753263077484375 0.0 0.0
4.817148365062497 0.0 0.0
4.955097891051364 0.0 0.0
5.087984654017028 0.0 0.0
5.214464630433661 0.0 0.0
5.332950833706388 0.0 0.0
5.441517892705514 0.0 0.0
5.538999851515774 0.0 0.0
5.624558730934572 0.0 0.0
5.699055208143494 0.0 0.0
5.768605811577443 0.0 0.0
5.857144146398138 0.0 0.0
6.107039696545282 0.0 0.0
6.135604367818848 0.0 0.0
6.180343477599119 0.0 0.0
6.216573297219302 0.0 0.0
6.237997378965369 0.0 0.0
6.242503419782843 0.0 0.0
6.230276996991249 0.0 0.0
6.202082065027408 0.0 0.0
6.15920783154413 0.0 0.0
6.103055824185261 0.0 0.0
6.0346339790920975 0.0 0.0
5.955108192110304 0.0 0.0
5.865392893098946 0.0 0.0
5.76630046671871 0.0 0.0
5.658452602521538 0.0 0.0
5.542343192927975 0.0 0.0
5.418521838421933 0.0 0.0
5.287355076086677 0.0 0.0
5.149242118203475 0.0 0.0
5.004314035560192 0.0 0.0
4.853090048787333 0.0 0.0
4.6958274827564335 0.0 0.0
4.532829493849691 0.0 0.0
4.364370067452501 0.0 0.0
4.191031013201461 0.0 0.0
4.013107854576922 0.0 0.0
3.830991484753719 0.0 0.0
3.6451601998994687 0.0 0.0
3.456115232397939 0.0 0.0
3.2644575638651743 0.0 0.0
3.0708385684609167 0.0 0.0
2.875986116094574 0.0 0.0
2.6806331711024973 0.0 0.0
2.4856115216434693 0.0 0.0
2.2918013610687664 0.0 0.0
2.1001133492581867 0.0 0.0
1.9115021466842061 0.0 0.0
1.7269661328848576 0.0 0.0
1.5473966186693535 0.0 0.0
1.3737492967104594 0.0 0.0
1.2068546524858161 0.0 0.0
1.0475359836501192 0.0 0.0
0.8965315543941256 0.0 0.0
0.7544935065498957 0.0 0.0
0.6219758005481151 0.0 0.0
0.499413255814546 0.0 0.0
0.3870775015709688 0.0 0.0
0.28495906015853784 0.0 0.0
0.19240966841183582 0.0 0.0
0.10645641269224508 0.0 0.0

SCALARS Gamma float
LOOKUP_TABLE default
0.4174846728198425
0.6416840866882731
0.8251759725373992
0.9902795659789733
1.1444925419441048
1.2911074911287983
1.4317443877392086
1.5672203366236395
1.6979178192897169
1.8239645250882879
1.9453334023679185
2.0618957071514274
2.17348449649608
2.2798884802454418
2.3809027796481836
2.4763461165524676
2.5660760003156833
2.6499993756972926
2.7280424132239944
2.8003221793808364
2.8668412341964835
2.9276881424601635
2.9830099448280603
3.0330619416169062
3.077924090491295
3.117811595196036
3.1529720487849797
3.1835940770414304
3.2098830938931755
3.2320440153091816
3.2502946477449153
3.2646890411952407
3.2755282644865993
3.2828779667210237
3.286810158208155
3.2873703509267047
3.284555306887867
3.2783552299349275
3.2684622111802977
3.2547478266364513
3.2369415984223378
3.214662811651275
3.18750335871587
3.154983572852734
3.1166200420866814
3.072169435013512
3.021797100731599
2.9664162056374996
2.909090955685063
2.856705733330004
2.850923934979937
2.8912159836312434
2.935951807063537
2.9784478694868755
3.016171517457993
3.048126899783061
3.074300235370192
3.094918637940555
3.110451986693357
3.121427084923689
3.1281767605052377
3.131115392914425
3.1305333443897125
3.1266690360270357
3.1196590195060017
3.109565710701746
3.096475626221243
3.080366133829533
3.0612210449355763
3.0388525565356734
3.0132831300036864
2.984364979038048
2.951954836406488
2.915866244371995
2.876090972405094
2.83241248955457
2.7846460461994753
2.7326390488698054
2.6762271821680375
2.6152926644967733
2.5497328472406697
2.479485292416409
2.4044735442532374
2.3246906966678265
2.240167992375528
2.1509667418328764
2.057201574365334
1.9590561425972899
1.8566270130503504
1.7501124345470216
1.6395962007879967
1.5251761761906764
1.4068525603018207
1.2844854311077736
1.1577081299572443
1.02576684100341
0.8871923096752334
0.7390127133660505
0.5745041838111247
0.373679666120478
0.4174846728198425
0.6416840866882731
0.8251759725373992
0.9902795659789733
1.1444925419441048
1.2911074911287983
1.4317443877392086
1.5672203366236395
1.6979178192897169
1.8239645250882879
1.9453334023679185
2.0618957071514274
2.17348449649608
2.2798884802454418
2.3809027796481836
2.4763461165524676
2.5660760003156833
2.6499993756972926
2.7280424132239944
2.8003221793808364
2.8668412341964835
2.9276881424601635
2.9830099448280603
3.0330619416169062
3.077924090491295
3.117811595196036
3.1529720487849797
3.1835940770414304
3.2098830938931755
3.2320440153091816
3.2502946477449153
3.2646890411952407
3.2755282644865993
3.2828779667210237
3.286810158208155
3.2873703509267047
3.284555306887867
3.2783552299349275
3.2684622111802977
3.2547478266364513
3.2369415984223378
3.214662811651275
3.18750335871587
3.154983572852734
3.1166200420866814
3.072169435013512
3.021797100731599
2.9664162056374996
2.909090955685063
2.856705733330004
2.850923934979937
2.8912159836312434
2.935951807063537
2.9784478694868755
3.016171517457993
3.048126899783061
3.074300235370192
3.094918637940555
3.110451986693357
3.121427084923689
3.1281767605052377
3.131115392914425
3.1305333443897125
3.1266690360270357
3.1196590195060017
3.109565710701746
3.096475626221243
3.080366133829533
3.0612210449355763
3.0388525565356734
3.0132831300036864
2.984364979038048