# vtk DataFile Version 4.0
[MyVLM domain - lattices] 
ASCII
DATASET UNSTRUCTURED_GRID
POINTS 302 float
0.03418245623128652 0.8099115608805765 6.099647348634703
0.03405815639044548 0.805194721767917 6.103971172870354
0.03391102596659282 0.799611524450891 6.10908916890439
0.033741064959728534 0.7931619689294993 6.11500133673681
0.03354827336985264 0.7858460552037416 6.121707676367615
0.03333265119696511 0.7776637832736175 6.129208187796806
0.03309419844106597 0.7686151531391276 6.137502871024381
0.032832915102155205 0.7587001648002714 6.146591726050341
0.032548801180232824 0.7479188182570495 6.1564747528746855
0.03224185667529882 0.7362711135094613 6.167151951497415
0.0319120815873532 0.723757050557507 6.178623321918529
0.031559475916395956 0.7103766294011866 6.190888864138029
0.031184039662427106 0.6961298500405007 6.203948578155913
0.03078577282544662 0.6810167124754483 6.217802463972181
0.030364675405454518 0.6650372167060297 6.232450521586835
0.0299207474024508 0.6481913627322451 6.247892750999874
0.02945398881643546 0.6304791505540945 6.264129152211297
0.028964399647408493 0.6119005801715778 6.281159725221106
0.028451979895369912 0.592455651584695 6.298984470029299
0.027916729560319712 0.5721443647934463 6.317603386635877
0.027358648642257895 0.5509667197978314 6.33701647504084
0.02677773714118445 0.5289227165978505 6.357223735244187
0.02617399505709939 0.5060123551935036 6.37822516724592
0.025547422390002704 0.4822356355847904 6.400020771046037
0.02489801913989441 0.45759255777171154 6.422610546644539
0.02422578530677449 0.4320831217542664 6.445994494041426
0.02353072089064295 0.40570732753245514 6.470172613236698
0.02281282589149979 0.3784651751062779 6.495144904230354
0.02207210030934501 0.3503566644757346 6.520911367022396
0.02130854414417861 0.3213817956408253 6.547472001612824
0.020522157396000586 0.2915405686015497 6.574826808001633
0.01971294006481095 0.2608329833579082 6.602975786188831
0.018880892150609688 0.22925903990990065 6.631918936174411
0.018026013653396806 0.196818738257527 6.661656257958376
0.017148304573172308 0.16351207840078735 6.692187751540728
0.016247764909936187 0.12933906033968162 6.723513416921463
0.015324394663688444 0.0942996840742098 6.755633254100583
0.01437819383442909 0.058393949604372004 6.7885472630780885
0.013409162422158111 0.021621856930167993 6.822255443853978
0.012417300426875513 -0.016016593948401825 6.856757796428253
0.011402607848581294 -0.05452140303133791 6.892054320800913
0.010365084687275454 -0.09389257031864001 6.928145016971958
0.009304730942957995 -0.13413009581030816 6.965029884941386
0.008221546615628909 -0.17523397950634256 7.002708924709201
0.007115531705288211 -0.21720422140674292 7.0411821362754
0.005986686211935891 -0.2600408215115093 7.080449519639984
0.004835010135571951 -0.3037437798206417 7.120511074802952
0.0036605034761963908 -0.3483130963341402 7.161366801764306
0.002463166233809218 -0.39374877105200456 7.203016700524044
0.0012429984084104187 -0.44005080397423524 7.2454607710821675
0.0 -0.48721919510083184 7.288699013438676
0.001242998408410413 -0.4439987550706832 7.3358837173918845
0.0024631662338092056 -0.4015721598574148 7.382201763517383
0.0036605034761963795 -0.3599394094610267 7.427653151815169
0.004835010135571934 -0.3191005038815189 7.472237882285243
0.005986686211935866 -0.2790554431188914 7.5159559549276045
0.007115531705288179 -0.23980422717314417 7.5588073697422535
0.008221546615628874 -0.20134685604427716 7.600792126729194
0.009304730942957947 -0.16368332973229055 7.641910225888418
0.010365084687275402 -0.12681364823718416 7.682161667219932
0.011402607848581237 -0.09073781155895794 7.721546450723735
0.012417300426875453 -0.055455819697612097 7.760064576399824
0.013409162422158043 -0.02096767265314664 7.797716044248201
0.014378193834429018 0.012726629574438708 7.834500854268866
0.015324394663688373 0.04562708698514367 7.87041900646182
0.01624776490993611 0.07773369957896842 7.905470500827063
0.01714830457317222 0.1090464673559128 7.939655337364592
0.018026013653396723 0.13956539031597698 7.972973516074409
0.0188808921506096 0.1692904684591609 8.005425036956515
0.019712940064810856 0.19822170178546455 8.037009900010908
0.020522157396000492 0.22635909029488782 8.06772810523759
0.021308544144178505 0.2537026339874308 8.09757965263656
0.022072100309344905 0.28025233286309353 8.126564542207817
0.022812825891499675 0.30600818692187587 8.154682773951363
0.023530720890642835 0.33097019616377804 8.181934347867196
0.02422578530677437 0.35513836058879994 8.208319263955318
0.02489801913989429 0.3785126801969417 8.233837522215726
0.025547422390002586 0.401093154988203 8.258489122648424
0.026173995057099265 0.42287978496258405 8.282274065253409
0.02677773714118432 0.44387257012008485 8.305192350030683
0.027358648642257764 0.46407151046070544 8.327243976980245
0.027916729560319584 0.4834766059844457 8.348428946102093
0.028451979895369774 0.5020878566913056 8.368747257396231
0.02896439964740835 0.5199052625812852 8.388198910862656
0.029453988816435312 0.5369288236543843 8.406783906501369
0.029920747402450654 0.5531585399106038 8.424502244312372
0.030364675405454372 0.5685944113499424 8.44135392429566
0.030785772825446468 0.5832364379724009 8.457338946451237
0.031184039662426947 0.5970846197779793 8.472457310779102
0.0315594759163958 0.6101389567666773 8.486709017279257
0.03191208158735306 0.6223994489384952 8.500094065951696
0.03224185667529867 0.6338660962934322 8.512612456796425
0.03254880118023267 0.6445388988314895 8.524264189813444
0.03283291510215505 0.6544178565526662 8.535049265002748
0.033094198441065814 0.663502969456963 8.54496768236434
0.033332651196964935 0.6717942375443788 8.554019441898223
0.033548273369852465 0.6792916608149149 8.562204543604391
0.03374106495972837 0.6859952392685709 8.569522987482848
0.03391102596659265 0.6919049729053461 8.575974773533593
0.034058156390445314 0.6970208617252414 8.581559901756627
0.03418245623128635 0.7013429057282561 8.586278372151948
0.0478554387238011 1.307050132242676 6.121352887416563
0.04773113888296006 1.3023332931300162 6.125676711652215
0.0475840084591074 1.2967500958129905 6.13079470768625
0.04741404745224311 1.2903005402915986 6.13670687551867
0.047221255862367216 1.282984626565841 6.143413215149476
0.04700563368947969 1.2748023546357168 6.150913726578666
0.046767180933580545 1.265753724501227 6.159208409806241
0.04650589759466978 1.2558387361623709 6.1682972648322005
0.0462217836727474 1.2450573896191488 6.178180291656545
0.0459148391678134 1.2334096848715608 6.1888574902792755
0.04558506407986778 1.2208956219196063 6.20032886070039
0.04523245840891054 1.2075152007632861 6.212594402919889
0.04485702215494168 1.1932684214026 6.225654116937773
0.0444587553179612 1.1781552838375475 6.239508002754041
0.044037657897969096 1.1621757880681292 6.254156060368695
0.04359372989496538 1.1453299340943444 6.269598289781734
0.04312697130895003 1.127617721916194 6.285834690993157
0.04263738213992307 1.109039151533677 6.302865264002966
0.04212496238788449 1.0895942229467943 6.320690008811159
0.04158971205283429 1.0692829361555456 6.339308925417737
0.04103163113477247 1.048105291159931 6.3587220138227
0.04045071963369903 1.02606128795995 6.3789292740260475
0.03984697754961397 1.003150926555603 6.39993070602778
0.03922040488251729 0.9793742069468901 6.421726309827897
0.038571001632408994 0.954731129133811 6.444316085426399
0.037898767799289065 0.9292216931163657 6.467700032823286
0.03720370338315753 0.9028458988945547 6.4918781520185584
0.03648580838401437 0.8756037464683772 6.516850443012215
0.03574508280185959 0.8474952358378341 6.542616905804256
0.03498152663669319 0.8185203670029246 6.5691775403946835
0.034195139888515164 0.7886791399636492 6.596532346783493
0.03338592255732553 0.7579715547200079 6.624681324970691
0.032553874643124266 0.7263976112719999 6.6536244749562705
0.03169899614591139 0.6939573096196265 6.683361796740236
0.030821287065686886 0.6606506497628868 6.713893290322586
0.029920747402450765 0.6264776317017811 6.745218955703323
0.02899737715620303 0.5914382554363091 6.777338792882443
0.028051176326943667 0.5555325209664712 6.810252801859948
0.027082144914672684 0.5187604282922675 6.8439609826358385
0.026090282919390088 0.48112197741369755 6.878463335210113
0.025075590341095872 0.4426171683307615 6.913759859582773
0.024038067179790033 0.40324600104345937 6.949850555753818
0.02297771343547257 0.3630084755517912 6.986735423723246
0.02189452910814349 0.32190459185575676 7.024414463491061
0.020788514197802792 0.27993434995535654 7.06288767505726
0.01965966870445047 0.23709774985059012 7.102155058421844
0.018507992628086528 0.19339479154145772 7.142216613584812
0.01733348596871097 0.14882547502795923 7.183072340546166
0.016136148726323796 0.10338980031009476 7.224722239305904
0.014915980900924997 0.0570877673878642 7.267166309864027
0.013672982492514578 0.009919376261267543 7.310404552220536
0.014915980900924991 0.05313981629141623 7.357589256173745
0.016136148726323782 0.09556641150468453 7.403907302299244
0.017333485968710958 0.13719916190107267 7.449358690597029
0.018507992628086514 0.17803806748058054 7.493943421067103
0.019659668704450444 0.2180831282432079 7.537661493709464
0.020788514197802758 0.25733434418895523 7.580512908524114
0.021894529108143452 0.2957917153178223 7.6224976655110535
0.022977713435472526 0.33345524162980894 7.663615764670278
0.02403806717978998 0.3703249231249152 7.703867206001792
0.025075590341095817 0.40640075980314155 7.743251989505595
0.026090282919390025 0.4416827516644873 7.781770115181684
0.027082144914672625 0.47617089870895274 7.819421583030061
0.028051176326943594 0.5098652009365379 7.8562063930507255
0.02899737715620295 0.5427656583472431 7.8921245452436795
0.02992074740245069 0.5748722709410679 7.927176039608923
0.030821287065686803 0.6061850387180121 7.961360876146452
0.031698996145911304 0.6367039616780765 7.994679054856269
0.032553874643124175 0.6664290398212604 8.027130575738376
0.033385922557325434 0.6953602731475639 8.058715438792769
[...]
CELL_DATA 200

VECTORS Vinf float
5.228146751752215 41.38133594531994 -8.693601566898463
5.214041971519971 41.415277374914616 -8.65919122820299
5.197801785860949 41.454887709539314 -8.619040033080969
5.179554209107569 41.50014588640228 -8.573170639796102
5.159455952228113 41.55102668704298 -8.521608955068412
5.13769431633897 41.60750060826601 -8.464383854933484
5.114487934775284 41.66953391150247 -8.401526722219398
5.090085956695436 41.737088903048594 -8.333070774191302
5.0647653267912744 41.810124486439406 -8.259050170085446
5.0388259389259815 41.88859700830116 -8.179498911295207
5.0125836297475805 41.972461390339056 -8.094449575665628
4.982892825560334 42.063620807892136 -7.99838308409441
4.957493719270698 42.157870890272434 -7.903083737588475
4.932619296930456 42.25739261925117 -7.802381130650315
4.910923672881786 42.36096663120142 -7.699798373748866
4.8877761653268035 42.471166069960994 -7.587606421045689
4.865998757746743 42.586538121529045 -7.47001350303946
4.845747134789477 42.707066168872366 -7.347013198598241
4.827129717447784 42.832740470730535 -7.218593336004975
4.810210199275749 42.96355756385517 -7.084737189449216
4.795012875413196 43.09951929613803 -6.945424883762541
4.7777916380418555 43.24133607049597 -6.800271568458742
4.767890459133364 43.38757127598551 -6.649271083066504
4.758946717778171 43.53900560444979 -6.492978612397793
4.751012853537418 43.69562948849876 -6.331405453431716
4.744128599020211 43.857434597153 -6.164563444228684
4.738326738937588 44.02441303641047 -5.99246573955783
4.733639259383025 44.19655655256893 -5.815127412091688
4.731334308608558 44.37346729744362 -5.632052780968819
4.7298974202708886 44.55613217354085 -5.442779013932602
4.729816623101271 44.74402114670998 -5.247892221108552
4.731107129645779 44.93713411937654 -5.047387260422988
4.73380620379796 45.13546840729178 -4.8412603464020805
4.737803519277291 45.33912376573096 -4.630271735449279
4.744425855789464 45.547917338954946 -4.412390114569642
4.752389631990003 45.76191354597735 -4.189013744031858
4.761791839671338 45.9811042743824 -3.9601360339169682
4.772701912421103 46.205485769060815 -3.7257487582204685
4.784036233405235 46.43475292294872 -3.4862766231485596
4.798778269510488 46.6694754012076 -3.2406924155169876
4.815212352235505 46.909421524820885 -2.9894303048869046
4.832959675581503 47.154638459613146 -2.7324638673790598
4.851385771487439 47.40519815839786 -2.4697587416801343
4.869928435549242 47.66115945252018 -2.2021156492293215
4.886656711001776 47.92270773189649 -1.9279225583012904
4.900847005310296 48.18992788718612 -1.6478579990662743
4.9117684936777835 48.46304686949511 -1.3608511061687236
4.919239583007931 48.74175128082693 -1.06903643160822
4.92330536957148 49.026196739265885 -0.7714622693906389
4.924770255309098 49.31629824260712 -0.46820219860768825
4.925907214408158 49.61570751383753 -0.4615610882242131
4.927454992039583 49.918822201260774 -0.7518168441738045
4.926717086758632 50.21653210258624 -1.0366705041454456
4.922567179019514 50.508952439349756 -1.3161957180700912
4.914538450426544 50.79613280966222 -1.5904587770429781
4.903240789013848 51.077922576759526 -1.8604833229514477
4.889021367509703 51.354510626305334 -2.123984758320198
4.873187136523803 51.62560968528756 -2.382450633631834
4.8578580893643615 51.89103153891172 -2.63589180638293
4.841483329415789 52.150952475709786 -2.8836805240390073
4.826671376288599 52.405048124564296 -3.1263902414238514
4.813731914652509 52.65328755733306 -3.3639758461917033
4.802755427070582 52.895663261514215 -3.5963997430149046
4.793960194861471 53.132032142697305 -3.8235097059577288
4.786509992851457 53.36277473838339 -4.04484445450489
4.779753912290034 53.58780089920794 -4.260854950371774
4.7730160831134825 53.80772402952257 -4.469234705709862
4.767449869850325 54.02129119017955 -4.674988465823827
4.763281681596413 54.22911782708981 -4.875161217063446
4.760447080490623 54.431213161298636 -5.06975959711382
4.758890699040208 54.627585047578805 -5.258789695842232
4.758554117053869 54.8182410731648 -5.442257490665666
4.759362415144698 55.003189765199025 -5.620169487802142
4.761211700208847 55.18244169325128 -5.792533457847094
4.763960229908811 55.35601023955771 -5.959359113346359
4.7684013983473 55.52336684706241 -6.123544241613264
4.774467978823645 55.68519441451577 -6.280578270617259
4.776700718621919 55.84253390288324 -6.4283137132227255
4.784551449382258 55.99311184577819 -6.573865546639477
4.7940881257783206 56.13792803543718 -6.713960279157237
4.805419751380169 56.276975853102215 -6.8485870452135424
4.818629025090658 56.410250867486496 -6.977735524441307
4.833508961865195 56.537645770920726 -7.102348084671076
4.850844036617816 56.65942371798828 -7.220139974011359
4.870030009406996 56.77542499608316 -7.33251098852537
4.890274314235113 56.88566479360666 -7.439402160357754
4.912366260423863 56.99014898949632 -7.541076053915961
4.935697670426943 57.08892374538324 -7.63726089253038
4.959955542809566 57.18201550230311 -7.727967007739719
4.984791268673162 57.26945325415685 -7.813207740682302
5.009836755962166 57.35126724869965 -7.8929987601387435
5.0347207135172605 57.4274876919717 -7.9673572812178675
5.059083544387731 57.49814357810269 -8.036301267135872
5.082589686572521 57.563261734342326 -8.099848685113011
5.106177623803714 57.62200197409911 -8.161295080336878
5.12725087858705 57.676087594871134 -8.214071657133347
5.146690623826333 57.72469756887489 -8.261506528663816
5.164305908029393 57.76784670390923 -8.303611607649808
5.1799452393169565 57.805546610711204 -8.340397086605126
5.193492201647162 57.83780608890115 -8.371871464918451
5.228146751752215 41.38133594531994 -8.693601566898463
5.214041971519971 41.415277374914616 -8.65919122820299
5.197801785860949 41.454887709539314 -8.619040033080969
5.179554209107569 41.50014588640228 -8.573170639796102
5.159455952228113 41.55102668704298 -8.521608955068412
5.13769431633897 41.60750060826601 -8.464383854933484
5.114487934775284 41.66953391150247 -8.401526722219398
5.090085956695436 41.737088903048594 -8.333070774191302
5.0647653267912744 41.810124486439406 -8.259050170085446
5.0388259389259815 41.88859700830116 -8.179498911295207
5.0125836297475805 41.972461390339056 -8.094449575665628
4.982892825560334 42.063620807892136 -7.99838308409441
4.957493719270698 42.157870890272434 -7.903083737588475
4.932619296930456 42.25739261925117 -7.802381130650315
4.910923672881786 42.36096663120142 -7.699798373748866
4.8877761653268035 42.471166069960994 -7.587606421045689
4.865998757746743 42.586538121529045 -7.47001350303946
4.845747134789477 42.707066168872366 -7.347013198598241
4.827129717447784 42.832740470730535 -7.218593336004975
4.810210199275749 42.96355756385517 -7.084737189449216
4.795012875413196 43.09951929613803 -6.945424883762541
4.7777916380418555 43.24133607049597 -6.800271568458742
4.767890459133364 43.38757127598551 -6.649271083066504
4.758946717778171 43.53900560444979 -6.492978612397793
4.751012853537418 43.69562948849876 -6.331405453431716
4.744128599020211 43.857434597153 -6.164563444228684
4.738326738937588 44.02441303641047 -5.99246573955783
4.733639259383025 44.19655655256893 -5.815127412091688
4.731334308608558 44.37346729744362 -5.632052780968819
4.7298974202708886 44.55613217354085 -5.442779013932602
4.729816623101271 44.74402114670998 -5.247892221108552
4.731107129645779 44.93713411937654 -5.047387260422988
4.73380620379796 45.13546840729178 -4.8412603464020805
4.737803519277291 45.33912376573096 -4.630271735449279
4.744425855789464 45.547917338954946 -4.412390114569642
4.752389631990003 45.76191354597735 -4.189013744031858
4.761791839671338 45.9811042743824 -3.9601360339169682
4.772701912421103 46.205485769060815 -3.7257487582204685
4.784036233405235 46.43475292294872 -3.4862766231485596
4.798778269510488 46.6694754012076 -3.2406924155169876
4.815212352235505 46.909421524820885 -2.9894303048869046
4.832959675581503 47.154638459613146 -2.7324638673790598
4.851385771487439 47.40519815839786 -2.4697587416801343
4.869928435549242 47.66115945252018 -2.2021156492293215
4.886656711001776 47.92270773189649 -1.9279225583012904
4.900847005310296 48.18992788718612 -1.6478579990662743
4.9117684936777835 48.46304686949511 -1.3608511061687236
4.919239583007931 48.74175128082693 -1.06903643160822
4.92330536957148 49.026196739265885 -0.7714622693906389
4.924770255309098 49.31629824260712 -0.46820219860768825
4.925907214408158 49.61570751383753 -0.4615610882242131
4.927454992039583 49.918822201260774 -0.7518168441738045
4.926717086758632 50.21653210258624 -1.0366705041454456
4.922567179019514 50.508952439349756 -1.3161957180700912
4.914538450426544 50.79613280966222 -1.5904587770429781
4.903240789013848 51.077922576759526 -1.8604833229514477
4.889021367509703 51.354510626305334 -2.123984758320198
4.873187136523803 51.62560968528756 -2.382450633631834
4.8578580893643615 51.89103153891172 -2.63589180638293
4.841483329415789 52.150952475709786 -2.8836805240390073
4.826671376288599 52.405048124564296 -3.1263902414238514
4.813731914652509 52.65328755733306 -3.3639758461917033
4.802755427070582 52.895663261514215 -3.5963997430149046
4.793960194861471 53.132032142697305 -3.8235097059577288
4.786509992851457 53.36277473838339 -4.04484445450489
4.779753912290034 53.58780089920794 -4.260854950371774
4.7730160831134825 53.80772402952257 -4.469234705709862
4.767449869850325 54.02129119017955 -4.674988465823827
4.763281681596413 54.22911782708981 -4.875161217063446
4.760447080490623 54.431213161298636 -5.06975959711382
4.758890699040208 54.627585047578805 -5.258789695842232
4.758554117053869 54.8182410731648 -5.442257490665666
4.759362415144698 55.003189765199025 -5.620169487802142
4.761211700208847 55.18244169325128 -5.792533457847094
4.763960229908811 55.35601023955771 -5.959359113346359
4.7684013983473 55.52336684706241 -6.123544241613264
4.774467978823645 55.68519441451577 -6.280578270617259
4.776700718621919 55.84253390288324 -6.4283137132227255
4.784551449382258 55.99311184577819 -6.573865546639477
4.7940881257783206 56.13792803543718 -6.713960279157237
4.805419751380169 56.276975853102215 -6.8485870452135424
4.818629025090658 56.410250867486496 -6.977735524441307
4.833508961865195 56.537645770920726 -7.102348084671076
4.850844036617816 56.65942371798828 -7.220139974011359
4.870030009406996 56.77542499608316 -7.33251098852537
4.890274314235113 56.88566479360666 -7.439402160357754
4.912366260423863 56.99014898949632 -7.541076053915961
4.935697670426943 57.08892374538324 -7.63726089253038
4.959955542809566 57.18201550230311 -7.727967007739719
4.984791268673162 57.26945325415685 -7.813207740682302
5.009836755962166 57.35126724869965 -7.8929987601387435
5.0347207135172605 57.4274876919717 -7.9673572812178675
5.059083544387731 57.49814357810269 -8.036301267135872
5.082589686572521 57.563261734342326 -8.099848685113011
5.106177623803714 57.62200197409911 -8.161295080336878
5.12725087858705 57.676087594871134 -8.214071657133347
5.146690623826333 57.72469756887489 -8.261506528663816
5.164305908029393 57.76784670390923 -8.303611607649808
5.1799452393169565 57.805546610711204 -8.340397086605126
5.193492201647162 57.83780608890115 -8.371871464918451

VECTORS L float
0.05852174252445466 0.0 0.0
0.10581696338900617 0.0 0.0
0.1571175026034756 0.0 0.0
0.21414979700126513 0.0 0.0
0.27740581043355744 0.0 0.0
0.3470440868238998 0.0 0.0
0.42308419047980295 0.0 0.0
0.5054658365841153 0.0 0.0
0.5940701308660794 0.0 0.0
0.6887280156987585 0.0 0.0
0.7892241143433203 0.0 0.0
0.8952849565552905 0.0 0.0
1.00664815350856 0.0 0.0
1.122993985122067 0.0 0.0
1.2439642363290369 0.0 0.0
1.3691464620237408 0.0 0.0
1.498169101170757 0.0 0.0
1.6306599739335106 0.0 0.0
1.766254877750089 0.0 0.0
1.9046129175047193 0.0 0.0
2.045389356909946 0.0 0.0
2.1882365765116267 0.0 0.0
2.3330971103895957 0.0 0.0
2.4796212402118103 0.0 0.0
2.6275554596560466 0.0 0.0
2.776690391547305 0.0 0.0
2.926843200673867 0.0 0.0
3.0778562190344756 0.0 0.0
3.2296073682475046 0.0 0.0
3.3819228942310327 0.0 0.0
3.5346617424681925 0.0 0.0
3.687667888976343 0.0 0.0
3.840758402832075 0.0 0.0
3.993729914352626 0.0 0.0
4.146398457323543 0.0 0.0
4.298393373589418 0.0 0.0
4.449312094317061 0.0 0.0
4.598635649684122 0.0 0.0
4.745713295275015 0.0 0.0
4.889899637285436 0.0 0.0
5.030165632475133 0.0 0.0
5.165337121200879 0.0 0.0
5.293770799435655 0.0 0.0
5.413919309428225 0.0 0.0
5.524093519370136 0.0 0.0
5.622892190488144 0.0 0.0
5.7096578418231365 0.0 0.0
5.785655392429396 0.0 0.0
5.856320350863549 0.0 0.0
5.946471820113046 0.0 0.0
6.2083606269348 0.0 0.0
6.237123745520875 0.0 0.0
6.282482024673729 0.0 0.0
6.319175781769473 0.0 0.0
6.340804966481037 0.0 0.0
6.345285035980543 0.0 0.0
6.33258047295353 0.0 0.0
6.303564357457439 0.0 0.0
6.259562929836258 0.0 0.0
6.20180903158898 0.0 0.0
6.131673138167506 0.0 0.0
6.050557916237942 0.0 0.0
5.958882901791817 0.0 0.0
5.857763697161016 0.0 0.0
5.747765130600819 0.0 0.0
5.629390365577464 0.0 0.0
5.503063576979392 0.0 0.0
5.369221207699313 0.0 0.0
5.228411441006849 0.0 0.0
5.080934497464603 0.0 0.0
4.927079061374265 0.0 0.0
4.767143873410635 0.0 0.0
4.601415180771725 0.0 0.0
4.4302905367359475 0.0 0.0
4.254052744636153 0.0 0.0
4.0731210445690795 0.0 0.0
3.8879184308972845 0.0 0.0
3.6988640667137673 0.0 0.0
3.5066325551202446 0.0 0.0
3.311884304697632 0.0 0.0
3.115200710439898 0.0 0.0
2.917291610500204 0.0 0.0
2.7189275385382277 0.0 0.0
2.5209528050894066 0.0 0.0
2.3242413551703214 0.0 0.0
2.1297133030307736 0.0 0.0
1.938344265969836 0.0 0.0
1.7510992271261328 0.0 0.0
1.5689358346008542 0.0 0.0
1.39277956884277 0.0 0.0
1.2235101239335178 0.0 0.0
1.0619456618272392 0.0 0.0
0.9088288076809078 0.0 0.0
0.7648173831046493 0.0 0.0
0.6304731862871387 0.0 0.0
0.5062232303815961 0.0 0.0
0.39234434187036815 0.0 0.0
0.28882863291425026 0.0 0.0
0.19501639798482315 0.0 0.0
0.1078934574462457 0.0 0.0
0.05852174252445466 0.0 0.0
0.10581696338900617 0.0 0.0
0.1571175026034756 0.0 0.0
0.21414979700126513 0.0 0.0
0.27740581043355744 0.0 0.0
0.3470440868238998 0.0 0.0
0.42308419047980295 0.0 0.0
0.5054658365841153 0.0 0.0
0.5940701308660794 0.0 0.0
0.6887280156987585 0.0 0.0
0.7892241143433203 0.0 0.0
0.8952849565552905 0.0 0.0
1.00664815350856 0.0 0.0
1.122993985122067 0.0 0.0
1.2439642363290369 0.0 0.0
1.3691464620237408 0.0 0.0
1.498169101170757 0.0 0.0
1.6306599739335106 0.0 0.0
1.766254877750089 0.0 0.0
1.9046129175047193 0.0 0.0
2.045389356909946 0.0 0.0
2.1882365765116267 0.0 0.0
2.3330971103895957 0.0 0.0
2.4796212402118103 0.0 0.0
2.6275554596560466 0.0 0.0
2.776690391547305 0.0 0.0
2.926843200673867 0.0 0.0
3.0778562190344756 0.0 0.0
3.2296073682475046 0.0 0.0
3.3819228942310327 0.0 0.0
3.5346617424681925 0.0 0.0
3.687667888976343 0.0 0.0
3.840758402832075 0.0 0.0
3.993729914352626 0.0 0.0
4.146398457323543 0.0 0.0
4.298393373589418 0.0 0.0
4.449312094317061 0.0 0.0
4.598635649684122 0.0 0.0
4.745713295275015 0.0 0.0
4.889899637285436 0.0 0.0
5.030165632475133 0.0 0.0
5.165337121200879 0.0 0.0
5.293770799435655 0.0 0.0
5.413919309428225 0.0 0.0
5.524093519370136 0.0 0.0
5.622892190488144 0.0 0.0
5.7096578418231365 0.0 0.0
5.785655392429396 0.0 0.0
5.856320350863549 0.0 0.0
5.946471820113046 0.0 0.0
6.2083606269348 0.0 0.0
6.237123745520875 0.0 0.0
6.282482024673729 0.0 0.0
6.319175781769473 0.0 0.0
6.340804966481037 0.0 0.0
6.345285035980543 0.0 0.0
6.33258047295353 0.0 0.0
6.303564357457439 0.0 0.0
6.259562929836258 0.0 0.0
6.20180903158898 0.0 0.0
6.131673138167506 0.0 0.0
6.050557916237942 0.0 0.0
5.958882901791817 0.0 0.0
5.857763697161016 0.0 0.0
5.747765130600819 0.0 0.0
5.629390365577464 0.0 0.0
5.503063576979392 0.0 0.0
5.369221207699313 0.0 0.0
5.228411441006849 0.0 0.0
5.080934497464603 0.0 0.0
4.927079061374265 0.0 0.0
4.767143873410635 0.0 0.0
4.601415180771725 0.0 0.0
4.4302905367359475 0.0 0.0
4.254052744636153 0.0 0.0
4.0731210445690795 0.0 0.0
3.8879184308972845 0.0 0.0
3.6988640667137673 0.0 0.0
3.5066325551202446 0.0 0.0
3.311884304697632 0.0 0.0
3.115200710439898 0.0 0.0
2.917291610500204 0.0 0.0
2.7189275385382277 0.0 0.0
2.5209528050894066 0.0 0.0
2.3242413551703214 0.0 0.0
2.1297133030307736 0.0 0.0
1.938344265969836 0.0 0.0
1.7510992271261328 0.0 0.0
1.5689358346008542 0.0 0.0
1.39277956884277 0.0 0.0
1.2235101239335178 0.0 0.0
1.0619456618272392 0.0 0.0
0.9088288076809078 0.0 0.0
0.7648173831046493 0.0 0.0
0.6304731862871387 0.0 0.0
0.5062232303815961 0.0 0.0
0.39234434187036815 0.0 0.0
0.28882863291425026 0.0 0.0
0.19501639798482315 0.0 0.0
0.1078934574462457 0.0 0.0

SCALARS Gamma float
LOOKUP_TABLE default
0.4235011571738707
0.65093446857925
0.837074683277565
1.0045658465505851
1.1610132757746303
1.3097571116189624
1.4524408202057102
1.5898934918477392
1.722503051482158
1.8503985597658874
1.9735495672925958
2.0917966188654997
2.2050383216202403
2.3130830164598173
2.41571295080913
2.5126706478193994
2.6038321732660865
2.6891120810536617
2.768470429692827
2.8419264291204387
2.9095103758572165
2.9712686921304066
3.0276203620157434
3.0785843125664667
3.124307766435022
3.1649841668814926
3.2008252667600825
3.2320557913442842
3.2589196717908635
3.281594071123627
3.3002771296738236
3.3151417814150554
3.326329489955264
3.333960664705025
3.3381677884278256
3.33893731626066
3.3362472698010532
3.3300093543016174
3.320070659031573
3.306314509583481
3.2884073946810797
3.265982557115544
3.238455870250691
3.205401756296043
3.166365239852653
3.12114072124171
3.0699415001932175
3.0138548410717094
2.9556388490256116
2.902442376031739
2.8965518619513704
2.9374451463774442
2.9828368347315246
3.025934588039799
3.0641732767377134
3.096573120151593
3.1230121307226995
3.143765328989565
3.159316411571907
3.1701021539084713
3.1766315734274917
3.1793185888022437
3.1784754054508966
3.1743255200715077
3.1669734481966905
3.1564836083487373
3.1428687623949028
3.126191730902601
3.106426945082389
3.083529534797918
3.0573860060720532
3.0278686359673994
2.9948318334095356
2.9581200652854847
2.9175623339213574
2.873010174804927
2.824290751038141
2.771197284808901
2.7137267415282453
2.6517102459103743
2.5850325192176755
2.513608629944375
2.4373849914995396
2.356358682710288
2.2705474492690723
2.1800122009488874
2.084879301366501
1.9852862173342474
1.8813899834434458
1.7733441870450273
1.661281551434315
1.5452859018459333
1.4253533565420973
1.3013410612993466
1.1728825810387513
1.0391930670453156
0.8987873264177308
0.7486605801101168
0.5819976963802901
0.378550241401522
0.4235011571738707
0.65093446857925
0.837074683277565
1.0045658465505851
1.1610132757746303
1.3097571116189624
1.4524408202057102
1.5898934918477392
1.722503051482158
1.8503985597658874
1.9735495672925958
2.0917966188654997
2.2050383216202403
2.3130830164598173
2.41571295080913
2.5126706478193994
2.6038321732660865
2.6891120810536617
2.768470429692827
2.8419264291204387
2.9095103758572165
2.9712686921304066
3.0276203620157434
3.0785843125664667
3.124307766435022
3.1649841668814926
3.2008252667600825
3.2320557913442842
3.2589196717908635
3.281594071123627
3.3002771296738236
3.3151417814150554
3.326329489955264
3.333960664705025
3.3381677884278256
3.33893731626066
3.3362472698010532
3.3300093543016174
3.320070659031573
3.306314509583481
3.2884073946810797
3.265982557115544
3.238455870250691
3.205401756296043
3.166365239852653
3.12114072124171
3.0699415001932175
3.0138548410717094
2.9556388490256116
2.902442376031739
2.8965518619513704
2.9374451463774442
2.9828368347315246
3.025934588039799
3.0641732767377134
3.096573120151593
3.1230121307226995
3.143765328989565
3.159316411571907
3.1701021539084713
3.1766315734274917
3.1793185888022437
3.1784754054508966
3.1743255200715077
3.1669734481966905
3.1564836083487373
3.1428687623949028
3.126191730902601
3.106426945082389
3.083529534797918
3.0573860060720532
3.0278686359673994
2.9948318334095356
2.9581200652854847
2.9175623339213574
2.873010174804927
2.824290751038141
2.771197284808901
2.7137267415282453
2.6517102459103743
2.5850325192176755
2.513608629944375
2.4373849914995396
2.356358682710288
2.2705474492690723
2.1800122009488874
2.084879301366501
1.9852862173342474