# vtk DataFile Version 4.0
[MyVLM domain - lattices] 
ASCII
DATASET UNSTRUCTURED_GRID
POINTS 302 float
0.034182456231286316 2.683978155288159 -5.879216087946741
0.03405815639044528 2.6902794861154273 -5.88032840851242
0.033911025966592616 2.6977382042375004 -5.881645032855469
0.03374106495972833 2.706354309654378 -5.883165960975888
0.03354827336985244 2.716127802366059 -5.884891192873676
0.03333265119696491 2.7270586823725456 -5.886820728548834
0.03309419844106577 2.7391469496738363 -5.8889545680013615
0.03283291510215501 2.7523926042699314 -5.89129271123126
0.03254880118023264 2.7667956461608307 -5.893835158238526
0.03224185667529863 2.7823560753465344 -5.896581909023163
0.03191208158735301 2.799073891827043 -5.89953296358517
0.031559475916395775 2.8169490956023555 -5.902688321924545
0.031184039662426916 2.835981686672472 -5.906047984041291
0.030785772825446433 2.856171665037394 -5.909611949935407
0.030364675405454337 2.8775190306971195 -5.913380219606892
0.02992074740245062 2.90002378365165 -5.917352793055747
0.029453988816435284 2.9236859239009845 -5.921529670281971
0.028964399647408316 2.948505451445124 -5.925910851285566
0.028451979895369742 2.9744823662840676 -5.930496336066529
0.02791672956031955 3.0016166684178156 -5.935286124624863
0.027358648642257732 3.029908357846368 -5.9402802169605655
0.026777737141184293 3.0593574345697245 -5.945478613073639
0.026173995057099237 3.089963898587886 -5.950881312964081
0.02554742239000255 3.1217277499008516 -5.956488316631893
0.024898019139894263 3.1546489885086215 -5.962299624077075
0.02422578530677435 3.188727614411196 -5.9683152352996265
0.02353072089064281 3.223963627608575 -5.974535150299547
0.022812825891499654 3.260357028100758 -5.980959369076839
0.02207210030934488 3.2979078158877453 -5.987587891631499
0.021308544144178484 3.336615990969537 -5.994420717963529
0.020522157396000468 3.376481553346134 -6.0014578480729295
0.01971294006481083 3.4175045030175353 -6.008699281959698
0.018880892150609577 3.459684839983741 -6.0161450196238375
0.018026013653396702 3.50302256424475 -6.023795061065346
0.017148304573172207 3.547517675800565 -6.031649406284226
0.01624776490993609 3.5931701746511835 -6.039708055280474
0.015324394663688356 3.6399800607966064 -6.047971008054091
0.014378193834429 3.6879473342368345 -6.056438264605079
0.013409162422158031 3.7370719949718656 -6.065109824933437
0.01241730042687544 3.787354043001702 -6.073985689039163
0.011402607848581226 3.8387934783263424 -6.08306585692226
0.010365084687275393 3.891390300945788 -6.092350328582726
0.00930473094295794 3.945144510860037 -6.101839104020562
0.008221546615628862 4.000056108069091 -6.111532183235767
0.00711553170528817 4.05612509257295 -6.121429566228343
0.005986686211935856 4.113351464371612 -6.131531252998288
0.0048350101355719224 4.171735223465079 -6.141837243545603
0.00366050347619637 4.231276369853351 -6.152347537870287
0.002463166233809203 4.291974903536427 -6.163062135972341
0.0012429984084104113 4.353830824514308 -6.173981037851765
0.0 4.416844132786992 -6.185104243508558
0.0012429984084104163 4.405744706335317 -6.248121744696685
0.0024631662338092126 4.3948491469001 -6.309981781577275
0.0036605034761963895 4.384157454481342 -6.3706843541503275
0.004835010135571946 4.373669629079044 -6.430229462415844
0.005986686211935883 4.363385670693206 -6.488617106373823
0.007115531705288197 4.353305579323827 -6.545847286024265
0.008221546615628895 4.343429354970907 -6.601920001367168
0.009304730942957971 4.333756997634447 -6.656835252402536
0.010365084687275428 4.324288507314446 -6.710593039130368
0.011402607848581266 4.3150238840109045 -6.763193361550661
0.012417300426875484 4.305963127723822 -6.814636219663419
0.013409162422158076 4.297106238453199 -6.864921613468638
0.014378193834429055 4.288453216199035 -6.91404954296632
0.015324394663688417 4.280004060961331 -6.9620200081564665
0.016247764909936152 4.271758772740086 -7.0088330090390745
0.017148304573172266 4.2637173515353 -7.054488545614146
0.01802601365339677 4.255879797346974 -7.098986617881681
0.01888089215060965 4.248246110175107 -7.142327225841679
0.01971294006481091 4.2408162900196995 -7.184510369494139
0.020522157396000548 4.233590336880751 -7.225536048839063
0.02130854414417856 4.2265682507582625 -7.265404263876449
0.022072100309344964 4.219750031652233 -7.304115014606298
0.022812825891499734 4.213135679562663 -7.341668301028611
0.023530720890642898 4.206725194489552 -7.378064123143387
0.024225785306774435 4.200518576432901 -7.413302480950626
0.024898019139894353 4.194515825392709 -7.447383374450325
0.025547422390002655 4.188716941368976 -7.48030680364249
0.02617399505709933 4.183121924361703 -7.5120727685271165
0.026777737141184393 4.177730774370889 -7.542681269104206
0.02735864864225784 4.172543491396534 -7.572132305373761
0.027916729560319656 4.167560075438638 -7.600425877335776
0.02845197989536985 4.162780526497203 -7.6275619849902565
0.02896439964740843 4.158204844572226 -7.653540628337199
0.029453988816435385 4.1538330296637085 -7.6783618073766045
0.029920747402450733 4.149665081771651 -7.702025522108471
0.030364675405454452 4.145701000896053 -7.724531772532804
0.030785772825446547 4.141940787036914 -7.745880558649596
0.031184039662427034 4.138384440194233 -7.7660718804588535
0.031559475916395886 4.135031960368013 -7.785105737960573
0.03191208158735314 4.131883347558252 -7.802982131154757
0.032241856675298754 4.1289386017649505 -7.819701060041402
0.03254880118023276 4.126197722988108 -7.83526252462051
0.032832915102155136 4.123660711227725 -7.849666524892082
0.0330941984410659 4.121327566483801 -7.862913060856118
0.03333265119696503 4.119198288756337 -7.8750021325126145
0.033548273369852555 4.117272878045331 -7.885933739861575
0.03374106495972846 4.115551334350786 -7.895707882903
0.03391102596659274 4.1140336576726995 -7.904324561636886
0.034058156390445404 4.112719848011072 -7.911783776063237
0.03418245623128644 4.1116099053659045 -7.91808552618205
0.047855438723800874 2.276358114304175 -6.164634713369075
0.04773113888295984 2.2826594451314435 -6.165747033934755
0.04758400845910717 2.290118163253516 -6.1670636582778044
0.04741404745224289 2.2987342686703935 -6.1685845863982225
0.047221255862366994 2.3085077613820753 -6.170309818296011
0.047005633689479465 2.3194386413885617 -6.172239353971169
0.04676718093358033 2.331526908689852 -6.174373193423697
0.04650589759466957 2.344772563285947 -6.176711336653594
0.04622178367274719 2.359175605176846 -6.179253783660862
0.045914839167813186 2.3747360343625505 -6.182000534445498
0.045585064079867565 2.3914538508430585 -6.184951589007505
0.04523245840891034 2.4093290546183708 -6.18810694734688
0.04485702215494148 2.4283616456884882 -6.191466609463626
0.04445875531796099 2.4485516240534095 -6.195030575357742
0.044037657897968895 2.469898989713135 -6.198798845029227
0.043593729894965176 2.4924037426676655 -6.202771418478082
0.04312697130894984 2.516065882917 -6.206948295704306
0.04263738213992287 2.5408854104611396 -6.2113294767079
0.042124962387884296 2.5668623253000833 -6.215914961488864
0.041589712052834106 2.5939966274338313 -6.220704750047197
0.04103163113477229 2.6222883168623836 -6.225698842382901
0.040450719633698846 2.6517373935857407 -6.230897238495974
0.03984697754961379 2.6823438576039016 -6.236299938386416
0.03922040488251711 2.7141077089168673 -6.241906942054228
0.03857100163240882 2.747028947524637 -6.2477182494994095
0.0378987677992889 2.781107573427212 -6.253733860721962
0.03720370338315737 2.8163435866245905 -6.259953775721883
0.03648580838401421 2.852736987116774 -6.266377994499173
0.03574508280185943 2.8902877749037614 -6.273006517053834
0.03498152663669304 2.928995949985554 -6.279839343385865
0.03419513988851502 2.9688615123621505 -6.286876473495264
0.03338592255732539 3.009884462033551 -6.2941179073820335
0.03255387464312413 3.0520647989997567 -6.301563645046173
0.03169899614591126 3.0954025232607663 -6.3092136864876815
0.03082128706568676 3.1398976348165806 -6.31706803170656
0.029920747402450647 3.185550133667199 -6.325126680702809
0.028997377156202916 3.232360019812622 -6.333389633476426
0.028051176326943553 3.2803272932528498 -6.341856890027414
0.027082144914672583 3.3294519539878813 -6.350528450355771
0.026090282919389994 3.379734002017717 -6.359404314461498
0.025075590341095782 3.431173437342358 -6.368484482344595
0.024038067179789947 3.4837702599618035 -6.377768954005061
0.022977713435472495 3.537524469876053 -6.387257729442897
0.02189452910814342 3.592436067085107 -6.396950808658103
0.020788514197802727 3.648505051588965 -6.4068481916506785
0.019659668704450413 3.705731423387628 -6.416949878420623
0.018507992628086476 3.7641151824810954 -6.427255868967937
0.017333485968710927 3.823656328869367 -6.437766163292622
0.01613614872632376 3.8843548625524424 -6.448480761394676
0.014915980900924969 3.9462107835303226 -6.4593996632741
0.013672982492514555 4.009224091803008 -6.470522868930893
0.014915980900924972 3.9981246653513316 -6.53354037011902
0.016136148726323768 3.9872291059161156 -6.59540040699961
0.017333485968710944 3.9765374134973586 -6.656102979572663
0.018507992628086504 3.9660495880950606 -6.715648087838179
0.019659668704450437 3.955765629709222 -6.7740357317961575
0.020788514197802754 3.945685538339843 -6.8312659114466
0.02189452910814345 3.9358093139869235 -6.887338626789505
0.022977713435472526 3.9261369566504625 -6.9422538778248715
0.024038067179789985 3.9166684663304614 -6.996011664552702
0.025075590341095823 3.9074038430269193 -7.048611986972998
0.02609028291939004 3.8983430867398376 -7.1000548450857535
0.02708214491467263 3.889486197469215 -7.150340238890973
0.028051176326943608 3.8808331752150513 -7.1994681683886546
0.028997377156202972 3.8723840199773467 -7.247438633578802
0.02992074740245071 3.864138731756102 -7.294251634461411
0.030821287065686823 3.8560973105513163 -7.339907171036481
0.03169899614591133 3.8482597563629897 -7.384405243304015
0.0325538746431242 3.840626069191123 -7.427745851264013
0.03338592255732546 3.833196249035716 -7.469928994916473
[...]
CELL_DATA 200

VECTORS Vinf float
5.241110679096922 -39.57096742278521 -14.91208543736851
5.2269629646318645 -39.581069756935506 -14.959370613323019
5.210673329262608 -39.592863199888384 -15.014548028314003
5.192370174497814 -39.606342356019354 -15.077587230458551
5.172210688338779 -39.62150009159652 -15.148452778269206
5.150382745101328 -39.638327273219474 -15.227104403982631
5.127105649848492 -39.65681255800277 -15.313497428623721
5.1010644791565145 -39.67625037998123 -15.409799415980785
5.076706976850175 -39.698662021641034 -15.509421824275732
5.050947826774041 -39.72203632637179 -15.618667561337489
5.024755270237251 -39.747005275444785 -15.7354834934508
4.998479864957208 -39.773544063890554 -15.859818105132609
4.972485751229856 -39.801625560919334 -15.991621795374432
4.947140302530774 -39.83122088407759 -16.13084875989132
4.922803483307195 -39.86230006974244 -16.27745868272867
4.899702399631352 -39.894884964140054 -16.43128595100196
4.877857490705247 -39.92891638684631 -16.592537836523327
4.857542182879538 -39.96438969443702 -16.761123657838564
4.838864893980912 -40.00129049082741 -16.937048425920427
4.821889134708148 -40.03960724214665 -17.120324378716667
4.80663888382546 -40.07933121461612 -17.310969268427694
4.7931059144407575 -40.12045624169475 -17.509004491442663
4.78125806307918 -40.16297836731068 -17.714453276112767
4.771047497945077 -40.20689541792269 -17.927339100460273
4.762418277221123 -40.25220655111177 -18.147684442834215
4.755312810448415 -40.29891181562707 -18.375509893607735
4.749677150533187 -40.34701174229491 -18.61083359437052
4.745465274594373 -40.39650697171191 -18.853670934527027
4.742642622074074 -40.447397916192266 -19.104034425626274
4.741189151214138 -40.49968445073024 -19.361933685027278
4.741102075597565 -40.55336562984426 -19.627375483571868
4.73772009169719 -40.609378392827864 -19.899208639970563
4.740406006942002 -40.66581356847746 -20.179993333695204
4.744541085842006 -40.723649650529936 -20.46824676357943
4.750207614401931 -40.782881552197516 -20.76395850519814
4.75750456768522 -40.84350295533449 -21.067116814306818
4.7665375440146045 -40.90550687243219 -21.37770997448047
4.777400586221286 -40.96888676844273 -21.695728402538926
4.78995993795103 -41.03864664492671 -22.008286591071563
4.80543934361357 -41.103689582074026 -22.34434626614538
4.82274666588566 -41.17016291642497 -22.68772341997372
4.841475088980638 -41.23809406493918 -23.03845492323235
4.860960561066037 -41.30752785224829 -23.396597963506412
4.880273416678184 -41.378527603354314 -23.762227779667676
4.89828825252406 -41.45117190922548 -24.13542765235397
4.913858398676042 -41.52554535041321 -24.516269743686276
4.92607842474277 -41.60172342664899 -24.904790033856777
4.934553911329902 -41.67975531673017 -25.300966672031446
4.936198808567572 -41.75928685497607 -25.705081082185647
4.937656424831517 -41.840998637004965 -26.116793788114936
4.938886542117217 -42.08997680291717 -26.28307810160856
4.94029749878753 -42.50157587237807 -26.200892534401163
4.939423302108006 -42.90571662146619 -26.120368858078297
4.935137218076125 -43.30253511320837 -26.04150572504106
4.926972769885911 -43.692107687139604 -25.964273069231904
4.915238575002541 -44.0744305363461 -25.888621765663817
4.900847704450748 -44.44943059517962 -25.814497192059804
4.884989851802779 -44.816996517627345 -25.74185094427306
4.868812690262405 -45.1770122679471 -25.670647558158517
4.853218846621325 -45.52938076211393 -25.60086611326766
4.838797851988813 -45.87403395685688 -25.532498355296944
4.825855135811771 -46.210932320693615 -25.4655452807388
4.814485840828455 -46.54005876113347 -25.400013610488273
4.802146771520477 -46.86296292713107 -25.33378992282073
4.791177112989741 -47.17586632177155 -25.27318474896348
4.781578806655505 -47.48079007293617 -25.21457099712749
4.773267130512923 -47.777757984510124 -25.15791744406637
4.766172689784719 -48.06679256253641 -25.103192988894893
4.774683578855825 -48.35186224537804 -25.037207045097883
4.773591924011213 -48.62646146990095 -24.98240084979568
4.771438421507209 -48.89357777400285 -24.92878399312828
4.770234749972005 -49.1530227470847 -24.87653162769026
4.769976283597107 -49.404792804561765 -24.82566002654595
4.770679340444738 -49.64888230328556 -24.77618479430309
4.772376496440642 -49.88528398021064 -24.728121045197557
4.776851519587658 -50.11396127693046 -24.680924293229918
4.781243425415724 -50.334663108485984 -24.636267045372076
4.7872496215706 -50.547616705644735 -24.593026595937776
4.794916135871009 -50.75281375605712 -24.55121622433134
4.8042904299826485 -50.95024566546713 -24.510849410655762
4.81541136911207 -51.13990448610576 -24.471939868019398
4.828297579127915 -51.321784017587845 -24.434501508850033
4.842935401557841 -51.495880970404606 -24.398548338164474
4.859268041731889 -51.662196043418895 -24.364094275685424
4.877187584123638 -51.82073475562295 -24.33115291911106
4.901135627667764 -51.97060474176837 -24.30015865324567
4.923489651354857 -52.11336779060939 -24.270486665121535
4.947040117818009 -52.248367930360615 -24.242383515730523
4.971474094988245 -52.37563321758271 -24.21585388262047
4.996444650878968 -52.49519528230227 -24.19090134607967
5.021586620413871 -52.60708790153274 -24.167528271840293
5.046532558094872 -52.71134552157119 -24.145735776952634
5.070927330666538 -52.80800187526049 -24.125523774785865
5.094440191565999 -52.89708880731091 -24.106891087706742
5.116773652942398 -52.9786353784338 -24.089835611307592
5.137668938013057 -53.05266727613057 -24.074354512198575
5.156908188983053 -53.1192065230066 -24.060444441924314
5.174313887726178 -53.17827144608498 -24.048101751856347
5.189746110479456 -53.229876853819526 -24.037322697188078
5.20309829713706 -53.27403436040383 -24.02810362172659
5.241110679096922 -39.57096742278521 -14.91208543736851
5.2269629646318645 -39.581069756935506 -14.959370613323019
5.210673329262608 -39.592863199888384 -15.014548028314003
5.192370174497814 -39.606342356019354 -15.077587230458551
5.172210688338779 -39.62150009159652 -15.148452778269206
5.150382745101328 -39.638327273219474 -15.227104403982631
5.127105649848492 -39.65681255800277 -15.313497428623721
5.1010644791565145 -39.67625037998123 -15.409799415980785
5.076706976850175 -39.698662021641034 -15.509421824275732
5.050947826774041 -39.72203632637179 -15.618667561337489
5.024755270237251 -39.747005275444785 -15.7354834934508
4.998479864957208 -39.773544063890554 -15.859818105132609
4.972485751229856 -39.801625560919334 -15.991621795374432
4.947140302530774 -39.83122088407759 -16.13084875989132
4.922803483307195 -39.86230006974244 -16.27745868272867
4.899702399631352 -39.894884964140054 -16.43128595100196
4.877857490705247 -39.92891638684631 -16.592537836523327
4.857542182879538 -39.96438969443702 -16.761123657838564
4.838864893980912 -40.00129049082741 -16.937048425920427
4.821889134708148 -40.03960724214665 -17.120324378716667
4.80663888382546 -40.07933121461612 -17.310969268427694
4.7931059144407575 -40.12045624169475 -17.509004491442663
4.78125806307918 -40.16297836731068 -17.714453276112767
4.771047497945077 -40.20689541792269 -17.927339100460273
4.762418277221123 -40.25220655111177 -18.147684442834215
4.755312810448415 -40.29891181562707 -18.375509893607735
4.749677150533187 -40.34701174229491 -18.61083359437052
4.745465274594373 -40.39650697171191 -18.853670934527027
4.742642622074074 -40.447397916192266 -19.104034425626274
4.741189151214138 -40.49968445073024 -19.361933685027278
4.741102075597565 -40.55336562984426 -19.627375483571868
4.73772009169719 -40.609378392827864 -19.899208639970563
4.740406006942002 -40.66581356847746 -20.179993333695204
4.744541085842006 -40.723649650529936 -20.46824676357943
4.750207614401931 -40.782881552197516 -20.76395850519814
4.75750456768522 -40.84350295533449 -21.067116814306818
4.7665375440146045 -40.90550687243219 -21.37770997448047
4.777400586221286 -40.96888676844273 -21.695728402538926
4.78995993795103 -41.03864664492671 -22.008286591071563
4.80543934361357 -41.103689582074026 -22.34434626614538
4.82274666588566 -41.17016291642497 -22.68772341997372
4.841475088980638 -41.23809406493918 -23.03845492323235
4.860960561066037 -41.30752785224829 -23.396597963506412
4.880273416678184 -41.378527603354314 -23.762227779667676
4.89828825252406 -41.45117190922548 -24.13542765235397
4.913858398676042 -41.52554535041321 -24.516269743686276
4.92607842474277 -41.60172342664899 -24.904790033856777
4.934553911329902 -41.67975531673017 -25.300966672031446
4.936198808567572 -41.75928685497607 -25.705081082185647
4.937656424831517 -41.840998637004965 -26.116793788114936
4.938886542117217 -42.08997680291717 -26.28307810160856
4.94029749878753 -42.50157587237807 -26.200892534401163
4.939423302108006 -42.90571662146619 -26.120368858078297
4.935137218076125 -43.30253511320837 -26.04150572504106
4.926972769885911 -43.692107687139604 -25.964273069231904
4.915238575002541 -44.0744305363461 -25.888621765663817
4.900847704450748 -44.44943059517962 -25.814497192059804
4.884989851802779 -44.816996517627345 -25.74185094427306
4.868812690262405 -45.1770122679471 -25.670647558158517
4.853218846621325 -45.52938076211393 -25.60086611326766
4.838797851988813 -45.87403395685688 -25.532498355296944
4.825855135811771 -46.210932320693615 -25.4655452807388
4.814485840828455 -46.54005876113347 -25.400013610488273
4.802146771520477 -46.86296292713107 -25.33378992282073
4.791177112989741 -47.17586632177155 -25.27318474896348
4.781578806655505 -47.48079007293617 -25.21457099712749
4.773267130512923 -47.777757984510124 -25.15791744406637
4.766172689784719 -48.06679256253641 -25.103192988894893
4.774683578855825 -48.35186224537804 -25.037207045097883
4.773591924011213 -48.62646146990095 -24.98240084979568
4.771438421507209 -48.89357777400285 -24.92878399312828
4.770234749972005 -49.1530227470847 -24.87653162769026
4.769976283597107 -49.404792804561765 -24.82566002654595
4.770679340444738 -49.64888230328556 -24.77618479430309
4.772376496440642 -49.88528398021064 -24.728121045197557
4.776851519587658 -50.11396127693046 -24.680924293229918
4.781243425415724 -50.334663108485984 -24.636267045372076
4.7872496215706 -50.547616705644735 -24.593026595937776
4.794916135871009 -50.75281375605712 -24.55121622433134
4.8042904299826485 -50.95024566546713 -24.510849410655762
4.81541136911207 -51.13990448610576 -24.471939868019398
4.828297579127915 -51.321784017587845 -24.434501508850033
4.842935401557841 -51.495880970404606 -24.398548338164474
4.859268041731889 -51.662196043418895 -24.364094275685424
4.877187584123638 -51.82073475562295 -24.33115291911106
4.901135627667764 -51.97060474176837 -24.30015865324567
4.923489651354857 -52.11336779060939 -24.270486665121535
4.947040117818009 -52.248367930360615 -24.242383515730523
4.971474094988245 -52.37563321758271 -24.21585388262047
4.996444650878968 -52.49519528230227 -24.19090134607967
5.021586620413871 -52.60708790153274 -24.167528271840293
5.046532558094872 -52.71134552157119 -24.145735776952634
5.070927330666538 -52.80800187526049 -24.125523774785865
5.094440191565999 -52.89708880731091 -24.106891087706742
5.116773652942398 -52.9786353784338 -24.089835611307592
5.137668938013057 -53.05266727613057 -24.074354512198575
5.156908188983053 -53.1192065230066 -24.060444441924314
5.174313887726178 -53.17827144608498 -24.048101751856347
5.189746110479456 -53.229876853819526 -24.037322697188078
5.20309829713706 -53.27403436040383 -24.02810362172659

VECTORS L float
0.0587318776963966 0.0 0.0
0.10619733563309565 0.0 0.0
0.15768336907849886 0.0 0.0
0.21492208755772696 0.0 0.0
0.2784073233117965 0.0 0.0
0.3482981838212725 0.0 0.0
0.42461399232364594 0.0 0.0
0.5072915465104644 0.0 0.0
0.596223791333866 0.0 0.0
0.691233324776745 0.0 0.0
0.7921050601980567 0.0 0.0
0.8985802571010001 0.0 0.0
1.010360789721801 0.0 0.0
1.1271142585397276 0.0 0.0
1.2484791792237706 0.0 0.0
1.3740870798730656 0.0 0.0
1.5035372531797184 0.0 0.0
1.636493453456018 0.0 0.0
1.7725677303357372 0.0 0.0
1.9114065551408974 0.0 0.0
2.0526827614379988 0.0 0.0
2.195713497042497 0.0 0.0
2.340999784327 0.0 0.0
2.4879074208954504 0.0 0.0
2.636219502387811 0.0 0.0
2.7857546275068823 0.0 0.0
2.936310133466761 0.0 0.0
3.0877116379088405 0.0 0.0
3.2398003322219666 0.0 0.0
3.3924181688371906 0.0 0.0
3.5453997533963797 0.0 0.0
3.6984936315490917 0.0 0.0
3.8518508670889036 0.0 0.0
4.005077088869043 0.0 0.0
4.158558866251942 0.0 0.0
4.310863021929139 0.0 0.0
4.462149560701859 0.0 0.0
4.611939652700608 0.0 0.0
4.759628828373792 0.0 0.0
4.90447432746943 0.0 0.0
5.045464717918651 0.0 0.0
5.181373648188095 0.0 0.0
5.310748594102541 0.0 0.0
5.43198659016785 0.0 0.0
5.543230547695426 0.0 0.0
5.6430436177938175 0.0 0.0
5.730702162339082 0.0 0.0
5.807303905189892 0.0 0.0
5.878261277287122 0.0 0.0
5.9688226775688955 0.0 0.0
6.228129565482149 0.0 0.0
6.256891980108567 0.0 0.0
6.302296098414276 0.0 0.0
6.338996141044472 0.0 0.0
6.3605321449408185 0.0 0.0
6.364877556996273 0.0 0.0
6.351951316071629 0.0 0.0
6.322636372513188 0.0 0.0
6.278208448069853 0.0 0.0
6.220046258265883 0.0 0.0
6.149394301041665 0.0 0.0
6.067476157488804 0.0 0.0
5.975158018521775 0.0 0.0
5.873104486890109 0.0 0.0
5.762143677415689 0.0 0.0
5.6429933976765 0.0 0.0
5.516183909997397 0.0 0.0
5.382246306666716 0.0 0.0
5.242022518157081 0.0 0.0
5.094604564489474 0.0 0.0
4.940525519168653 0.0 0.0
4.780248811018965 0.0 0.0
4.61408454013394 0.0 0.0
4.442418104568332 0.0 0.0
4.265638088218242 0.0 0.0
4.084220810299398 0.0 0.0
3.8985162946202556 0.0 0.0
3.7090582224547686 0.0 0.0
3.516397270851857 0.0 0.0
3.3211488071160233 0.0 0.0
3.1239289404043085 0.0 0.0
2.925466445812901 0.0 0.0
2.7265432907661404 0.0 0.0
2.528002406618867 0.0 0.0
2.3307465281123267 0.0 0.0
2.135759235048412 0.0 0.0
1.9438882126610184 0.0 0.0
1.7561350949539372 0.0 0.0
1.5734659197331584 0.0 0.0
1.3968134278604853 0.0 0.0
1.2270615263684936 0.0 0.0
1.0650312948299776 0.0 0.0
0.9114693151950475 0.0 0.0
0.7670358192457369 0.0 0.0
0.6322919455886933 0.0 0.0
0.5076778832590388 0.0 0.0
0.3934675069617981 0.0 0.0
0.28965236763041613 0.0 0.0
0.19557049474939678 0.0 0.0
0.10819886473326329 0.0 0.0
0.0587318776963966 0.0 0.0
0.10619733563309565 0.0 0.0
0.15768336907849886 0.0 0.0
0.21492208755772696 0.0 0.0
0.2784073233117965 0.0 0.0
0.3482981838212725 0.0 0.0
0.42461399232364594 0.0 0.0
0.5072915465104644 0.0 0.0
0.596223791333866 0.0 0.0
0.691233324776745 0.0 0.0
0.7921050601980567 0.0 0.0
0.8985802571010001 0.0 0.0
1.010360789721801 0.0 0.0
1.1271142585397276 0.0 0.0
1.2484791792237706 0.0 0.0
1.3740870798730656 0.0 0.0
1.5035372531797184 0.0 0.0
1.636493453456018 0.0 0.0
1.7725677303357372 0.0 0.0
1.9114065551408974 0.0 0.0
2.0526827614379988 0.0 0.0
2.195713497042497 0.0 0.0
2.340999784327 0.0 0.0
2.4879074208954504 0.0 0.0
2.636219502387811 0.0 0.0
2.7857546275068823 0.0 0.0
2.936310133466761 0.0 0.0
3.0877116379088405 0.0 0.0
3.2398003322219666 0.0 0.0
3.3924181688371906 0.0 0.0
3.5453997533963797 0.0 0.0
3.6984936315490917 0.0 0.0
3.8518508670889036 0.0 0.0
4.005077088869043 0.0 0.0
4.158558866251942 0.0 0.0
4.310863021929139 0.0 0.0
4.462149560701859 0.0 0.0
4.611939652700608 0.0 0.0
4.759628828373792 0.0 0.0
4.90447432746943 0.0 0.0
5.045464717918651 0.0 0.0
5.181373648188095 0.0 0.0
5.310748594102541 0.0 0.0
5.43198659016785 0.0 0.0
5.543230547695426 0.0 0.0
5.6430436177938175 0.0 0.0
5.730702162339082 0.0 0.0
5.807303905189892 0.0 0.0
5.878261277287122 0.0 0.0
5.9688226775688955 0.0 0.0
6.228129565482149 0.0 0.0
6.256891980108567 0.0 0.0
6.302296098414276 0.0 0.0
6.338996141044472 0.0 0.0
6.3605321449408185 0.0 0.0
6.364877556996273 0.0 0.0
6.351951316071629 0.0 0.0
6.322636372513188 0.0 0.0
6.278208448069853 0.0 0.0
6.220046258265883 0.0 0.0
6.149394301041665 0.0 0.0
6.067476157488804 0.0 0.0
5.975158018521775 0.0 0.0
5.873104486890109 0.0 0.0
5.762143677415689 0.0 0.0
5.6429933976765 0.0 0.0
5.516183909997397 0.0 0.0
5.382246306666716 0.0 0.0
5.242022518157081 0.0 0.0
5.094604564489474 0.0 0.0
4.940525519168653 0.0 0.0
4.780248811018965 0.0 0.0
4.61408454013394 0.0 0.0
4.442418104568332 0.0 0.0
4.265638088218242 0.0 0.0
4.084220810299398 0.0 0.0
3.8985162946202556 0.0 0.0
3.7090582224547686 0.0 0.0
3.516397270851857 0.0 0.0
3.3211488071160233 0.0 0.0
3.1239289404043085 0.0 0.0
2.925466445812901 0.0 0.0
2.7265432907661404 0.0 0.0
2.528002406618867 0.0 0.0
2.3307465281123267 0.0 0.0
2.135759235048412 0.0 0.0
1.9438882126610184 0.0 0.0
1.7561350949539372 0.0 0.0
1.5734659197331584 0.0 0.0
1.3968134278604853 0.0 0.0
1.2270615263684936 0.0 0.0
1.0650312948299776 0.0 0.0
0.9114693151950475 0.0 0.0
0.7670358192457369 0.0 0.0
0.6322919455886933 0.0 0.0
0.5076778832590388 0.0 0.0
0.3934675069617981 0.0 0.0
0.28965236763041613 0.0 0.0
0.19557049474939678 0.0 0.0
0.10819886473326329 0.0 0.0

SCALARS Gamma float
LOOKUP_TABLE default
0.4248150236912016
0.6529562623893536
0.8396792850039377
1.007695337539186
1.164633905499624
1.3138453824038019
1.4569771864073924
1.5948536793695614
1.7278998968026962
1.856219279106217
1.9797838387951354
2.0984665586509252
2.212084722333368
2.320430815347412
2.4232942423597725
2.5205051699648906
2.611888148837745
2.6974183957240556
2.7770149145860805
2.850680023057555
2.9184719435190156
2.9804951892613905
3.0368926208183074
3.0878379287579154
3.133530367451158
3.174196820597088
3.210026396951328
3.241227654967264
3.2680119264596392
3.290578091322496
3.309106448275183
3.3236962531763146
3.3347848366328248
3.342320131835904
3.3464025672576705
3.3470769085676855
3.344337624601131
3.338120837655403
3.328297970385151
3.3146783081005746
3.2969372216275015
3.27467327496415
3.2474170943171763
3.214689118017235
3.1759470229479967
3.13096302859211
3.079919172534421
3.0238559746854694
2.96546941933435
2.9121217256524132
2.9062207548116774
2.947223759850132
2.992716316290191
3.0358979846582104
3.074177848606411
3.106603650417652
3.1330312011829866
3.153739203410372
3.1691850749400445
3.1798768477824817
3.1862597663933494
3.188774032267462
3.187680725636177
3.1831333356406972
3.175370019441548
3.164572250205472
3.150817271273745
3.1341776334832083
3.114903109240588
3.0922092839327213
3.066108111479008
3.036564193848405
3.003430685923509
2.9665848054249726
2.925883162449049
2.881217196709288
2.8323656993609005
2.7792049127002345
2.721598825781197
2.659434002358444
2.592571925849811
2.5209391007780453
2.4444887806698947
2.3632142202853537
2.27715757486207
2.1864437784040973
2.091074031199061
1.9912156812686561
1.8870304859639215
1.7786763261909924
1.6662872293189606
1.549946776982906
1.429652328861755
1.305260088124987
1.1763966740682994
1.0422953886942186
0.9014613332568685
0.7508806380986003
0.5837181560034217
0.3796660610661354
0.4248150236912016
0.6529562623893536
0.8396792850039377
1.007695337539186
1.164633905499624
1.3138453824038019
1.4569771864073924
1.5948536793695614
1.7278998968026962
1.856219279106217
1.9797838387951354
2.0984665586509252
2.212084722333368
2.320430815347412
2.4232942423597725
2.5205051699648906
2.611888148837745
2.6974183957240556
2.7770149145860805
2.850680023057555
2.9184719435190156
2.9804951892613905
3.0368926208183074
3.0878379287579154
3.133530367451158
3.174196820597088
3.210026396951328
3.241227654967264
3.2680119264596392
3.290578091322496
3.309106448275183
3.3236962531763146
3.3347848366328248
3.342320131835904
3.3464025672576705
3.3470769085676855
3.344337624601131
3.338120837655403
3.328297970385151
3.3146783081005746
3.2969372216275015
3.27467327496415
3.2474170943171763
3.214689118017235
3.1759470229479967
3.13096302859211
3.079919172534421
3.0238559746854694
2.96546941933435
2.9121217256524132
2.9062207548116774
2.947223759850132
2.992716316290191
3.0358979846582104
3.074177848606411
3.106603650417652
3.1330312011829866
3.153739203410372
3.1691850749400445
3.1798768477824817
3.1862597663933494
3.188774032267462
3.187680725636177
3.1831333356406972
3.175370019441548
3.164572250205472
3.150817271273745
3.1341776334832083
3.114903109240588
3.0922092839327213
3.066108111479008
3.036564193848405
3.003430685923509
2.9665848054249726
2.925883162449049
2.881217196709288