# vtk DataFile Version 4.0
[MyVLM domain - lattices] 
ASCII
DATASET UNSTRUCTURED_GRID
POINTS 302 float
0.034182456231286545 2.1462058464316094 5.776159333627742
0.03405815639044551 2.142536662087993 5.7814015768010485
0.033911025966592845 2.1381935459261614 5.787606680965371
0.033741064959728555 2.1331764979461143 5.794774646120708
0.03354827336985265 2.1274855181478527 5.802905472267061
0.03333265119696513 2.1211206065313752 5.811999159404429
0.033094198441065995 2.114081763096683 5.822055707532813
0.032832915102155226 2.106368987843775 5.833075116652212
0.03254880118023285 2.0979822807726523 5.845057386762628
0.03224185667529885 2.088921641883314 5.858002517864058
0.031912081587353223 2.0791870711757605 5.871910509956503
0.03155947591639598 2.068778568649992 5.886781363039965
0.031184039662427124 2.057696134306008 5.902615077114442
0.030785772825446645 2.045939768143809 5.919411652179933
0.030364675405454542 2.033509470163395 5.9371710882364415
0.029920747402450824 2.0204052403647648 5.955893385283964
0.029453988816435475 2.00662707874792 5.975578543322503
0.028964399647408514 1.9921749853128596 5.996226562352057
0.02845197989536993 1.9770489600595846 6.0178374423726275
0.027916729560319733 1.9612490029880942 6.040411183384212
0.027358648642257913 1.944775114098388 6.063947785386812
0.026777737141184466 1.9276272933904675 6.088447248380429
0.02617399505709941 1.909805540864331 6.11390957236506
0.025547422390002728 1.8913098565199797 6.140334757340707
0.02489801913989443 1.8721402403574128 6.167722803307369
0.024225785306774508 1.8522966923766309 6.196073710265047
0.023530720890642967 1.831779212577634 6.22538747821374
0.022812825891499806 1.810587800960421 6.255664107153449
0.022072100309345026 1.7887224575249931 6.286903597084174
0.021308544144178626 1.7661831822713507 6.319105948005913
0.020522157396000603 1.7429699751994923 6.3522711599186685
0.01971294006481096 1.7190828363094188 6.3863992328224395
0.0188808921506097 1.6945217656011304 6.421490166717226
0.01802601365339682 1.6692867630746266 6.457543961603028
0.017148304573172322 1.6433778287299075 6.494560617479844
0.016247764909936197 1.6167949625669729 6.532540134347678
0.015324394663688455 1.5895381645858233 6.571482512206526
0.014378193834429096 1.5616074347864586 6.611387751056389
0.01340916242215812 1.5330027731688785 6.6522558508972685
0.012417300426875522 1.5037241797330834 6.6940868117291625
0.011402607848581303 1.4737716544790729 6.7368806335520715
0.01036508468727546 1.443145197406847 6.780637316365999
0.009304730942958002 1.4118448085164061 6.825356860170939
0.008221546615628916 1.3798704878077497 6.871039264966896
0.007115531705288217 1.3472222352808783 6.917684530753868
0.005986686211935896 1.3139000509357914 6.9652926575318554
0.0048350101355719545 1.2799039347724894 7.013863645300859
0.003660503476196394 1.2452338867909722 7.063397494060876
0.0024631662338092195 1.2098899069912399 7.1138942038119115
0.0012429984084104196 1.1738719953732923 7.165353774553961
0.0 1.1371801519371294 7.2177762062870245
0.001242998408410414 1.1895887340719464 7.254487828999319
0.0024631662338092082 1.241034709596124 7.290525156600571
0.0036605034761963825 1.2915180785096623 7.325888189090783
0.004835010135571937 1.3410388408125609 7.360576926469951
0.005986686211935871 1.3895969965048198 7.394591368738077
0.007115531705288185 1.4371925455864394 7.42793151589516
0.008221546615628881 1.4838254880574195 7.460597367941202
0.009304730942957954 1.52949582391776 7.492588924876201
0.010365084687275409 1.5742035531674612 7.5239061867001595
0.011402607848581246 1.617948675806523 7.554549153413075
0.012417300426875461 1.6607311918349452 7.584517825014949
0.013409162422158054 1.7025511012527275 7.613812201505778
0.014378193834429029 1.7434084040598703 7.642432282885568
0.015324394663688387 1.7833031002563744 7.670378069154314
0.01624776490993612 1.8222351898422384 7.697649560312019
0.017148304573172235 1.860204672817463 7.724246756358681
0.018026013653396736 1.8972115491820485 7.750169657294302
0.018880892150609615 1.9332558189359939 7.77541826311888
0.019712940064810874 1.9683374820793003 7.799992573832417
0.02052215739600051 2.0024565386119666 7.8238925894349105
0.021308544144178522 2.0356129885339938 7.847118309926362
0.022072100309344922 2.0678068318453815 7.869669735306771
0.022812825891499692 2.0990380685461294 7.891546865576139
0.023530720890642853 2.1293066986362383 7.912749700734464
0.024225785306774387 2.1586127221157074 7.933278240781747
0.024898019139894312 2.186956138984537 7.953132485717988
0.02554742239000261 2.2143369492427274 7.972312435543187
0.026173995057099286 2.2407551528902774 7.990818090257345
0.02677773714118434 2.266210749927189 8.008649449860458
0.02735864864225778 2.2907037403534605 8.025806514352531
0.0279167295603196 2.3142341241690927 8.042289283733561
0.0284519798953698 2.336801901374085 8.058097758003548
0.028964399647408372 2.358407071968438 8.073231937162495
0.02945398881643533 2.379049635952152 8.087691821210399
0.02992074740245068 2.3987295933252266 8.101477410147261
0.030364675405454393 2.4174469440876614 8.11458870397308
0.030785772825446492 2.435201688239456 8.127025702687858
0.031184039662426975 2.4519938257806118 8.138788406291592
0.03155947591639583 2.467823356711128 8.149876814784285
0.03191208158735308 2.4826902810310045 8.160290928165937
0.0322418566752987 2.496594598740242 8.170030746436545
0.0325488011802327 2.5095363098388397 8.179096269596112
0.03283291510215507 2.5215154143267977 8.187487497644636
0.03309419844106584 2.5325319122041163 8.19520443058212
0.03333265119696497 2.5425858034707955 8.202247068408559
0.03354827336985249 2.5516770881268354 8.208615411123956
0.0337410649597284 2.5598057661722358 8.214309458728312
0.03391102596659267 2.5669718376069963 8.219329211221627
0.03405815639044534 2.5731753024311175 8.223674668603898
0.03418245623128638 2.578416160644599 8.227345830875128
0.04785543872380114 2.6362581870719994 5.689749884013507
0.04773113888296009 2.632589002728383 5.694992127186813
0.04758400845910744 2.6282458865665514 5.701197231351135
0.04741404745224314 2.6232288385865044 5.708365196506472
0.047221255862367244 2.6175378587882427 5.716496022652825
0.04700563368947972 2.6111729471717653 5.725589709790194
0.04676718093358058 2.6041341037370733 5.735646257918578
0.04650589759466982 2.596421328484165 5.746665667037977
0.04622178367274744 2.5880346214130423 5.758647937148392
0.045914839167813436 2.578973982523704 5.771593068249822
0.045585064079867815 2.5692394118161506 5.785501060342268
0.045232458408910575 2.558830909290382 5.800371913425729
0.044857022154941716 2.547748474946398 5.816205627500206
0.04445875531796123 2.5359921087841992 5.833002202565698
0.04403765789796913 2.523561810803785 5.850761638622205
0.043593729894965405 2.510457581005155 5.869483935669729
0.04312697130895007 2.49667941938831 5.889169093708267
0.0426373821399231 2.48222732595325 5.909817112737821
0.042124962387884525 2.4671013006999747 5.931427992758391
0.04158971205283433 2.4513013436284843 5.954001733769976
0.0410316311347725 2.4348274547387785 5.977538335772577
0.040450719633699055 2.4176796340308573 6.002037798766192
0.039846977549614 2.399857881504721 6.0275001227508245
0.03922040488251732 2.3813621971603696 6.053925307726471
0.038571001632409015 2.362192580997803 6.081313353693133
0.03789876779928909 2.3423490330170207 6.109664260650812
0.03720370338315756 2.321831553218024 6.138978028599505
0.0364858083840144 2.300640141600811 6.169254657539214
0.03574508280185962 2.278774798165384 6.2004941474699375
0.03498152663669321 2.256235522911741 6.232696498391678
0.03419513988851519 2.2330223158398823 6.265861710304433
0.03338592255732555 2.2091351769498093 6.299989783208204
0.032553874643124286 2.1845741062415205 6.33508071710299
0.031698996145911415 2.1593391037150167 6.371134511988791
0.03082128706568691 2.133430169370297 6.408151167865609
0.02992074740245079 2.106847303207363 6.446130684733442
0.02899737715620305 2.0795905052262134 6.48507306259229
0.028051176326943685 2.0516597754268484 6.524978301442155
0.027082144914672708 2.0230551138092685 6.565846401283032
0.026090282919390112 1.9937765203734736 6.607677362114928
0.02507559034109589 1.963823995119463 6.650471183937837
0.02403806717979005 1.9331975380472368 6.6942278667517625
0.02297771343547259 1.9018971491567962 6.738947410556705
0.021894529108143507 1.8699228284481397 6.78462981535266
0.020788514197802806 1.8372745759212683 6.831275081139633
0.019659668704450486 1.8039523915761817 6.878883207917619
0.018507992628086542 1.7699562754128793 6.9274541956866225
0.017333485968710982 1.7352862274313618 6.976988044446641
0.01613614872632381 1.69994224763163 7.027484754197674
0.014915980900925009 1.6639243360136826 7.078944324939724
0.013672982492514588 1.6272324925775195 7.131366756672789
0.014915980900925004 1.6796410747123365 7.168078379385085
0.016136148726323796 1.731087050236514 7.204115706986336
0.01733348596871097 1.7815704191500523 7.239478739476546
0.018507992628086528 1.8310911814529511 7.274167476855713
0.019659668704450458 1.8796493371452103 7.30818191912384
0.02078851419780277 1.9272448862268294 7.341522066280925
0.02189452910814347 1.9738778286978096 7.374187918326967
0.022977713435472544 2.01954816455815 7.406179475261966
0.02403806717979 2.064255893807851 7.437496737085923
0.025075590341095834 2.108001016446913 7.468139703798839
0.02609028291939005 2.150783532475335 7.498108375400712
0.027082144914672642 2.1926034418931177 7.527402751891544
0.028051176326943615 2.2334607447002606 7.5560228332713315
0.02899737715620298 2.2733554408967644 7.583968619540078
0.02992074740245071 2.3122875304826285 7.611240110697783
0.030821287065686823 2.3502570134578527 7.637837306744445
0.03169899614591133 2.3872638898224383 7.663760207680067
0.03255387464312421 2.423308159576384 7.689008813504644
0.033385922557325455 2.45838982271969 7.7135831242181805
0.034195139888515094 2.492508879252357 7.737483139820674
0.034981526636693114 2.525665329174384 7.760708860312127
0.03574508280185951 2.557859172485771 7.783260285692536
0.03648580838401428 2.589090409186519 7.805137415961902
0.03720370338315745 2.6193590392766284 7.826340251120228
0.03789876779928898 2.6486650627560975 7.846868791167512
0.038571001632408904 2.677008479624927 7.8667230361037515
0.0392204048825172 2.7043892898831174 7.885902985928951
0.039846977549613874 2.730807493530668 7.904408640643107
0.04045071963369893 2.756263090567579 7.922240000246222
0.04103163113477237 2.7807560809938505 7.939397064738295
0.04158971205283419 2.8042864648094827 7.955879834119325
0.042124962387884386 2.8268542420144755 7.971688308389313
0.042637382139922964 2.8484594126088285 7.986822487548259
0.04312697130894992 2.869101976592542 8.001282371596163
0.043593729894965266 2.8887819339656167 8.015067960533024
0.04403765789796899 2.9074992847280514 8.028179254358845
0.044458755317961084 2.925254028879846 8.04061625307362
0.04485702215494156 2.942046166421002 8.052378956677357
0.04523245840891042 2.957875697351518 8.06346736517005
0.04558506407986767 2.972742621671395 8.073881478551701
0.04591483916781328 2.986646939380632 8.08362129682231
0.046221783672747284 2.9995886504792297 8.092686819981877
0.046505897594669665 3.0115677549671878 8.1010780480304
0.04676718093358043 3.0225842528445064 8.108794980967883
0.04700563368947956 3.0326381441111856 8.115837618794323
0.047221255862367084 3.0417294287672254 8.12220596150972
0.04741404745224299 3.049858106812626 8.127900009114077
0.04758400845910726 3.0570241782473864 8.13291976160739
0.04773113888295993 3.0632276430715075 8.137265218989663
0.04785543872380097 3.0684685012849893 8.140936381260891
0.04437504318025197 2.5119105097400936 5.713973368003719
0.04423932804790512 2.5079043594873696 5.719697041672533
0.04408078233254665 2.5032242774164306 5.7263835763323625
0.04389940603417655 2.4978702635272763 5.734032971983208
0.043695199152794836 2.4918423178199065 5.742645228625069
0.04346816168840151 2.485140440294322 5.752220346257944
0.04321829364099655 2.4777646309505217 5.762758324881837
0.042945595010579984 2.4697148897885066 5.774259164496743
0.04265006579715179 2.4609912168082757 5.786722865102666
0.04233170600071198 2.4515936120098303 5.800149426699604
0.04199051562126055 2.441522075393169 5.814538849287557
0.0416264946587975 2.430776606958293 5.829891132866527
0.04123964311332283 2.419357206705201 5.846206277436511
0.04082996098483653 2.4072638746338946 5.8634842829975105
0.040397448273338625 2.3944966107443726 5.881725149549526
0.03994210497882909 2.381055415036635 5.900928877092557
0.039463931101307935 2.3669402875106824 5.921095465626603
0.038962926640775164 2.352151228166515 5.942224915151665
0.03843909159723078 2.336688237004132 5.964317225667743
0.03789242597067476 2.320551314023534 5.987372397174835
0.037322929761107126 2.3037404592247204 6.011390429672944
0.036730602968527884 2.286255672607692 6.036371323162067
0.036115445592937015 2.268096954172448 6.062315077642206
0.035477457634334526 2.249264303918989 6.089221693113362
0.03481663909272041 2.2297577218473146 6.117091169575532
0.034132989968094676 2.209577207957425 6.1459235070287175
0.033426510260457336 2.18872276224932 6.175718705472918
0.03269719996980836 2.167194384723 6.2064767649081345
0.03194505909614777 2.1449920753784646 6.238197685334367
0.03117008763947555 2.1221158342157143 6.270881466751614
0.030372285599791726 2.098565661234748 6.304528109159877
0.029551652977096273 2.0743415564355674 6.339137612559155
0.028708189771389205 2.049443519818171 6.3747099769494495
0.027841895982670516 2.02387155138256 6.411245202330759
0.026952771610940205 1.9976256511287327 6.448743288703085
0.026040816656198274 1.9707058190566908 6.487204236066424
0.025106031118444724 1.9431120551664338 6.5266280444207805
0.024148414997679554 1.9148443594579614 6.567014713766151
0.023167968293902764 1.8859027319312736 6.608364244102539
0.022164691007114354 1.856287172586371 6.6506766354299405
0.021138583137314322 1.8259976814232528 6.693951887748359
0.020089644684502677 1.795034258441919 6.7381900010577915
0.019017875648679405 1.7633969036423705 6.783390975358241
0.01792327602984451 1.7310856170246067 6.8295548106497055
0.016805845827997996 1.6981003985886274 6.876681506932185
0.015665585043139876 1.664441248334433 6.924771064205679
0.014502493675270123 1.6301081662620236 6.9738234824701895
0.01331657172438875 1.5951011523713987 7.023838761725716
0.012107819190495762 1.5594202066625587 7.074816901972258
0.010876236073591151 1.5230653291355034 7.126757903209815
0.010876236073591148 1.5309236984848305 7.171324930432495
0.012107819190495752 1.5828509773143278 7.207699405589269
0.013316571724388736 1.633815649533186 7.243399585635
0.0145024936752701 1.683817715141404 7.278425470569689
0.01566558504313985 1.7328571741389829 7.312777060393335
0.01680584582799797 1.780934026525922 7.346454355105942
0.017923276029844476 1.828048272302222 7.379457354707505
0.019017875648679364 1.8741999114678825 7.411786059198025
0.02008964468450262 1.9193889440229035 7.443440468577504
0.021138583137314274 1.9636153699672847 7.47442058284594
0.0221646910071143 2.006879189301027 7.504726402003334
0.0231679682939027 2.049180402024129 7.534357926049687
0.024148414997679488 2.0905190081365914 7.563315154984997
0.02510603111844465 2.130895007638415 7.591598088809264
0.026040816656198198 2.170308400529599 7.6192067275224895
0.026952771610940125 2.208759186810143 7.6461410711246725
0.02784189598267043 2.2462473664800484 7.672401119615814
0.028708189771389114 2.2827729395393135 7.697986872995914
0.029551652977096183 2.318335905987939 7.722898331264972
0.03037228559979163 2.352936265825926 7.747135494422985
0.031170087639475458 2.3865740190532727 7.77069836246996
0.03194505909614767 2.41924916566998 7.793586935405888
0.032697199969808244 2.4509617056760478 7.815801213230777
0.03342651026045722 2.4817116390714764 7.8373411959446235
0.034132989968094565 2.511498965856265 7.858206883547428
0.03481663909272029 2.5403236860304146 7.87839827603919
0.0354774576343344 2.5681857995939246 7.89791537341991
0.03611544559293689 2.595085306546795 7.916758175689589
0.036730602968527766 2.621022206889026 7.934926682848224
0.03732292976110701 2.645996500620617 7.952420894895818
0.03789242597067464 2.670008187741569 7.969240811832369
0.03843909159723065 2.6930572682518816 7.985386433657877
0.038962926640775025 2.7151437421515547 8.000857760372345
0.039463931101307796 2.7362676094405876 8.01565479197577
0.03994210497882895 2.756428870118982 8.029777528468152
0.04039744827333848 2.775627524186736 8.043225969849493
0.04082996098483639 2.7938635716438514 8.056000116119792
0.04123964311332268 2.8111370124903265 8.068099967279048
0.04162649465879735 2.827447846726163 8.079525523327263
0.0419905156212604 2.842796074351359 8.090276784264434
0.04233170600071183 2.857181695365916 8.100353750090564
0.04265006579715163 2.8706047097698333 8.109756420805653
0.042945595010579825 2.8830651175631115 8.118484796409698
0.04321829364099639 2.8945629187457493 8.1265388769027
0.04346816168840135 2.9050981133177487 8.133918662284662
0.043695199152794684 2.914670701279108 8.140624152555581
0.04389940603417639 2.9232806826298283 8.146655347715457
0.04408078233254648 2.9309280573699086 8.152012247764294
0.04423932804790495 2.9376128254993494 8.156694852702085
0.0443750431802518 2.943334987018151 8.160703162528836

CELLS 200 700
4 0 101 102 1
4 1 102 103 2
4 2 103 104 3
4 3 104 105 4
4 4 105 106 5
4 5 106 107 6
4 6 107 108 7
4 7 108 109 8
4 8 109 110 9
4 9 110 111 10
4 10 111 112 11
4 11 112 113 12
4 12 113 114 13
4 13 114 115 14
4 14 115 116 15
4 15 116 117 16
4 16 117 118 17
4 17 118 119 18
4 18 119 120 19
4 19 120 121 20
4 20 121 122 21
4 21 122 123 22
4 22 123 124 23
4 23 124 125 24
4 24 125 126 25
4 25 126 127 26
4 26 127 128 27
4 27 128 129 28
4 28 129 130 29
4 29 130 131 30
4 30 131 132 31
4 31 132 133 32
4 32 133 134 33
4 33 134 135 34
4 34 135 136 35
4 35 136 137 36
4 36 137 138 37
4 37 138 139 38
4 38 139 140 39
4 39 140 141 40
4 40 141 142 41
4 41 142 143 42
4 42 143 144 43
4 43 144 145 44
4 44 145 146 45
4 45 146 147 46
4 46 147 148 47
4 47 148 149 48
4 48 149 150 49
4 49 150 151 50
4 50 151 152 51
4 51 152 153 52
4 52 153 154 53
4 53 154 155 54
4 54 155 156 55
4 55 156 157 56
4 56 157 158 57
4 57 158 159 58
4 58 159 160 59
4 59 160 161 60
4 60 161 162 61
4 61 162 163 62
4 62 163 164 63
4 63 164 165 64
4 64 165 166 65
4 65 166 167 66
4 66 167 168 67
4 67 168 169 68
4 68 169 170 69
4 69 170 171 70
4 70 171 172 71
4 71 172 173 72
4 72 173 174 73
4 73 174 175 74
4 74 175 176 75
4 75 176 177 76
4 76 177 178 77
4 77 178 179 78
4 78 179 180 79
4 79 180 181 80
4 80 181 182 81
4 81 182 183 82
4 82 183 184 83
4 83 184 185 84
4 84 185 186 85
4 85 186 187 86
4 86 187 188 87
4 87 188 189 88
4 88 189 190 89
4 89 190 191 90
4 90 191 192 91
4 91 192 193 92
4 92 193 194 93
4 93 194 195 94
4 94 195 196 95
4 95 196 197 96
4 96 197 198 97
4 97 198 199 98
4 98 199 200 99
4 99 200 201 100
1 202
1 203
1 204
1 205
1 206
1 207
1 208
1 209
1 210
1 211
1 212
1 213
1 214
1 215
1 216
1 217
1 218
1 219
1 220
1 221
1 222
1 223
1 224
1 225
1 226
1 227
1 228
1 229
1 230
1 231
1 232
1 233
1 234
1 235
1 236
1 237
1 238
1 239
1 240
1 241
1 242
1 243
1 244
1 245
1 246
1 247
1 248
1 249
1 250
1 251
1 252
1 253
1 254
1 255
1 256
1 257
1 258
1 259
1 260
1 261
1 262
1 263
1 264
1 265
1 266
1 267
1 268
1 269
1 270
1 271
1 272
1 273
1 274
1 275
1 276
1 277
1 278
1 279
1 280
1 281
1 282
1 283
1 284
1 285
1 286
1 287
1 288
1 289
1 290
1 291
1 292
1 293
1 294
1 295
1 296
1 297
1 298
1 299
1 300
1 301

CELL_TYPES 200
9
9
9
9
9
9
9
9
9
9
9
9
9
9
9
9
9
9
9
9
9
9
9
9
9
9
9
9
9
9
9
9
9
9
9
9
9
9
9
9
9
9
9
9
9
9
9
9
9
9
9
9
9
9
9
9
9
9
9
9
9
9
9
9
9
9
9
9
9
9
9
9
9
9
9
9
9
9
9
9
9
9
9
9
9
9
9
9
9
9
9
9
9
9
9
9
9
9
9
9
1
1
1
1
1
1
1
1
1
1
1
1
1
1
1
1
1
1
1
1
1
1
1
1
1
1
1
1
1
1
1
1
1
1
1
1
1
1
1
1
1
1
1
1
1
1
1
1
1
1
1
1
1
1
1
1
1
1
1
1
1
1
1
1
1
1
1
1
1
1
1
1
1
1
1
1
1
1
1
1
1
1
1
1
1
1
1
1
1
1
1
1
1
1
1
1
1
1
1
1

CELL_DATA 200

VECTORS Vinf float
5.22523773642936 38.51817564196585 -17.44453493372219
5.211155285349377 38.55876704777768 -17.41826619250775
5.194940645044702 38.60613679829295 -17.387616876494313
5.176721581992627 38.660259461124824 -17.3526048282035
5.156654529647776 38.72110483428895 -17.313250185712977
5.137698211654749 38.786805948449796 -17.27345762755717
5.114568281322285 38.86153176033474 -17.22429243229447
5.090101728759981 38.942845776039476 -17.170912011227493
5.064569580273782 39.03067740875882 -17.113387631586942
5.0382782158925 39.124949484222256 -17.051794669130096
5.011564535763249 39.225579307623455 -16.986211669070926
4.983827497991914 39.3318038324094 -16.91813836624892
4.957986291635683 39.444868462552385 -16.84487465611745
4.932789591233451 39.5642458972792 -16.76745621698425
4.908516784852367 39.689898087106535 -16.685889002226286
4.868636655605628 39.81271255366949 -16.62636420620224
4.8519461968110305 39.95366680428711 -16.528540692746024
4.835553672589969 40.10064347979567 -16.427291504181508
4.819755631956619 40.253528433263675 -16.322785404142714
4.804842441920364 40.4122068870191 -16.215194134419807
4.791086421449598 40.576565065454176 -16.104692026580935
4.77873236680675 40.74649133819059 -15.991456045388704
4.766997022457274 40.9021033718195 -15.921270425710414
4.7582841167305245 41.08648018815507 -15.795259618301376
4.750285835270037 41.277052794107945 -15.665367549891386
4.743193644082552 41.47377322479891 -15.531650513552629
4.737180504490602 41.6765959112175 -15.394163973260161
4.7324009318469535 41.88547728607609 -15.252963219147784
4.728994217382 42.10037497108259 -15.108104114067485
4.727090151682166 42.321246697084405 -14.9596437975864
4.726816296008101 42.54804913528412 -14.807641233892982
4.728305687512748 42.780736819348554 -14.652157527051129
4.727330763461043 43.017526597489024 -14.50044523876916
4.7346666343225055 43.263170285159724 -14.334635319636309
4.743431145657535 43.51489673418113 -14.16494700053597
4.74980158355938 43.77110970597902 -13.994644433868533
4.758996176914239 44.03457287059131 -13.81896501291234
4.770031138556491 44.304298654724434 -13.63890513533755
4.782951402627302 44.58028828833604 -13.45445080228633
4.7977173384653735 44.86255583664739 -13.265585221294277
4.814448798361119 45.1500873245439 -13.074203631890759
4.832188497135048 45.44549058669963 -12.875595925554961
4.850749131257433 45.747194487887775 -12.672789627347553
4.86920277986209 46.05530543132272 -12.465776921759947
4.8864268785188 46.369944454939215 -12.254557865811664
4.901277962912443 46.691226516555155 -12.039146201517736
4.910608790394998 47.01985737533514 -11.8184863846047
4.917949066995453 47.35510899723157 -11.5938469828304
4.921857739250373 47.697229254328896 -11.364820511158573
4.923189170195122 48.046110738802604 -11.131464550232065
4.924415829619914 48.33981296360871 -11.189869988560044
4.925930304064403 48.57287920257787 -11.538903634877066
4.925162423649006 48.801826817835256 -11.881493378738616
4.9233970050129265 49.02595753284146 -12.21919775556927
4.915122488244947 49.246573893478434 -12.549874614067507
4.902473831531007 49.463455951306884 -12.873670697708715
4.8873706057935635 49.67636877800536 -13.190832176084676
4.871065067061525 49.885188609624485 -13.501330605174257
4.854760765079427 50.08979820848692 -13.805124795063477
4.839404565540797 50.290104949300044 -14.10217646831217
4.828407048384499 50.48394698947737 -14.398166085778747
4.814474715593142 50.67500297688179 -14.683407662046207
4.802137298677916 50.86178374617016 -14.961649042436758
4.791960346751308 51.044865233780016 -15.231682053993314
4.783659876401142 51.22236125338651 -15.497566776945026
4.776643934084919 51.3954030099112 -15.756944753926387
4.770791939047239 51.56400375049214 -16.00981865287084
4.766331329113517 51.72613739272538 -16.25980600323981
4.762161929646622 51.886266074593095 -16.498949135933948
4.759157208351398 52.04211204423707 -16.73123175223973
4.757234706291547 52.19367237787494 -16.956685937488224
4.756341857350727 52.340941815796626 -17.175341310882008
4.756452137604367 52.483913226307806 -17.387225100756
4.757561398130758 52.62257802973105 -17.592362267435238
4.759684702400276 52.756926547189586 -17.790775623488212
4.762853454451515 52.886948289527005 -17.98248594398821
4.768313990327481 53.007007104170825 -18.180757827532762
4.774574590873773 53.126993473011694 -18.361967531649825
4.782406964065047 53.242541353212026 -18.536616989533442
4.791931228344444 53.35364536100478 -18.70469415295801
4.803254110529236 53.460301280326306 -18.866187117955945
4.816456435526374 53.56250688294809 -19.021084956970007
4.8315798814994375 53.66026276866807 -19.16937867658705
4.848614684535513 53.753573111749986 -19.31106219342707
4.869183018605096 53.83972332107477 -19.45220592076707
4.888422599801382 53.92487465995298 -19.579078762977673
4.910149498133165 54.00693524248825 -19.696450778219273
4.933467537444127 54.082588521006414 -19.81171560228257
4.957710658754642 54.15387785683106 -19.920403915920726
4.982530546092525 54.22082849574829 -20.022534843683907
5.007559444209497 54.283466425134336 -20.118130042643973
5.032426414866022 54.341817279424596 -20.207212665207667
5.0567722091199885 54.39590537043935 -20.289806331950683
5.080072019907541 54.44447812960808 -20.368843982443458
5.102517613568304 54.490002730609504 -20.438749320009016
5.123558670557429 54.531332675987024 -20.502202477553798
5.142964558642714 54.568481548164776 -20.55922384328205
5.1605463710646315 54.60146006522174 -20.609831155647434
5.176154137650248 54.63027635095352 -20.654039486216806
5.189672561160604 54.654936295240766 -20.691861339434254
5.22523773642936 38.51817564196585 -17.44453493372219
5.211155285349377 38.55876704777768 -17.41826619250775
5.194940645044702 38.60613679829295 -17.387616876494313
5.176721581992627 38.660259461124824 -17.3526048282035
5.156654529647776 38.72110483428895 -17.313250185712977
5.137698211654749 38.786805948449796 -17.27345762755717
5.114568281322285 38.86153176033474 -17.22429243229447
5.090101728759981 38.942845776039476 -17.170912011227493
5.064569580273782 39.03067740875882 -17.113387631586942
5.0382782158925 39.124949484222256 -17.051794669130096
5.011564535763249 39.225579307623455 -16.986211669070926
4.983827497991914 39.3318038324094 -16.91813836624892
4.957986291635683 39.444868462552385 -16.84487465611745
4.932789591233451 39.5642458972792 -16.76745621698425
4.908516784852367 39.689898087106535 -16.685889002226286
4.868636655605628 39.81271255366949 -16.62636420620224
4.8519461968110305 39.95366680428711 -16.528540692746024
4.835553672589969 40.10064347979567 -16.427291504181508
4.819755631956619 40.253528433263675 -16.322785404142714
4.804842441920364 40.4122068870191 -16.215194134419807
4.791086421449598 40.576565065454176 -16.104692026580935
4.77873236680675 40.74649133819059 -15.991456045388704
4.766997022457274 40.9021033718195 -15.921270425710414
4.7582841167305245 41.08648018815507 -15.795259618301376
4.750285835270037 41.277052794107945 -15.665367549891386
4.743193644082552 41.47377322479891 -15.531650513552629
4.737180504490602 41.6765959112175 -15.394163973260161
4.7324009318469535 41.88547728607609 -15.252963219147784
4.728994217382 42.10037497108259 -15.108104114067485
4.727090151682166 42.321246697084405 -14.9596437975864
4.726816296008101 42.54804913528412 -14.807641233892982
4.728305687512748 42.780736819348554 -14.652157527051129
4.727330763461043 43.017526597489024 -14.50044523876916
4.7346666343225055 43.263170285159724 -14.334635319636309
4.743431145657535 43.51489673418113 -14.16494700053597
4.74980158355938 43.77110970597902 -13.994644433868533
4.758996176914239 44.03457287059131 -13.81896501291234
4.770031138556491 44.304298654724434 -13.63890513533755
4.782951402627302 44.58028828833604 -13.45445080228633
4.7977173384653735 44.86255583664739 -13.265585221294277
4.814448798361119 45.1500873245439 -13.074203631890759
4.832188497135048 45.44549058669963 -12.875595925554961
4.850749131257433 45.747194487887775 -12.672789627347553
4.86920277986209 46.05530543132272 -12.465776921759947
4.8864268785188 46.369944454939215 -12.254557865811664
4.901277962912443 46.691226516555155 -12.039146201517736
4.910608790394998 47.01985737533514 -11.8184863846047
4.917949066995453 47.35510899723157 -11.5938469828304
4.921857739250373 47.697229254328896 -11.364820511158573
4.923189170195122 48.046110738802604 -11.131464550232065
4.924415829619914 48.33981296360871 -11.189869988560044
4.925930304064403 48.57287920257787 -11.538903634877066
4.925162423649006 48.801826817835256 -11.881493378738616
4.9233970050129265 49.02595753284146 -12.21919775556927
4.915122488244947 49.246573893478434 -12.549874614067507
4.902473831531007 49.463455951306884 -12.873670697708715
4.8873706057935635 49.67636877800536 -13.190832176084676
4.871065067061525 49.885188609624485 -13.501330605174257
4.854760765079427 50.08979820848692 -13.805124795063477
4.839404565540797 50.290104949300044 -14.10217646831217
4.828407048384499 50.48394698947737 -14.398166085778747
4.814474715593142 50.67500297688179 -14.683407662046207
4.802137298677916 50.86178374617016 -14.961649042436758
4.791960346751308 51.044865233780016 -15.231682053993314
4.783659876401142 51.22236125338651 -15.497566776945026
4.776643934084919 51.3954030099112 -15.756944753926387
4.770791939047239 51.56400375049214 -16.00981865287084
4.766331329113517 51.72613739272538 -16.25980600323981
4.762161929646622 51.886266074593095 -16.498949135933948
4.759157208351398 52.04211204423707 -16.73123175223973
4.757234706291547 52.19367237787494 -16.956685937488224
4.756341857350727 52.340941815796626 -17.175341310882008
4.756452137604367 52.483913226307806 -17.387225100756
4.757561398130758 52.62257802973105 -17.592362267435238
4.759684702400276 52.756926547189586 -17.790775623488212
4.762853454451515 52.886948289527005 -17.98248594398821
4.768313990327481 53.007007104170825 -18.180757827532762
4.774574590873773 53.126993473011694 -18.361967531649825
4.782406964065047 53.242541353212026 -18.536616989533442