# vtk DataFile Version 4.0
[MyVLM domain - lattices] 
ASCII
DATASET UNSTRUCTURED_GRID
POINTS 302 float
0.034182456231286476 5.164790325555492 3.471758172739306
0.03405815639044544 5.164791532857377 3.4781569246315067
0.033911025966592775 5.164792961908587 3.4857309574834994
0.03374106495972849 5.164794612709122 3.4944802712952834
0.03354827336985259 5.164796485258984 3.5044048660668596
0.03333265119696507 5.164798579558171 3.515504741798228
0.03309419844106593 5.1648008956066835 3.5277798984893884
0.032832915102155164 5.164803433404522 3.5412303361403406
0.03254880118023279 5.164806192951686 3.555856054751084
0.03224185667529879 5.164809174248176 3.57165705432162
0.03191208158735317 5.164812377293991 3.5886333348519477
0.031559475916395914 5.164815802089133 3.6067848963420683
0.031184039662427065 5.164819448633599 3.62611173879198
0.030785772825446586 5.164823316927392 3.6466138622016833
0.030364675405454483 5.1648274069705105 3.668291266571179
0.02992074740245076 5.164831718762954 3.6911439519004667
0.02945398881643542 5.164836252304724 3.715171918189546
0.02896439964740845 5.164841007595819 3.740375165438417
0.028451979895369878 5.16484598463624 3.7667536936470807
0.027916729560319677 5.164851183425987 3.7943075028155357
0.027358648642257854 5.16485660396506 3.8230365929437835
0.026777737141184414 5.164862246253457 3.8529409640318217
0.02617399505709936 5.164868110291181 3.884020616079653
0.025547422390002676 5.16487419607823 3.9162755490872763
0.024898019139894378 5.164880503614606 3.9497057630546912
0.02422578530677446 5.164887032900307 3.984311257981898
0.023530720890642922 5.164893783935333 4.020092033868897
0.022812825891499758 5.164900756719685 4.057048090715687
0.02207210030934498 5.1649079512533635 4.09517942852227
0.021308544144178584 5.164915367536366 4.134486047288645
0.02052215739600056 5.1649230055686965 4.174967947014811
0.019712940064810922 5.164930865350351 4.21662512770077
0.018880892150609663 5.164938946881332 4.259457589346519
0.018026013653396785 5.164947250161638 4.3034653319520615
0.017148304573172287 5.16495577519127 4.348648355517396
0.01624776490993617 5.164964521970228 4.395006660042522
0.015324394663688427 5.164973490498511 4.44254024552744
0.014378193834429072 5.16498268077612 4.4912491119721505
0.013409162422158094 5.164992092803056 4.541133259376652
0.012417300426875498 5.165001726579316 4.592192687740946
0.011402607848581279 5.165011582104902 4.644427397065032
0.010365084687275442 5.165021659379813 4.697837387348909
0.009304730942957983 5.165031958404051 4.752422658592579
0.0082215466156289 5.165042479177615 4.808183210796041
0.007115531705288203 5.165053221700504 4.865119043959294
0.005986686211935884 5.165064185972718 4.923230158082339
0.004835010135571945 5.165075371994258 4.982516553165176
0.003660503476196387 5.165086779765124 5.042978229207806
0.0024631662338092148 5.165098409285316 5.104615186210227
0.0012429984084104172 5.165110260554833 5.16742742417244
0.0 5.1651223335736764 5.231414943094445
0.001242998408410414 5.229109852495681 5.231427016113288
0.002463166233809208 5.291922090457895 5.2314388673828045
0.0036605034761963825 5.353559047460316 5.231450496902996
0.004835010135571936 5.414020723502945 5.2314619046738615
0.0059866862119358705 5.473307118585783 5.231473090695402
0.007115531705288185 5.531418232708829 5.231484054967616
0.00822154661562888 5.588354065872082 5.231494797490504
0.009304730942957954 5.644114618075544 5.231505318264068
0.010365084687275407 5.698699889319213 5.231515617288305
0.011402607848581246 5.752109879603091 5.231525694563216
0.012417300426875461 5.804344588927177 5.231535550088802
0.013409162422158054 5.8554040172914705 5.231545183865062
0.014378193834429029 5.905288164695972 5.231554595891997
0.015324394663688385 5.953997031140682 5.231563786169605
0.01624776490993612 6.0015306166256 5.231572754697889
0.017148304573172235 6.047888921150727 5.231581501476846
0.018026013653396736 6.093071944716061 5.2315900265064785
0.01888089215060961 6.137079687321603 5.2315983297867845
0.01971294006481087 6.179912148967354 5.231606411317765
0.02052215739600051 6.221569329653312 5.23161427109942
0.021308544144178522 6.262051229379479 5.231621909131748
0.02207210030934492 6.301357848145853 5.231629325414752
0.022812825891499695 6.339489185952436 5.231636519948429
0.02353072089064285 6.376445242799226 5.231643492732782
0.024225785306774387 6.412226018686225 5.231650243767808
0.02489801913989431 6.446831513613432 5.231656773053508
0.025547422390002603 6.480261727580848 5.231663080589883
0.026173995057099282 6.512516660588471 5.231669166376933
0.02677773714118434 6.543596312636301 5.231675030414657
0.02735864864225778 6.573500683724341 5.231680672703054
0.0279167295603196 6.602229773852588 5.231686093242127
0.028451979895369794 6.629783583021043 5.231691292031873
0.028964399647408372 6.6561621112297065 5.231696269072294
0.02945398881643533 6.681365358478576 5.231701024363389
0.029920747402450678 6.705393324767657 5.231705557905158
0.030364675405454393 6.728246010096944 5.231709869697602
0.030785772825446492 6.749923414466441 5.231713959740721
0.031184039662426975 6.770425537876143 5.231717828034513
0.03155947591639583 6.789752380326055 5.23172147457898
0.03191208158735307 6.807903941816175 5.231724899374121
0.03224185667529869 6.824880222346502 5.231728102419936
0.03254880118023269 6.840681221917039 5.231731083716426
0.032832915102155066 6.855306940527783 5.23173384326359
0.033094198441065835 6.868757378178734 5.231736381061428
0.03333265119696496 6.881032534869895 5.231738697109941
0.03354827336985249 6.892132410601263 5.231740791409128
0.033741064959728395 6.90205700537284 5.23174266395899
0.03391102596659267 6.910806319184625 5.231744314759525
0.03405815639044534 6.918380352036617 5.231745743810735
0.03418245623128638 6.924779103928817 5.231746951112619
0.047855438723801054 5.516655278022884 3.119893220271913
0.04773113888296001 5.516656485324768 3.126291972164114
0.04758400845910735 5.516657914375978 3.133866005016106
0.04741404745224307 5.516659565176513 3.1426153188278905
0.04722125586236717 5.516661437726375 3.1525399135994667
0.047005633689479645 5.516663532025563 3.1636397893308352
0.0467671809335805 5.516665848074075 3.175914946021995
0.04650589759466974 5.516668385871913 3.189365383672947
0.04622178367274737 5.516671145419077 3.203991102283691
0.04591483916781336 5.516674126715567 3.2197921018542273
0.04558506407986774 5.516677329761383 3.2367683823845548
0.0452324584089105 5.516680754556524 3.254919943874675
0.04485702215494164 5.516684401100991 3.274246786324587
0.04445875531796115 5.516688269394783 3.2947489097342904
0.044037657897969054 5.516692359437902 3.316426314103786
0.043593729894965336 5.516696671230346 3.339278999433074
0.04312697130895 5.516701204772115 3.363306965722153
0.04263738213992303 5.51670596006321 3.388510212971024
0.042124962387884456 5.516710937103632 3.4148887411796878
0.04158971205283425 5.516716135893378 3.4424425503481424
0.041031631134772435 5.516721556432451 3.4711716404763897
0.04045071963369899 5.516727198720849 3.501076011564429
0.03984697754961393 5.516733062758573 3.53215566361226
0.03922040488251725 5.516739148545621 3.564410596619883
0.03857100163240895 5.516745456081997 3.597840810587298
0.03789876779928903 5.516751985367698 3.6324463055145046
0.037203703383157496 5.516758736402725 3.668227081401503
0.036485808384014336 5.5167657091870765 3.7051831382482936
0.035745082801859555 5.516772903720755 3.7433144760548767
0.034981526636693155 5.516780320003758 3.7826210948212506
0.034195139888515136 5.516787958036088 3.823102994547418
0.033385922557325504 5.5167958178177425 3.864760175233376
0.03255387464312424 5.516803899348723 3.9075926368791265
0.031698996145911366 5.51681220262903 3.9516003794846686
0.030821287065686858 5.516820727658661 3.996783403050003
0.029920747402450744 5.516829474437619 4.0431417075751295
0.028997377156203003 5.516838442965903 4.0906752930600465
0.028051176326943643 5.516847633243511 4.139384159504758
0.02708214491467267 5.516857045270447 4.189268306909259
0.02609028291939007 5.516866679046707 4.240327735273553
0.025075590341095855 5.516876534572293 4.292562444597638
0.024038067179790016 5.516886611847205 4.345972434881516
0.022977713435472558 5.516896910871443 4.400557706125186
0.021894529108143473 5.516907431645006 4.456318258328647
0.02078851419780278 5.516918174167895 4.513254091491901
0.019659668704450458 5.516929138440109 4.5713652056149465
0.01850799262808652 5.5169403244616495 4.630651600697783
0.017333485968710965 5.516951732232515 4.691113276740413
0.01613614872632379 5.516963361752707 4.752750233742834
0.014915980900924991 5.516975213022225 4.815562471705047
0.013672982492514574 5.516987286041068 4.879549990627052
0.014915980900924988 5.580974804963073 4.879562063645895
0.016136148726323782 5.643787042925286 4.879573914915412
0.017333485968710954 5.705423999927707 4.879585544435603
0.018507992628086514 5.7658856759703365 4.879596952206469
0.019659668704450448 5.825172071053174 4.879608138228009
0.020788514197802758 5.88328318517622 4.879619102500223
0.021894529108143455 5.940219018339473 4.8796298450231115
0.02297771343547253 5.995979570542935 4.879640365796675
0.024038067179789985 6.0505648417866045 4.879650664820912
0.02507559034109582 6.103974832070483 4.879660742095823
0.02609028291939004 6.156209541394568 4.879670597621409
0.027082144914672625 6.207268969758862 4.8796802313976695
0.028051176326943605 6.257153117163364 4.879689643424604
0.02899737715620296 6.305861983608073 4.8796988337022125
0.029920747402450692 6.353395569092992 4.879707802230496
0.030821287065686806 6.399753873618118 4.879716549009453
0.03169899614591131 6.444936897183452 4.879725074039085
0.03255387464312419 6.488944639788995 4.879733377319392
0.03338592255732545 6.531777101434745 4.879741458850372
0.03419513988851509 6.5734342821207035 4.879749318632026
0.0349815266366931 6.61391618184687 4.879756956664355
0.035745082801859486 6.653222800613245 4.879764372947359
0.03648580838401426 6.691354138419828 4.879771567481036
0.03720370338315743 6.7283101952666176 4.879778540265388
0.03789876779928896 6.7640909711536175 4.879785291300415
0.03857100163240888 6.7986964660808225 4.8797918205861155
0.039220404882517185 6.832126680048239 4.8797981281224905
0.03984697754961386 6.864381613055862 4.87980421390954
0.04045071963369891 6.895461265103693 4.879810077947263
0.04103163113477235 6.9253656361917315 4.879815720235661
0.04158971205283417 6.954094726319979 4.879821140774734
0.04212496238788437 6.981648535488435 4.87982633956448
0.04263738213992295 7.0080270636970985 4.879831316604901
0.04312697130894991 7.033230310945969 4.879836071895996
0.04359372989496525 7.057258277235048 4.879840605437765
0.04403765789796897 7.080110962564335 4.879844917230209
0.04445875531796106 7.101788366933832 4.879849007273327
0.044857022154941556 7.122290490343535 4.87985287556712
0.04523245840891041 7.141617332793447 4.879856522111586
0.04558506407986765 7.159768894283567 4.879859946906728
0.04591483916781326 7.176745174813894 4.879863149952543
0.04622178367274727 7.19254617438443 4.879866131249033
0.046505897594669644 7.2071718929951745 4.879868890796197
0.046767180933580406 7.220622330646127 4.879871428594035
0.04700563368947954 7.232897487337286 4.8798737446425475
0.04722125586236706 7.243997363068655 4.879875838941735
0.04741404745224297 7.253921957840231 4.879877711491596
0.04758400845910725 7.262671271652016 4.879879362292132
0.04773113888295991 7.270245304504009 4.879880791343342
0.04785543872380096 7.276644056396209 4.879881998645226
0.044375043180251886 5.428689643556978 3.2110588343348616
0.044239328047905035 5.428690961733525 3.218045226706958
0.044080782332546566 5.428692501659398 3.2262069000388465
0.043899406034176476 5.428694263334597 3.2355438543305266
0.04369519915279476 5.42869624675912 3.246056089581999
0.04346816168840144 5.428698451932971 3.2577436057932636
0.04321829364099648 5.428700878856146 3.2706064029643196
0.042945595010579915 5.428703527528648 3.2846444810951674
0.04265006579715172 5.428706397950474 3.299857840185808
0.042331706000711906 5.428709490121627 3.3162464802362392
0.04199051562126048 5.428712804042106 3.333810401246463
0.041626494658797426 5.42871633971191 3.352549603216479
0.04123964311332275 5.428720097131039 3.3724640861462865
0.04082996098483646 5.428724076299495 3.393553850035886
0.040397448273338556 5.428728277217276 3.4158188948852777
0.039942104978829024 5.428732699884383 3.4392592206944617
0.039463931101307866 5.428737344300815 3.4638748274634366
0.0389629266407751 5.428742210466574 3.489665715192204
0.03843909159723071 5.428747298381657 3.5166318838807635
0.03789242597067471 5.428752608046067 3.5447733335291147
0.03732292976110707 5.428758139459802 3.5740900641372577
0.036730602968527815 5.428763892622863 3.6045820757051934
0.03611544559293695 5.42876986753525 3.63624936823292
0.03547745763433446 5.428776064196962 3.669091941720439
0.034816639092720356 5.428782482608 3.703109796167749
0.03413298996809462 5.428789122768364 3.7383029315748524
0.03342651026045728 5.428795984678053 3.774671347941747
0.032697199969808306 5.428803068337068 3.8122150452684336
0.03194505909614771 5.428810373745408 3.8509340235549128
0.031170087639475506 5.428817900903075 3.890828282801183
0.030372285599791674 5.428825649810067 3.9318978230072448
0.029551652977096228 5.428833620466385 3.9741426441730994
0.02870818977138916 5.428841812872029 4.017562746298745
0.02784189598267047 5.428850227026998 4.0621581293841835
0.02695277161094016 5.428858862931293 4.107928793429414
0.02604081665619823 5.428867720584913 4.154874738434437
0.025106031118444685 5.42887679998786 4.20299596439925
0.02414841499767952 5.428886101140131 4.252292471323856
0.023167968293902726 5.428895624041729 4.302764259208254
0.022164691007114323 5.428905368692653 4.354411328052444
0.02113858313731429 5.428915335092901 4.407233677856425
0.020089644684502646 5.4289255232424765 4.461231308620199
0.019017875648679378 5.428935933141377 4.516404220343764
0.017923276029844486 5.4289465647896025 4.572752413027122
0.01680584582799798 5.428957418187155 4.630275886670272
0.015665585043139852 5.428968493334032 4.688974641273213
0.014502493675270104 5.428979790230235 4.748848676835946
0.013316571724388736 5.428991308875764 4.809897993358471
0.012107819190495748 5.4290030492706185 4.872122590840789
0.010876236073591141 5.429015011414799 4.935522469282898
0.010876236073591138 5.461014807385222 4.967522265253322
0.012107819190495741 5.524414685827332 4.967534227397501
0.013316571724388725 5.586639283309649 4.967545967792356
0.01450249367527009 5.647688599832175 4.967557486437884
0.015665585043139838 5.707562635394908 4.967568783334087
0.016805845827997958 5.766261389997849 4.967579858480964
0.017923276029844466 5.823784863640999 4.967590711878516
0.01901787564867935 5.880133056324356 4.967601343526741
0.02008964468450261 5.935305968047921 4.967611753425642
0.021138583137314263 5.989303598811696 4.967621941575215
0.02216469100711429 6.042125948615677 4.9676319079754645
0.02316796829390269 6.093773017459867 4.967641652626387
0.024148414997679474 6.144244805344265 4.967651175527985
0.02510603111844464 6.193541312268871 4.967660476680257
0.026040816656198184 6.241662538233685 4.9676695560832025
0.026952771610940115 6.288608483238708 4.967678413736823
0.02784189598267042 6.334379147283937 4.967687049641118
0.028708189771389104 6.3789745303693755 4.967695463796086
0.029551652977096173 6.422394632495022 4.96770365620173
0.030372285599791618 6.464639453660876 4.967711626858048
0.031170087639475447 6.50570899386694 4.967719375765039
0.03194505909614766 6.5456032531132085 4.967726902922705
0.03269719996980823 6.584322231399688 4.967734208331046
0.033426510260457204 6.621865928726375 4.967741291990061
0.03413298996809455 6.65823434509327 4.96774815389975
0.03481663909272028 6.693427480500372 4.967754794060113
0.03547745763433439 6.727445334947682 4.967761212471151
0.03611544559293688 6.760287908435203 4.967767409132863
0.03673060296852775 6.79195520096293 4.967773384045249
0.037322929761106995 6.822447212530864 4.967779137208311
0.037892425970674624 6.851763943139007 4.967784668622046
0.038439091597230635 6.879905392787358 4.967789978286454
0.03896292664077502 6.906871561475918 4.967795066201538
0.03946393110130778 6.932662449204684 4.967799932367297
0.039942104978828934 6.957278055973659 4.967804576783729
0.040397448273338465 6.980718381782844 4.967808999450836
0.04082996098483638 7.002983426632237 4.967813200368616
0.04123964311332267 7.024073190521836 4.967817179537072
0.04162649465879734 7.043987673451643 4.967820936956201
0.04199051562126038 7.062726875421659 4.967824472626005
0.042331706000711816 7.080290796431885 4.967827786546484
0.042650065797151616 7.096679436482314 4.967830878717637
0.04294559501057981 7.111892795572954 4.967833749139463
0.04321829364099638 7.125930873703803 4.967836397811964
0.043468161688401334 7.138793670874858 4.96783882473514
0.04369519915279466 7.150481187086124 4.96784102990899
0.04389940603417637 7.160993422337595 4.967843013333514
0.04408078233254647 7.170330376629276 4.967844775008713
0.04423932804790494 7.178492049961164 4.967846314934585
0.04437504318025179 7.1854784423332605 4.967847633111132

CELLS 200 700
4 0 101 102 1
4 1 102 103 2
4 2 103 104 3
4 3 104 105 4
4 4 105 106 5
4 5 106 107 6
4 6 107 108 7
4 7 108 109 8
4 8 109 110 9
4 9 110 111 10
4 10 111 112 11
4 11 112 113 12
4 12 113 114 13
4 13 114 115 14
4 14 115 116 15
4 15 116 117 16
4 16 117 118 17
4 17 118 119 18
4 18 119 120 19
4 19 120 121 20
4 20 121 122 21
4 21 122 123 22
4 22 123 124 23
4 23 124 125 24
4 24 125 126 25
4 25 126 127 26
4 26 127 128 27
4 27 128 129 28
4 28 129 130 29
4 29 130 131 30
4 30 131 132 31
4 31 132 133 32
4 32 133 134 33
4 33 134 135 34
4 34 135 136 35
4 35 136 137 36
4 36 137 138 37
4 37 138 139 38
4 38 139 140 39
4 39 140 141 40
4 40 141 142 41
4 41 142 143 42
4 42 143 144 43
4 43 144 145 44
4 44 145 146 45
4 45 146 147 46
4 46 147 148 47
4 47 148 149 48
4 48 149 150 49
4 49 150 151 50
4 50 151 152 51
4 51 152 153 52
4 52 153 154 53
4 53 154 155 54
4 54 155 156 55
4 55 156 157 56
4 56 157 158 57
4 57 158 159 58
4 58 159 160 59
4 59 160 161 60
4 60 161 162 61
4 61 162 163 62
4 62 163 164 63
4 63 164 165 64
4 64 165 166 65
4 65 166 167 66
4 66 167 168 67
4 67 168 169 68
4 68 169 170 69
4 69 170 171 70
4 70 171 172 71
4 71 172 173 72
4 72 173 174 73
4 73 174 175 74
4 74 175 176 75
4 75 176 177 76
4 76 177 178 77
4 77 178 179 78
4 78 179 180 79
4 79 180 181 80
4 80 181 182 81
4 81 182 183 82
4 82 183 184 83
4 83 184 185 84
4 84 185 186 85
4 85 186 187 86
4 86 187 188 87
4 87 188 189 88
4 88 189 190 89
4 89 190 191 90
4 90 191 192 91
4 91 192 193 92
4 92 193 194 93
4 93 194 195 94
4 94 195 196 95
4 95 196 197 96
4 96 197 198 97
4 97 198 199 98
4 98 199 200 99
4 99 200 201 100
1 202
1 203
1 204
1 205
1 206
1 207
1 208
1 209
1 210
1 211
1 212
1 213
1 214
1 215
1 216
1 217
1 218
1 219
1 220
1 221
1 222
1 223
1 224
1 225
1 226
1 227
1 228
1 229
1 230
1 231
1 232
1 233
1 234
1 235
1 236
1 237
1 238
1 239
1 240
1 241
1 242
1 243
1 244
1 245
1 246
1 247
1 248
1 249
1 250
1 251
1 252
1 253
1 254
1 255
1 256
1 257
1 258
1 259
1 260
1 261
1 262
1 263
1 264
1 265
1 266
1 267
1 268
1 269
1 270
1 271
1 272
1 273
1 274
1 275
1 276
1 277
1 278
1 279
1 280
1 281
1 282
1 283
1 284
1 285
1 286
1 287
1 288
1 289
1 290
1 291
1 292
1 293
1 294
1 295
1 296
1 297
1 298
1 299
1 300
1 301

CELL_TYPES 200
9
9
9
9
9
9
9
9
9
9
9
9
9
9
9
9
9
9
9
9
9
9
9
9
9
9
9
9
9
9
9
9
9
9
9
9
9
9
9
9
9
9
9
9
9
9
9
9
9
9
9
9
9
9
9
9
9
9
9
9
9
9
9
9
9
9
9
9
9
9
9
9
9
9
9
9
9
9
9
9
9
9
9
9
9
9
9
9
9
9
9
9
9
9
9
9
9
9
9
9
1
1
1
1
1
1
1
1
1
1
1
1
1
1
1
1
1
1
1
1
1
1
1
1
1
1
1
1
1
1
1
1
1
1
1
1
1
1
1
1
1
1
1
1
1
1
1
1
1
1
1
1
1
1
1
1
1
1
1
1
1
1
1
1
1
1
1
1
1
1
1
1
1
1
1
1
1
1
1
1
1
1
1
1
1
1
1
1
1
1
1
1
1
1
1
1
1
1
1
1

CELL_DATA 200

VECTORS Vinf float
5.165484109063412 21.547742655098396 -36.402724534950835
5.15155900982885 21.596066491596986 -36.40440197924636
5.135525158203475 21.6524582774286 -36.40636379896419
5.117508634584363 21.716887818338236 -36.408609806351954
5.097663780634509 21.789319826824897 -36.41113896378721
5.076175065285263 21.869714033599653 -36.41394910509046
5.053257817660603 21.95802554933859 -36.41703666430897
5.029157426049601 22.054205530755528 -36.42039643226893
5.004146662549669 22.15820218599731 -36.42402136375824
4.9731533307003595 22.265873595201594 -36.43115685496904
4.948728881529255 22.386059263331102 -36.434701953127
4.924063661829098 22.513912645553678 -36.43850789574066
4.899460665480458 22.649369265711233 -36.442570420393814
4.875220037109777 22.792367712297917 -36.446883806374174
4.851628385035708 22.942851397994612 -36.451441253586346
4.8289490562346 23.1007699248324 -36.45623535500806
4.807414435484069 23.26607988905578 -36.461258620079285
4.787221109599039 23.43874502641468 -36.46650399863385
4.768528358340162 23.618735688216127 -36.47196535452494
4.751459962671347 23.80602773404541 -36.47763784553737
4.736108853906083 24.000601008267274 -36.48351818033556
4.7185493975479975 24.201394969740385 -36.49065420330785
4.7093325866973315 24.411807162622324 -36.49595573989292
4.700888508049412 24.629694320860878 -36.50149751988477
4.693290708979685 24.85504407712764 -36.507275736690886
4.686588923586076 25.087847390549026 -36.51328770792564
4.680815908469994 25.32809695406314 -36.51953196706853
4.675995256103167 25.575785652616783 -36.5260081957343
4.67214934580736 25.830905220902153 -36.53271701803406
4.67091040278466 26.095047493858093 -36.53817898977351
4.671275269676026 26.36614889410533 -36.54443081067927
4.672903557337268 26.644903965846634 -36.55074671007684
4.675858945758879 26.931319059754905 -36.557113416112486
4.680215189811443 27.225399044442565 -36.563517444388324
4.686058136227546 27.52714743372771 -36.56994490458137
4.691555075795964 27.83632929924876 -36.576671030630656
4.700872731746346 28.153523219868564 -36.58307257236732
4.711948232350865 28.478389233794605 -36.589471909315506
4.724804956973959 28.810946507146046 -36.595856185460065
4.739373664253073 29.151224809318208 -36.60221803362024
4.755443309753636 29.499268719272195 -36.60855808743754
4.772176115059988 29.854597332399596 -36.61521697691471
4.790231807798337 30.218189963177085 -36.62164876167372
4.80811050906971 30.589725743878745 -36.62815404024914
4.824682427260288 30.969321099029166 -36.6347875319563
4.8387957899545855 31.35708224604864 -36.641611321776395
4.849873261074221 31.75281619176835 -36.648724703007424
4.856996307177698 32.15693480729471 -36.65614311807689
4.860867722396349 32.569189775380295 -36.663867815569695
4.862303187978031 32.989468786942915 -36.67188482943385
4.863817625490999 33.19726093775867 -36.88737696681169
4.865687630812894 33.18871180432166 -37.30635893428111
4.865293403252396 33.18043765511867 -37.71776246595052
4.861588595569902 33.172461947156876 -38.12171083154825
4.855027019420501 33.16441542630637 -38.518582294774944
4.844194647718537 33.157125243589135 -38.907622047103885
4.830464251729007 33.14998347903814 -39.28927852771554
4.815079057345762 33.14292950739293 -39.66344034377343
4.799238288801525 33.13591484221761 -40.02998940121555
4.783805880989875 33.12881547738519 -40.388844793275524
4.770194842035907 33.122135432190014 -40.739598995297854
4.75768466119859 33.11548107239037 -41.08253803124426
4.746422191610946 33.10885945032046 -41.417635821789595
4.7364212670539265 33.102283191099126 -41.74488047742076
4.730220823642162 33.09597470410249 -42.06387654019151
4.724172257035993 33.08907051818382 -42.3754584176353
4.718869375102176 33.082178160525665 -42.67926656001156
4.714254425529626 33.07531497863448 -42.975299545699635
4.710294763689091 33.06849675276244 -43.26355394328645
4.706982012976659 33.0617378962684 -43.54402418227733
4.704327538412984 33.05505175994387 -43.81670283246706
4.707642970735783 33.05020282155934 -44.07981486124007
4.708059355859515 33.04397728744376 -44.33646595893986
4.709622914963553 33.03790748896768 -44.585221268798904
4.712356228351549 33.031992273923734 -44.826080578983166
4.716306049544301 33.026230195147356 -45.05904115124912
4.721540511464992 33.020619726971276 -45.28409792439527
4.728145114385702 33.015159486956584 -45.501243825979586
4.735899770147826 33.008806809495965 -45.71106031762881
4.745405037800717 33.00307760303983 -45.912653185153445
4.756775947120038 32.99755547417217 -46.10625526839974
4.7700706973997775 32.99223796456406 -46.291862332020855
4.785311838065817 32.98712403353335 -46.46947288365112
4.802473852292475 32.98221411175172 -46.63908941124094
4.82147352330149 32.977510045518045 -46.80071940409113
4.842164620436992 32.97301492438926 -46.954376005208175
4.864337859321239 32.96873280185678 -47.100078191333616
4.887726308127686 32.964668334928824 -47.23785044664423
4.912015612245152 32.96082638033143 -47.367721970402236
4.936857763922436 32.95721159025353 -47.48972552166195
4.959729043024007 32.95609732030647 -47.60280106981773
4.984660998043183 32.9527226457152 -47.709280999396064
5.009064571056659 32.94959257740139 -47.80799307634061
5.032605245517268 32.94670997374047 -47.8989701036961
5.054981742045391 32.944076411048115 -47.982242240658856
5.075931480757526 32.94169227617356 -48.057836386170365
5.095232827099962 32.93955692666273 -48.12577585020341
5.112704571847039 32.93766889730283 -48.18608028001645
5.128203258714964 32.93602613215591 -48.238765791669366
5.141619032437288 32.93462622343774 -48.28384524946627
5.165484109063412 21.547742655098396 -36.402724534950835
5.15155900982885 21.596066491596986 -36.40440197924636
5.135525158203475 21.6524582774286 -36.40636379896419
5.117508634584363 21.716887818338236 -36.408609806351954
5.097663780634509 21.789319826824897 -36.41113896378721
5.076175065285263 21.869714033599653 -36.41394910509046
5.053257817660603 21.95802554933859 -36.41703666430897
5.029157426049601 22.054205530755528 -36.42039643226893
5.004146662549669 22.15820218599731 -36.42402136375824
4.9731533307003595 22.265873595201594 -36.43115685496904
4.948728881529255 22.386059263331102 -36.434701953127
4.924063661829098 22.513912645553678 -36.43850789574066
4.899460665480458 22.649369265711233 -36.442570420393814
4.875220037109777 22.792367712297917 -36.446883806374174
4.851628385035708 22.942851397994612 -36.451441253586346
4.8289490562346 23.1007699248324 -36.45623535500806
4.807414435484069 23.26607988905578 -36.461258620079285
4.787221109599039 23.43874502641468 -36.46650399863385
4.768528358340162 23.618735688216127 -36.47196535452494
4.751459962671347 23.80602773404541 -36.47763784553737
4.736108853906083 24.000601008267274 -36.48351818033556
4.7185493975479975 24.201394969740385 -36.49065420330785
4.7093325866973315 24.411807162622324 -36.49595573989292
4.700888508049412 24.629694320860878 -36.50149751988477
4.693290708979685 24.85504407712764 -36.507275736690886
4.686588923586076 25.087847390549026 -36.51328770792564
4.680815908469994 25.32809695406314 -36.51953196706853
4.675995256103167 25.575785652616783 -36.5260081957343
4.67214934580736 25.830905220902153 -36.53271701803406
4.67091040278466 26.095047493858093 -36.53817898977351
4.671275269676026 26.36614889410533 -36.54443081067927
4.672903557337268 26.644903965846634 -36.55074671007684
4.675858945758879 26.931319059754905 -36.557113416112486
4.680215189811443 27.225399044442565 -36.563517444388324
4.686058136227546 27.52714743372771 -36.56994490458137
4.691555075795964 27.83632929924876 -36.576671030630656
4.700872731746346 28.153523219868564 -36.58307257236732
4.711948232350865 28.478389233794605 -36.589471909315506
4.724804956973959 28.810946507146046 -36.595856185460065
4.739373664253073 29.151224809318208 -36.60221803362024
4.755443309753636 29.499268719272195 -36.60855808743754
4.772176115059988 29.854597332399596 -36.61521697691471
4.790231807798337 30.218189963177085 -36.62164876167372
4.80811050906971 30.589725743878745 -36.62815404024914
4.824682427260288 30.969321099029166 -36.6347875319563
4.8387957899545855 31.35708224604864 -36.641611321776395
4.849873261074221 31.75281619176835 -36.648724703007424
4.856996307177698 32.15693480729471 -36.65614311807689
4.860867722396349 32.569189775380295 -36.663867815569695
4.862303187978031 32.989468786942915 -36.67188482943385
4.863817625490999 33.19726093775867 -36.88737696681169
4.865687630812894 33.18871180432166 -37.30635893428111
4.865293403252396 33.18043765511867 -37.71776246595052
4.861588595569902 33.172461947156876 -38.12171083154825
4.855027019420501 33.16441542630637 -38.518582294774944
4.844194647718537 33.157125243589135 -38.907622047103885
4.830464251729007 33.14998347903814 -39.28927852771554
4.815079057345762 33.14292950739293 -39.66344034377343
4.799238288801525 33.13591484221761 -40.02998940121555
4.783805880989875 33.12881547738519 -40.388844793275524
4.770194842035907 33.122135432190014 -40.739598995297854
4.75768466119859 33.11548107239037 -41.08253803124426
4.746422191610946 33.10885945032046 -41.417635821789595
4.7364212670539265 33.102283191099126 -41.74488047742076
4.730220823642162 33.09597470410249 -42.06387654019151
4.724172257035993 33.08907051818382 -42.3754584176353
4.718869375102176 33.082178160525665 -42.67926656001156
4.714254425529626 33.07531497863448 -42.975299545699635
4.710294763689091 33.06849675276244 -43.26355394328645
4.706982012976659 33.0617378962684 -43.54402418227733
4.704327538412984 33.05505175994387 -43.81670283246706
4.707642970735783 33.05020282155934 -44.07981486124007
4.708059355859515 33.04397728744376 -44.33646595893986
4.709622914963553 33.03790748896768 -44.585221268798904
4.712356228351549 33.031992273923734 -44.826080578983166
4.716306049544301 33.026230195147356 -45.05904115124912
4.721540511464992 33.020619726971276 -45.28409792439527
4.728145114385702 33.015159486956584 -45.501243825979586
4.735899770147826 33.008806809495965 -45.71106031762881
4.745405037800717 33.00307760303983 -45.912653185153445
4.756775947120038 32.99755547417217 -46.10625526839974
4.7700706973997775 32.99223796456406 -46.291862332020855