# vtk DataFile Version 4.0
[MyVLM domain - lattices] 
ASCII
DATASET UNSTRUCTURED_GRID
POINTS 302 float
0.034182456231286566 5.164790325555349 3.4717581727393414
0.03405815639044553 5.164791532857233 3.478156924631542
0.033911025966592866 5.164792961908443 3.4857309574835336
0.03374106495972858 5.164794612708979 3.4944802712953185
0.03354827336985268 5.16479648525884 3.5044048660668947
0.03333265119696516 5.164798579558028 3.515504741798263
0.033094198441066015 5.16480089560654 3.527779898489423
0.032832915102155254 5.164803433404378 3.5412303361403756
0.03254880118023288 5.164806192951542 3.555856054751119
0.03224185667529887 5.164809174248032 3.5716570543216557
0.031912081587353244 5.164812377293848 3.588633334851983
0.031559475916396004 5.164815802088989 3.606784896342103
0.031184039662427145 5.164819448633455 3.6261117387920145
0.03078577282544666 5.164823316927248 3.6466138622017183
0.030364675405454563 5.164827406970367 3.6682912665712135
0.02992074740245084 5.1648317187628106 3.6911439519005014
0.0294539888164355 5.16483625230458 3.7151719181895806
0.02896439964740853 5.164841007595675 3.7403751654384516
0.02845197989536995 5.164845984636096 3.7667536936471153
0.02791672956031975 5.164851183425843 3.79430750281557
0.027358648642257927 5.164856603964915 3.823036592943818
0.02677773714118449 5.164862246253313 3.8529409640318564
0.026173995057099428 5.164868110291037 3.8840206160796877
0.025547422390002746 5.164874196078086 3.9162755490873105
0.024898019139894447 5.164880503614461 3.9497057630547254
0.024225785306774522 5.164887032900162 3.9843112579819326
0.023530720890642984 5.164893783935188 4.020092033868931
0.022812825891499824 5.164900756719541 4.057048090715722
0.02207210030934504 5.164907951253218 4.095179428522304
0.02130854414417864 5.164915367536222 4.134486047288679
0.020522157396000617 5.164923005568551 4.174967947014846
0.019712940064810978 5.164930865350206 4.216625127700803
0.018880892150609712 5.164938946881186 4.259457589346554
0.018026013653396834 5.164947250161492 4.303465331952096
0.017148304573172332 5.164955775191125 4.3486483555174305
0.01624776490993621 5.164964521970082 4.395006660042556
0.015324394663688467 5.164973490498365 4.442540245527475
0.014378193834429108 5.164982680775974 4.491249111972184
0.013409162422158128 5.164992092802909 4.541133259376686
0.01241730042687553 5.1650017265791694 4.5921926877409796
0.01140260784858131 5.165011582104755 4.644427397065066
0.010365084687275468 5.165021659379667 4.697837387348943
0.009304730942958007 5.165031958403905 4.752422658592613
0.008221546615628923 5.165042479177467 4.8081832107960745
0.007115531705288222 5.165053221700356 4.865119043959328
0.0059866862119359 5.165064185972571 4.923230158082373
0.004835010135571957 5.165075371994111 4.982516553165211
0.0036605034761963964 5.165086779764977 5.04297822920784
0.0024631662338092213 5.165098409285168 5.1046151862102604
0.0012429984084104204 5.165110260554686 5.167427424172474
0.0 5.165122333573528 5.231414943094479
0.0012429984084104157 5.229109852495533 5.231427016113322
0.002463166233809211 5.291922090457746 5.231438867382839
0.0036605034761963873 5.353559047460167 5.23145049690303
0.004835010135571944 5.414020723502796 5.231461904673896
0.005986686211935879 5.473307118585634 5.231473090695436
0.007115531705288195 5.531418232708679 5.231484054967651
0.008221546615628891 5.588354065871933 5.23149479749054
0.009304730942957968 5.6441146180753945 5.2315053182641025
0.010365084687275424 5.698699889319064 5.23151561728834
0.01140260784858126 5.7521098796029415 5.231525694563252
0.012417300426875477 5.804344588927027 5.231535550088838
0.013409162422158075 5.85540401729132 5.231545183865098
0.01437819383442905 5.905288164695823 5.231554595892033
0.015324394663688408 5.953997031140533 5.231563786169642
0.01624776490993614 6.001530616625451 5.231572754697925
0.01714830457317226 6.047888921150577 5.2315815014768825
0.018026013653396757 6.093071944715911 5.231590026506515
0.01888089215060964 6.137079687321453 5.231598329786821
0.019712940064810898 6.179912148967204 5.231606411317801
0.020522157396000537 6.221569329653162 5.231614271099456
0.02130854414417855 6.262051229379328 5.2316219091317855
0.02207210030934495 6.301357848145702 5.231629325414789
0.022812825891499723 6.339489185952285 5.2316365199484665
0.023530720890642884 6.376445242799075 5.231643492732819
0.02422578530677442 6.4122260186860744 5.231650243767845
0.024898019139894343 6.446831513613281 5.231656773053546
0.02554742239000264 6.480261727580697 5.231663080589922
0.026173995057099327 6.512516660588319 5.231669166376971
0.026777737141184383 6.543596312636152 5.231675030414694
0.027358648642257823 6.573500683724189 5.231680672703092
0.027916729560319632 6.602229773852436 5.231686093242165
0.028451979895369833 6.629783583020892 5.231691292031911
0.028964399647408413 6.6561621112295555 5.231696269072332
0.029453988816435375 6.681365358478427 5.231701024363428
0.029920747402450716 6.705393324767506 5.231705557905197
0.030364675405454438 6.728246010096793 5.2317098696976405
0.030785772825446537 6.749923414466289 5.231713959740759
0.03118403966242702 6.770425537875992 5.231717828034552
0.03155947591639588 6.789752380325904 5.231721474579018
0.031912081587353126 6.807903941816024 5.23172489937416
0.03224185667529873 6.824880222346351 5.231728102419975
0.03254880118023274 6.840681221916887 5.231731083716465
0.032832915102155115 6.8553069405276315 5.231733843263629
0.03309419844106588 6.868757378178585 5.231736381061467
0.03333265119696501 6.881032534869743 5.23173869710998
0.033548273369852534 6.892132410601112 5.231740791409167
0.033741064959728444 6.902057005372688 5.231742663959029
0.03391102596659272 6.910806319184473 5.231744314759564
0.03405815639044539 6.918380352036466 5.231745743810774
0.03418245623128643 6.924779103928666 5.231746951112658
0.04785543872380117 5.516655278022741 3.1198932202719494
0.04773113888296013 5.516656485324625 3.12629197216415
0.04758400845910747 5.516657914375835 3.1338660050161424
0.04741404745224318 5.51665956517637 3.142615318827927
0.047221255862367285 5.516661437726232 3.1525399135995027
0.047005633689479756 5.51666353202542 3.163639789330871
0.04676718093358062 5.516665848073932 3.1759149460220315
0.04650589759466986 5.51666838587177 3.1893653836729836
0.04622178367274748 5.516671145418934 3.2039911022837275
0.04591483916781348 5.516674126715424 3.2197921018542637
0.04558506407986784 5.51667732976124 3.236768382384591
0.04523245840891061 5.516680754556381 3.254919943874711
0.04485702215494175 5.516684401100847 3.274246786324623
0.044458755317961264 5.51668826939464 3.2947489097343263
0.044037657897969165 5.516692359437759 3.316426314103822
0.04359372989496545 5.516696671230202 3.33927899943311
0.0431269713089501 5.516701204771972 3.363306965722189
0.04263738213992314 5.516705960063067 3.38851021297106
0.04212496238788455 5.516710937103488 3.4148887411797237
0.041589712052834356 5.516716135893234 3.442442550348179
0.04103163113477253 5.516721556432307 3.4711716404764257
0.04045071963369909 5.516727198720705 3.501076011564465
0.039846977549614034 5.516733062758428 3.532155663612296
0.03922040488251735 5.5167391485454775 3.5644105966199193
0.03857100163240904 5.5167454560818525 3.5978408105873343
0.03789876779928912 5.516751985367554 3.6324463055145406
0.03720370338315759 5.51675873640258 3.668227081401539
0.036485808384014426 5.516765709186932 3.7051831382483296
0.035745082801859646 5.51677290372061 3.7433144760549126
0.034981526636693246 5.516780320003614 3.782621094821287
0.03419513988851522 5.516787958035943 3.823102994547454
0.03338592255732558 5.516795817817598 3.8647601752334118
0.032553874643124314 5.516803899348578 3.907592636879162
0.031698996145911436 5.516812202628884 3.951600379484704
0.03082128706568693 5.516820727658516 3.9967834030500384
0.02992074740245081 5.516829474437474 4.043141707575165
0.028997377156203076 5.516838442965757 4.090675293060083
0.028051176326943712 5.516847633243366 4.139384159504793
0.02708214491467273 5.516857045270301 4.189268306909295
0.026090282919390133 5.5168666790465615 4.240327735273588
0.025075590341095914 5.516876534572147 4.2925624445976736
0.02403806717979007 5.516886611847059 4.345972434881551
0.022977713435472613 5.516896910871296 4.4005577061252215
0.021894529108143525 5.516907431644859 4.4563182583286824
0.020788514197802824 5.516918174167748 4.513254091491937
0.019659668704450503 5.516929138439963 4.571365205614981
0.018507992628086563 5.516940324461502 4.630651600697819
0.017333485968711 5.516951732232369 4.691113276740448
0.016136148726323823 5.51696336175256 4.752750233742869
0.014915980900925023 5.516975213022077 4.815562471705082
0.013672982492514602 5.51698728604092 4.879549990627087
0.01491598090092502 5.580974804962925 4.87956206364593
0.016136148726323817 5.643787042925138 4.879573914915447
0.01733348596871099 5.705423999927559 4.879585544435638
0.018507992628086545 5.765885675970188 4.879596952206505
0.01965966870445048 5.825172071053026 4.879608138228045
0.020788514197802796 5.8832831851760705 4.879619102500259
0.021894529108143494 5.940219018339325 4.879629845023148
0.022977713435472568 5.995979570542786 4.879640365796711
0.024038067179790026 6.050564841786455 4.879650664820948
0.025075590341095865 6.1039748320703335 4.87966074209586
0.026090282919390084 6.156209541394419 4.8796705976214465
0.027082144914672673 6.2072689697587125 4.879680231397707
0.02805117632694365 6.257153117163215 4.8796896434246415
0.028997377156203007 6.305861983607924 4.87969883370225
0.029920747402450744 6.353395569092843 4.879707802230533
0.030821287065686865 6.399753873617969 4.879716549009491
0.031698996145911366 6.444936897183303 4.879725074039123
0.03255387464312424 6.488944639788845 4.879733377319429
0.0333859225573255 6.531777101434597 4.879741458850409
0.034195139888515136 6.573434282120553 4.879749318632065
0.03498152663669316 6.6139161818467205 4.8797569566643935
0.03574508280185955 6.6532228006130945 4.879764372947397
0.03648580838401432 6.691354138419676 4.879771567481075
0.03720370338315749 6.728310195266468 4.879778540265427
0.037898767799289024 6.764090971153467 4.879785291300454
0.038571001632408945 6.798696466080673 4.879791820586155
0.03922040488251725 6.832126680048088 4.8797981281225296
0.03984697754961392 6.864381613055711 4.879804213909579
0.04045071963369898 6.895461265103541 4.879810077947303
0.04103163113477242 6.925365636191581 4.8798157202357
0.041589712052834245 6.954094726319829 4.879821140774773
0.04212496238788444 6.981648535488283 4.87982633956452
0.04263738213992301 7.008027063696947 4.879831316604941
0.04312697130894998 7.033230310945818 4.879836071896036
0.04359372989496532 7.057258277234897 4.879840605437805
0.04403765789796904 7.080110962564186 4.879844917230249
0.04445875531796113 7.101788366933681 4.879849007273368
0.044857022154941625 7.122290490343385 4.87985287556716
0.04523245840891048 7.141617332793297 4.879856522111627
0.045585064079867725 7.159768894283415 4.879859946906768
0.04591483916781334 7.176745174813744 4.879863149952583
0.04622178367274734 7.19254617438428 4.879866131249073
0.04650589759466972 7.2071718929950235 4.879868890796237
0.04676718093358048 7.220622330645976 4.879871428594075
0.04700563368947962 7.2328974873371354 4.879873744642588
0.04722125586236714 7.2439973630685035 4.879875838941775
0.04741404745224304 7.25392195784008 4.879877711491637
0.047584008459107326 7.262671271651864 4.879879362292172
0.04773113888295999 7.270245304503858 4.879880791343382
0.04785543872380103 7.276644056396057 4.879881998645266
0.044375043180252 5.428689643556835 3.2110588343348976
0.044239328047905147 5.428690961733382 3.218045226706994
0.04408078233254668 5.428692501659255 3.2262069000388824
0.04389940603417659 5.428694263334454 3.235543854330563
0.04369519915279487 5.428696246758978 3.246056089582035
0.04346816168840154 5.428698451932828 3.2577436057932996
0.04321829364099659 5.428700878856003 3.2706064029643556
0.04294559501058002 5.428703527528505 3.2846444810952033
0.04265006579715183 5.428706397950331 3.299857840185844
0.04233170600071201 5.428709490121484 3.316246480236275
0.04199051562126058 5.428712804041962 3.3338104012464993
0.04162649465879753 5.428716339711766 3.352549603216515
0.04123964311332286 5.4287200971308955 3.3724640861463224
0.040829960984836565 5.428724076299352 3.393553850035923
0.04039744827333865 5.428728277217132 3.4158188948853137
0.03994210497882913 5.42873269988424 3.4392592206944976
0.03946393110130797 5.4287373443006715 3.463874827463473
0.03896292664077519 5.42874221046643 3.48966571519224
0.0384390915972308 5.428747298381513 3.516631883880799
0.0378924259706748 5.428752608045922 3.5447733335291502
0.03732292976110716 5.428758139459658 3.574090064137294
0.03673060296852791 5.428763892622719 3.6045820757052285
0.03611544559293704 5.428769867535105 3.636249368232955
0.03547745763433455 5.428776064196818 3.669091941720474
0.03481663909272044 5.428782482607856 3.703109796167785
0.034132989968094704 5.428789122768219 3.7383029315748875
0.033426510260457364 5.428795984677908 3.774671347941782
0.03269719996980839 5.428803068336923 3.812215045268469
0.03194505909614779 5.4288103737452635 3.850934023554948
0.031170087639475583 5.4288179009029305 3.8908282828012184
0.030372285599791753 5.428825649809922 3.9318978230072803
0.029551652977096294 5.42883362046624 3.974142644173135
0.02870818977138923 5.428841812871883 4.017562746298781
0.027841895982670537 5.428850227026852 4.062158129384219
0.02695277161094022 5.428858862931147 4.1079287934294495
0.02604081665619829 5.428867720584767 4.154874738434471
0.025106031118444744 5.428876799987714 4.202995964399285
0.024148414997679574 5.428886101139986 4.252292471323892
0.023167968293902785 5.428895624041583 4.302764259208289
0.022164691007114375 5.428905368692506 4.354411328052478
0.02113858313731434 5.428915335092755 4.4072336778564605
0.020089644684502694 5.428925523242329 4.461231308620234
0.01901787564867942 5.42893593314123 4.5164042203438
0.017923276029844528 5.428946564789456 4.572752413027157
0.016805845827998014 5.428957418187007 4.630275886670307
0.015665585043139887 5.428968493333884 4.688974641273248
0.014502493675270137 5.428979790230088 4.748848676835982
0.013316571724388764 5.4289913088756165 4.809897993358507
0.012107819190495773 5.42900304927047 4.872122590840823
0.010876236073591164 5.42901501141465 4.935522469282932
0.01087623607359116 5.461014807385075 4.967522265253357
0.012107819190495766 5.524414685827184 4.967534227397537
0.01331657172438875 5.5866392833095 4.967545967792391
0.014502493675270114 5.647688599832026 4.9675574864379195
0.015665585043139866 5.707562635394759 4.967568783334123
0.016805845827997986 5.7662613899977 4.967579858481
0.017923276029844493 5.823784863640849 4.967590711878551
0.019017875648679385 5.880133056324207 4.967601343526777
0.020089644684502646 5.935305968047773 4.967611753425678
0.021138583137314298 5.989303598811547 4.967621941575252
0.022164691007114327 6.042125948615528 4.967631907975501
0.02316796829390273 6.093773017459718 4.967641652626424
0.024148414997679515 6.144244805344115 4.9676511755280215
0.02510603111844468 6.193541312268722 4.967660476680294
0.02604081665619823 6.241662538233536 4.96766955608324
0.02695277161094016 6.288608483238558 4.96767841373686
0.02784189598267047 6.334379147283787 4.967687049641155
0.028708189771389156 6.378974530369225 4.967695463796124
0.02955165297709622 6.422394632494872 4.967703656201768
0.030372285599791667 6.464639453660727 4.967711626858085
0.031170087639475496 6.505708993866788 4.9677193757650775
0.031945059096147706 6.545603253113059 4.9677269029227435
0.032697199969808285 6.584322231399539 4.967734208331084
0.03342651026045726 6.6218659287262245 4.967741291990099
0.03413298996809461 6.658234345093119 4.967748153899788
0.034816639092720335 6.693427480500223 4.967754794060152
0.03547745763433445 6.727445334947533 4.967761212471189
0.03611544559293693 6.760287908435052 4.967767409132902
0.03673060296852781 6.791955200962779 4.967773384045288
0.03732292976110706 6.822447212530713 4.96777913720835
0.03789242597067469 6.851763943138857 4.967784668622085
0.0384390915972307 6.879905392787209 4.967789978286494
0.03896292664077508 6.906871561475767 4.967795066201578
0.039463931101307845 6.932662449204535 4.967799932367336
0.039942104978828996 6.957278055973509 4.967804576783768
0.04039744827333853 6.980718381782692 4.967808999450875
0.04082996098483644 7.002983426632085 4.967813200368656
0.04123964311332273 7.024073190521685 4.9678171795371115
0.041626494658797406 7.0439876734514915 4.967820936956241
0.04199051562126046 7.062726875421508 4.967824472626045
0.04233170600071189 7.080290796431732 4.967827786546524
0.042650065797151686 7.096679436482163 4.967830878717676
0.04294559501057988 7.111892795572802 4.967833749139503
0.04321829364099644 7.125930873703652 4.967836397812004
0.0434681616884014 7.138793670874708 4.96783882473518
0.04369519915279473 7.150481187085973 4.96784102990903
0.04389940603417644 7.160993422337445 4.967843013333554
0.04408078233254654 7.170330376629125 4.967844775008753
0.04423932804790501 7.178492049961013 4.967846314934626
0.04437504318025186 7.185478442333109 4.967847633111172

CELLS 200 700
4 0 101 102 1
4 1 102 103 2
4 2 103 104 3
4 3 104 105 4
4 4 105 106 5
4 5 106 107 6
4 6 107 108 7
4 7 108 109 8
4 8 109 110 9
4 9 110 111 10
4 10 111 112 11
4 11 112 113 12
4 12 113 114 13
4 13 114 115 14
4 14 115 116 15
4 15 116 117 16
4 16 117 118 17
4 17 118 119 18
4 18 119 120 19
4 19 120 121 20
4 20 121 122 21
4 21 122 123 22
4 22 123 124 23
4 23 124 125 24
4 24 125 126 25
4 25 126 127 26
4 26 127 128 27
4 27 128 129 28
4 28 129 130 29
4 29 130 131 30
4 30 131 132 31
4 31 132 133 32
4 32 133 134 33
4 33 134 135 34
4 34 135 136 35
4 35 136 137 36
4 36 137 138 37
4 37 138 139 38
4 38 139 140 39
4 39 140 141 40
4 40 141 142 41
4 41 142 143 42
4 42 143 144 43
4 43 144 145 44
4 44 145 146 45
4 45 146 147 46
4 46 147 148 47
4 47 148 149 48
4 48 149 150 49
4 49 150 151 50
4 50 151 152 51
4 51 152 153 52
4 52 153 154 53
4 53 154 155 54
4 54 155 156 55
4 55 156 157 56
4 56 157 158 57
4 57 158 159 58
4 58 159 160 59
4 59 160 161 60
4 60 161 162 61
4 61 162 163 62
4 62 163 164 63
4 63 164 165 64
4 64 165 166 65
4 65 166 167 66
4 66 167 168 67
4 67 168 169 68
4 68 169 170 69
4 69 170 171 70
4 70 171 172 71
4 71 172 173 72
4 72 173 174 73
4 73 174 175 74
4 74 175 176 75
4 75 176 177 76
4 76 177 178 77
4 77 178 179 78
4 78 179 180 79
4 79 180 181 80
4 80 181 182 81
4 81 182 183 82
4 82 183 184 83
4 83 184 185 84
4 84 185 186 85
4 85 186 187 86
4 86 187 188 87
4 87 188 189 88
4 88 189 190 89
4 89 190 191 90
4 90 191 192 91
4 91 192 193 92
4 92 193 194 93
4 93 194 195 94
4 94 195 196 95
4 95 196 197 96
4 96 197 198 97
4 97 198 199 98
4 98 199 200 99
4 99 200 201 100
1 202
1 203
1 204
1 205
1 206
1 207
1 208
1 209
1 210
1 211
1 212
1 213
1 214
1 215
1 216
1 217
1 218
1 219
1 220
1 221
1 222
1 223
1 224
1 225
1 226
1 227
1 228
1 229
1 230
1 231
1 232
1 233
1 234
1 235
1 236
1 237
1 238
1 239
1 240
1 241
1 242
1 243
1 244
1 245
1 246
1 247
1 248
1 249
1 250
1 251
1 252
1 253
1 254
1 255
1 256
1 257
1 258
1 259
1 260
1 261
1 262
1 263
1 264
1 265
1 266
1 267
1 268
1 269
1 270
1 271
1 272
1 273
1 274
1 275
1 276
1 277
1 278
1 279
1 280
1 281
1 282
1 283
1 284
1 285
1 286
1 287
1 288
1 289
1 290
1 291
1 292
1 293
1 294
1 295
1 296
1 297
1 298
1 299
1 300
1 301

CELL_TYPES 200
9
9
9
9
9
9
9
9
9
9
9
9
9
9
9
9
9
9
9
9
9
9
9
9
9
9
9
9
9
9
9
9
9
9
9
9
9
9
9
9
9
9
9
9
9
9
9
9
9
9
9
9
9
9
9
9
9
9
9
9
9
9
9
9
9
9
9
9
9
9
9
9
9
9
9
9
9
9
9
9
9
9
9
9
9
9
9
9
9
9
9
9
9
9
9
9
9
9
9
9
1
1
1
1
1
1
1
1
1
1
1
1
1
1
1
1
1
1
1
1
1
1
1
1
1
1
1
1
1
1
1
1
1
1
1
1
1
1
1
1
1
1
1
1
1
1
1
1
1
1
1
1
1
1
1
1
1
1
1
1
1
1
1
1
1
1
1
1
1
1
1
1
1
1
1
1
1
1
1
1
1
1
1
1
1
1
1
1
1
1
1
1
1
1
1
1
1
1
1
1

CELL_DATA 200

VECTORS Vinf float
5.2041273035737685 21.54503117097536 -36.38790332417777
5.1904129651757644 21.593368051214167 -36.38958521623908
5.170549237170614 21.65079978894337 -36.391521811630035
5.153034024379982 21.714943152812804 -36.39392189947973
5.133651994801154 21.787093048045335 -36.39661828373597
5.112567450199215 21.86722033011559 -36.39960608316188
5.08998188071393 21.955290888931202 -36.40287839768444
5.066135470958688 22.0512659443363 -36.40642594974885
5.04130663851398 22.155102720771662 -36.41023676774444
5.015809263601037 22.266755526576585 -36.414295941074535
4.989987460678706 22.386177219957283 -36.41858547584403
4.964208004520539 22.5133209910768 -36.42308427562549
4.938850829849987 22.648142334707885 -36.427768262905
4.914298331049879 22.790601040001825 -36.43261064394305
4.8909244388967 22.94066299435545 -36.43758230419598
4.856339958129185 23.10043007673233 -36.442667139061605
4.83729069969149 23.2644618131568 -36.448159201669
4.8190029480982055 23.436111345048744 -36.45382054992572
4.801750163701783 23.61536051422633 -36.45962656628912
4.78578791967955 23.80219742261144 -36.46555132278696
4.771349547868296 23.99661645036227 -36.471568103533855
4.758644389384122 24.19861776552713 -36.47764988648232
4.747858309134728 24.408206466342634 -36.48376974939814
4.735248889816323 24.625105333127646 -36.49067247830799
4.728473823603432 24.849861888391356 -36.49687187696751
4.722750313421566 25.082374836987775 -36.503126589677
4.71818055667193 25.322663236925607 -36.50941239653222
4.714849564864474 25.57074941204232 -36.515705269417225
4.712828154649123 25.82665806004845 -36.52198146022483
4.70875422952466 26.089610971654615 -36.52901754794608
4.710051301180646 26.359620573777594 -36.53603380117729
4.712364443847156 26.637498714025927 -36.543051399951736
4.715839450941106 26.923262501553392 -36.550041877094316
4.720631288339199 27.216929681510827 -36.556975329458744
4.7269188996447005 27.51752822558061 -36.56446998752954
4.734770304269712 27.826457109244547 -36.57160295935007
4.744090718265234 28.143075321371153 -36.57880677487854
4.754988769148198 28.467394563737084 -36.58606453278867
4.766692375462214 28.801211277018783 -36.59193493847868
4.781891937541973 29.140532649433236 -36.59916721247151
4.79875915880297 29.48762810261915 -36.60639967347706
4.816908607595869 29.84256695090735 -36.61363993645746
4.835030454693292 30.205318169003828 -36.62105937241902
4.853042840084977 30.57625606651249 -36.62841754462515
4.86965447002133 30.955272058285768 -36.63596531140575
4.88360246500067 31.34249037146981 -36.643769276138286
4.896217401171233 31.738374108068587 -36.65104516977307
4.903718310755238 32.14187446381784 -36.65936588846084
4.907840109476941 32.553479615019974 -36.66803739442065
4.909543943374704 32.973103862606 -36.67702732298908
4.910820491597222 33.18021383429859 -36.89332891918371
4.9121127800665745 33.17099425766348 -37.312906233225654
4.911140704999098 33.16210269590843 -37.72484670685568
4.906791575987594 33.153562357299165 -38.12928242841784
4.898606377815397 33.14535847678204 -38.52629227847331
4.886892897124932 33.137444169514055 -38.91588059672226
4.872556626846024 33.12975536228743 -39.29798566433588
4.856776382738325 33.12222729869567 -39.672507970377346
4.840689133945708 33.114806618259635 -40.039341716960664
4.825189222578991 33.107456816742484 -40.39839735523145
4.810861052171728 33.10015812423628 -40.74961143898087
4.798007698891342 33.09290420265687 -41.09294643130534
4.786723807436883 33.08569787283398 -41.428385249138515
4.776973761089893 33.078547232158044 -41.75592451112398
4.768655416270846 33.07146271033902 -42.07556867137669
4.76164430105652 33.064455104101654 -42.387325747540515
4.75582066890677 33.05753441411599 -42.69120454613386
4.751084115011399 33.0507092636789 -42.98721301131615
4.7473601959074445 33.043986707259215 -43.27535732288529
4.7446023914566755 33.037372281755395 -43.55564146110147
4.742791635526787 33.03087019347576 -43.828067049392295
4.741934776748415 33.02448356621235 -44.09263335391217
4.742062722482097 33.018214702123224 -44.349337363254
4.74322859654795 33.01206532890088 -44.5981739025232
4.7455059256030125 33.00603682402996 -44.83913576254515
4.748986605451604 33.000130419377655 -45.07221385180914
4.753778173950391 32.9943473963404 -45.29739740538966
4.7599997660547775 32.98868928308921 -45.514674306314866
4.767776117214806 32.983158061309645 -45.724031582704185
4.777229180008747 32.977756381226726 -45.92545613103637
4.788467344026411 32.97248777266257 -46.11893567955278
4.80157283829129 32.967356829366835 -46.30445995123966
4.816588507176433 32.96236933722779 -46.48202192611155
4.833505604351966 32.95753231689271 -46.65161905483802
4.852254390073904 32.95285395881558 -46.81325425554649
4.872699075039406 32.948343442627895 -46.96693654089591
4.894638070568812 32.94401064994573 -47.11268117093487
4.917809717484448 32.93986579624856 -47.25050929725801
4.941902859823136 32.935919019611426 -47.38044713887674
4.966570978226656 32.93217996944991 -47.50252479366883
4.99144821728573 32.92865743654736 -47.61677482966372
5.016165568175225 32.925359057598875 -47.72323081319053
5.040365666698219 32.92229111564178 -47.82192591825042
5.063715053129742 32.91945844465321 -47.91289173029657
5.0859132122652655 32.91686443460999 -47.99615731688066
5.106698177155249 32.91451112399787 -48.07174859582875
5.125848871130153 32.9123993608748 -48.139687995182115
5.143184644147252 32.910529011054756 -48.19999437178221
5.158562623761137 32.90889919228759 -48.25268313824208
5.171873561128356 32.90750851556589 -48.297766540336944
5.2041273035737685 21.54503117097536 -36.38790332417777
5.1904129651757644 21.593368051214167 -36.38958521623908
5.170549237170614 21.65079978894337 -36.391521811630035
5.153034024379982 21.714943152812804 -36.39392189947973
5.133651994801154 21.787093048045335 -36.39661828373597
5.112567450199215 21.86722033011559 -36.39960608316188
5.08998188071393 21.955290888931202 -36.40287839768444
5.066135470958688 22.0512659443363 -36.40642594974885
5.04130663851398 22.155102720771662 -36.41023676774444
5.015809263601037 22.266755526576585 -36.414295941074535
4.989987460678706 22.386177219957283 -36.41858547584403
4.964208004520539 22.5133209910768 -36.42308427562549
4.938850829849987 22.648142334707885 -36.427768262905
4.914298331049879 22.790601040001825 -36.43261064394305
4.8909244388967 22.94066299435545 -36.43758230419598
4.856339958129185 23.10043007673233 -36.442667139061605
4.83729069969149 23.2644618131568 -36.448159201669
4.8190029480982055 23.436111345048744 -36.45382054992572
4.801750163701783 23.61536051422633 -36.45962656628912
4.78578791967955 23.80219742261144 -36.46555132278696
4.771349547868296 23.99661645036227 -36.471568103533855
4.758644389384122 24.19861776552713 -36.47764988648232
4.747858309134728 24.408206466342634 -36.48376974939814
4.735248889816323 24.625105333127646 -36.49067247830799
4.728473823603432 24.849861888391356 -36.49687187696751
4.722750313421566 25.082374836987775 -36.503126589677
4.71818055667193 25.322663236925607 -36.50941239653222
4.714849564864474 25.57074941204232 -36.515705269417225
4.712828154649123 25.82665806004845 -36.52198146022483
4.70875422952466 26.089610971654615 -36.52901754794608
4.710051301180646 26.359620573777594 -36.53603380117729
4.712364443847156 26.637498714025927 -36.543051399951736
4.715839450941106 26.923262501553392 -36.550041877094316
4.720631288339199 27.216929681510827 -36.556975329458744
4.7269188996447005 27.51752822558061 -36.56446998752954
4.734770304269712 27.826457109244547 -36.57160295935007
4.744090718265234 28.143075321371153 -36.57880677487854
4.754988769148198 28.467394563737084 -36.58606453278867
4.766692375462214 28.801211277018783 -36.59193493847868
4.781891937541973 29.140532649433236 -36.59916721247151
4.79875915880297 29.48762810261915 -36.60639967347706
4.816908607595869 29.84256695090735 -36.61363993645746
4.835030454693292 30.205318169003828 -36.62105937241902
4.853042840084977 30.57625606651249 -36.62841754462515
4.86965447002133 30.955272058285768 -36.63596531140575
4.88360246500067 31.34249037146981 -36.643769276138286
4.896217401171233 31.738374108068587 -36.65104516977307
4.903718310755238 32.14187446381784 -36.65936588846084
4.907840109476941 32.553479615019974 -36.66803739442065
4.909543943374704 32.973103862606 -36.67702732298908
4.910820491597222 33.18021383429859 -36.89332891918371
4.9121127800665745 33.17099425766348 -37.312906233225654
4.911140704999098 33.16210269590843 -37.72484670685568
4.906791575987594 33.153562357299165 -38.12928242841784
4.898606377815397 33.14535847678204 -38.52629227847331
4.886892897124932 33.137444169514055 -38.91588059672226
4.872556626846024 33.12975536228743 -39.29798566433588
4.856776382738325 33.12222729869567 -39.672507970377346
4.840689133945708 33.114806618259635 -40.039341716960664
4.825189222578991 33.107456816742484 -40.39839735523145
4.810861052171728 33.10015812423628 -40.74961143898087
4.798007698891342 33.09290420265687 -41.09294643130534
4.786723807436883 33.08569787283398 -41.428385249138515
4.776973761089893 33.078547232158044 -41.75592451112398
4.768655416270846 33.07146271033902 -42.07556867137669
4.76164430105652 33.064455104101654 -42.387325747540515
4.75582066890677 33.05753441411599 -42.69120454613386
4.751084115011399 33.0507092636789 -42.98721301131615
4.7473601959074445 33.043986707259215 -43.27535732288529
4.7446023914566755 33.037372281755395 -43.55564146110147
4.742791635526787 33.03087019347576 -43.828067049392295
4.741934776748415 33.02448356621235 -44.09263335391217
4.742062722482097 33.018214702123224 -44.349337363254
4.74322859654795 33.01206532890088 -44.5981739025232
4.7455059256030125 33.00603682402996 -44.83913576254515
4.748986605451604 33.000130419377655 -45.07221385180914
4.753778173950391 32.9943473963404 -45.29739740538966
4.7599997660547775 32.98868928308921 -45.514674306314866
4.767776117214806 32.983158061309645 -45.724031582704185
4.777229180008747 32.977756381226726 -45.92545613103637
4.788467344026411 32.97248777266257 -46.11893567955278
4.80157283829129 32.967356829366835 -46.30445995123966
4.816588507176433 32.96236933722779 -46.48202192611155