# vtk DataFile Version 4.0
[MyVLM domain - lattices] 
ASCII
DATASET UNSTRUCTURED_GRID
POINTS 302 float
0.03418245623128624 -5.592664236925371 -3.0924866877528254
0.0340581563904452 -5.59350063861807 -3.098830539851036
0.033911025966592546 -5.5944906651114685 -3.106339589273407
0.033741064959728256 -5.595634316405566 -3.1150138360199398
0.03354827336985236 -5.596931592500364 -3.1248532800906337
0.03333265119696484 -5.598382493395861 -3.1358579214854885
0.0330941984410657 -5.599987019092058 -3.148027760204504
0.03283291510215494 -5.6017451695889555 -3.161362796247681
0.03254880118023256 -5.603656944886552 -3.175863029615019
0.03224185667529856 -5.605722344984848 -3.191528460306518
0.03191208158735294 -5.607941369883845 -3.2083590883221786
0.0315594759163957 -5.61031401958354 -3.226354913662
0.031184039662426853 -5.612840294083936 -3.2455159363259822
0.030785772825446374 -5.615520193385031 -3.2658421563141258
0.03036467540545427 -5.618353717486826 -3.2873335736264298
0.029920747402450557 -5.621340866389321 -3.309990188262896
0.02945398881643522 -5.624481640092515 -3.3338120002235225
0.028964399647408254 -5.6277760385964095 -3.358799009508311
0.028451979895369683 -5.631224061901003 -3.3849512161172597
0.027916729560319486 -5.634825710006297 -3.4122686200503693
0.02735864864225767 -5.63858098291229 -3.4407512213076408
0.02677773714118423 -5.642489880618983 -3.470399019889073
0.02617399505709918 -5.6465524031263765 -3.5012120157946662
0.025547422390002503 -5.650768550434469 -3.5331902090244207
0.02489801913989421 -5.655138322543261 -3.566333599578336
0.024225785306774293 -5.659661719452753 -3.6006421874564127
0.02353072089064276 -5.664338741162945 -3.63611597265865
0.0228128258914996 -5.669169387673836 -3.6727549551850487
0.022072100309344832 -5.674153658985428 -3.710559135035609
0.02130854414417844 -5.679291555097719 -3.74952851221033
0.020522157396000423 -5.68458307601071 -3.789663086709212
0.019712940064810787 -5.6900282217244 -3.830962858532255
0.018880892150609535 -5.69562699223879 -3.873427827679459
0.018026013653396664 -5.70137938755388 -3.9170579941508246
0.01714830457317217 -5.707285407669669 -3.9618533579463513
0.016247764909936055 -5.713345052586159 -4.007813919066038
0.01532439466368832 -5.719558322303348 -4.054939677509887
0.01437819383442897 -5.725925216821237 -4.103230633277897
0.013409162422158002 -5.732445736139825 -4.152686786370067
0.012417300426875413 -5.739119880259113 -4.203308136786399
0.0114026078485812 -5.745947649179101 -4.255094684526892
0.01036508468727537 -5.752929042899789 -4.308046429591546
0.00930473094295792 -5.760064061421176 -4.362163371980361
0.008221546615628843 -5.767352704743264 -4.417445511693337
0.007115531705288156 -5.77479497286605 -4.4738928487304745
0.005986686211935843 -5.782390865789536 -4.5315053830917735
0.004835010135571912 -5.790140383513723 -4.5902831147772325
0.0036605034761963613 -5.798043526038609 -4.650226043786853
0.002463166233809198 -5.806100293364195 -4.711334170120635
0.0012429984084104085 -5.81431068549048 -4.773607493778577
0.0 -5.822674702417466 -4.8370460147606815
0.0012429984084104115 -5.886116375089926 -4.8287059372986825
0.002463166233809203 -5.948392792550035 -4.820519044932924
0.0036605034761963756 -6.009503954797792 -4.812485337663406
0.004835010135571928 -6.069449861833199 -4.804604815490129
0.005986686211935859 -6.128230513656254 -4.796877478413093
0.00711553170528817 -6.185845910266957 -4.789303326432298
0.008221546615628864 -6.24229605166531 -4.781882359547744
0.009304730942957935 -6.297580937851311 -4.77461457775943
0.010365084687275388 -6.351700568824961 -4.767499981067357
0.011402607848581223 -6.40465494458626 -4.760538569471525
0.012417300426875435 -6.456444065135207 -4.753730342971934
0.01340916242215803 -6.507067930471801 -4.747075301568584
0.014378193834428999 -6.556526540596047 -4.740573445261474
0.015324394663688356 -6.604819895507941 -4.734224774050605
0.01624776490993609 -6.6519479952074825 -4.7280292879359775
0.0171483045731722 -6.697910839694674 -4.721986986917591
0.0180260136533967 -6.742708428969511 -4.716097870995444
0.018880892150609573 -6.786340763032 -4.7103619401695385
0.019712940064810832 -6.828807841882137 -4.704779194439873
0.020522157396000468 -6.870109665519922 -4.69934963380645
0.02130854414417848 -6.910246233945356 -4.694073258269266
0.022072100309344873 -6.949217547158438 -4.688950067828324
0.022812825891499647 -6.98702360515917 -4.683980062483622
0.023530720890642804 -7.02366440794755 -4.679163242235162
0.02422578530677434 -7.059139955523579 -4.674499607082941
0.02489801913989426 -7.093450247887255 -4.669989157026962
0.02554742239000255 -7.126595285038583 -4.665631892067224
0.026173995057099237 -7.1585750669775585 -4.661427812203726
0.026777737141184293 -7.189389593704181 -4.657376917436469
0.027358648642257732 -7.2190388652184545 -4.653479207765454
0.027916729560319542 -7.247522881520375 -4.649734683190679
0.02845197989536974 -7.274841642609944 -4.646143343712144
0.028964399647408313 -7.300995148487162 -4.642705189329851
0.029453988816435274 -7.3259833991520305 -4.639420220043798
0.02992074740245062 -7.3498063946045455 -4.636288435853986
0.030364675405454334 -7.37246413484471 -4.633309836760414
0.03078577282544643 -7.3939566198725215 -4.630484422763084
0.031184039662426916 -7.414283849687985 -4.6278121938619945
0.03155947591639577 -7.433445824291095 -4.625293150057146
0.031912081587353015 -7.451442543681854 -4.622927291348538
0.03224185667529863 -7.468274007860262 -4.620714617736171
0.03254880118023263 -7.483940216826317 -4.618655129220045
0.03283291510215501 -7.498441170580024 -4.616748825800159
0.03309419844106577 -7.511776869121378 -4.614995707476514
0.0333326511969649 -7.52394731245038 -4.613395774249111
0.03354827336985242 -7.534952500567032 -4.611949026117948
0.033741064959728326 -7.54479243347133 -4.610655463083025
0.03391102596659261 -7.55346711116328 -4.609515085144343
0.03405815639044527 -7.560976533642878 -4.608527892301903
0.03418245623128631 -7.567320700910123 -4.607693884555703
0.047855438723800756 -5.895591343525484 -2.6977043963102583
0.04773113888295972 -5.896427745218182 -2.704048248408469
0.04758400845910706 -5.897417771711581 -2.71155729783084
0.04741404745224277 -5.898561423005679 -2.720231544577373
0.047221255862366876 -5.899858699100476 -2.7300709886480665
0.047005633689479354 -5.901309599995974 -2.7410756300429213
0.04676718093358022 -5.902914125692171 -2.7532454687619374
0.04650589759466945 -5.904672276189068 -2.7665805048051144
0.046221783672747076 -5.906584051486664 -2.781080738172452
0.045914839167813075 -5.908649451584961 -2.7967461688639514
0.045585064079867454 -5.910868476483957 -2.8135767968796115
0.04523245840891022 -5.913241126183653 -2.831572622219433
0.04485702215494136 -5.915767400684048 -2.850733644883415
0.04445875531796089 -5.918447299985144 -2.8710598648715586
0.04403765789796879 -5.921280824086939 -2.892551282183863
0.04359372989496507 -5.924267972989433 -2.9152078968203288
0.043126971308949734 -5.927408746692628 -2.9390297087809554
0.042637382139922776 -5.930703145196523 -2.9640167180657437
0.0421249623878842 -5.934151168501116 -2.9901689246746925
0.041589712052834 -5.93775281660641 -3.017486328607802
0.041031631134772185 -5.9415080895124035 -3.0459689298650736
0.04045071963369875 -5.9454169872190965 -3.075616728446506
0.039846977549613694 -5.949479509726489 -3.106429724352099
0.03922040488251701 -5.953695657034582 -3.138407917581854
0.03857100163240872 -5.958065429143374 -3.171551308135769
0.0378987677992888 -5.962588826052866 -3.2058598960138456
0.03720370338315728 -5.967265847763057 -3.241333681216083
0.03648580838401412 -5.972096494273949 -3.2779726637424824
0.03574508280185935 -5.977080765585541 -3.3157768435930417
0.034981526636692954 -5.982218661697831 -3.354746220767763
0.034195139888514935 -5.987510182610822 -3.3948807952666455
0.0333859225573253 -5.992955328324513 -3.436180567089688
0.032553874643124044 -5.998554098838903 -3.4786455362368924
0.03169899614591118 -6.004306494153992 -3.522275702708258
0.030821287065686685 -6.0102125142697815 -3.567071066503784
0.02992074740245057 -6.016272159186271 -3.6130316276234717
0.02899737715620284 -6.02248542890346 -3.66015738606732
0.028051176326943487 -6.028852323421349 -3.7084483418353296
0.027082144914672517 -6.035372842739938 -3.757904494927501
0.026090282919389925 -6.042046986859226 -3.8085258453438318
0.025075590341095716 -6.048874755779214 -3.860312393084325
0.024038067179789884 -6.055856149499902 -3.9132641381489788
0.022977713435472433 -6.062991168021289 -3.9673810805377943
0.021894529108143358 -6.070279811343376 -4.02266322025077
0.02078851419780267 -6.077722079466163 -4.079110557287908
0.019659668704450357 -6.0853179723896496 -4.136723091649206
0.018507992628086428 -6.093067490113835 -4.195500823334665
0.017333485968710878 -6.100970632638722 -4.255443752344286
0.016136148726323712 -6.109027399964308 -4.316551878678068
0.014915980900924922 -6.117237792090593 -4.378825202336011
0.013672982492514515 -6.125601809017579 -4.442263723318114
0.014915980900924927 -6.189043481690039 -4.433923645856115
0.01613614872632372 -6.251319899150148 -4.425736753490357
0.01733348596871089 -6.3124310613979056 -4.417703046220839
0.01850799262808644 -6.372376968433311 -4.409822524047563
0.019659668704450375 -6.431157620256367 -4.402095186970526
0.020788514197802685 -6.4887730168670705 -4.394521034989731
0.021894529108143376 -6.545223158265423 -4.387100068105177
0.02297771343547245 -6.600508044451424 -4.379832286316863
0.0240380671797899 -6.654627675425075 -4.372717689624791
0.025075590341095737 -6.707582051186373 -4.365756278028958
0.02609028291938995 -6.759371171735319 -4.358948051529367
0.027082144914672538 -6.809995037071914 -4.352293010126017
0.028051176326943508 -6.85945364719616 -4.345791153818907
0.028997377156202868 -6.907747002108052 -4.339442482608038
0.0299207474024506 -6.954875101807596 -4.33324699649341
0.030821287065686716 -7.000837946294785 -4.327204695475023
0.03169899614591122 -7.045635535569624 -4.321315579552877
[...]
CELL_DATA 200

VECTORS Vinf float
5.173054868911903 -16.618661702532474 38.885906568671224
5.15901229357581 -16.66704360329951 38.89366056879489
5.142796349401581 -16.723479478318033 38.9027270398338
5.124518270881181 -16.787927187188266 38.91310792691612
5.104319553842924 -16.860337181886123 38.924804264707916
5.082375266610945 -16.940652425006757 38.937815812470845
5.058896248884295 -17.028808561851044 38.95214072423085
5.034129734316761 -17.124734408072936 38.96777528533065
5.008357992033368 -17.228352794491705 38.98471374710947
4.981894707961629 -17.339581779221433 39.00294828839192
4.955079022412545 -17.45833619552889 39.0224691251272
4.928267396407888 -17.584529455412547 39.043264777689615
4.90715174533942 -17.71190076876331 39.067334504901325
4.882170231884022 -17.85233338985365 39.09076843214865
4.858095118259809 -18.000210334454515 39.11537451231967
4.835167372717929 -18.15550883865597 39.14113220105889
4.8135862445679285 -18.318215474401704 39.16802230905363
4.793505122759357 -18.488326065583347 39.19602751167332
4.775030781601488 -18.665844958051363 39.225132712610765
4.758225925017385 -18.85078374209536 39.25532523745792
4.743114499944562 -19.0431595977646 39.286594856055515
4.729688922407774 -19.24299347257875 39.318933653630644
4.7179182179957255 -19.4503082991537 39.35233578549557
4.707756143000342 -19.66512741984537 39.386797155638234
4.69914858655443 -19.887473320070853 39.42231505593192
4.692039877029047 -20.117366700814692 39.45888779265194
4.686377932539993 -20.35482586232742 39.49651431482449
4.682118427858107 -20.59986633663918 39.535193848832996
4.679228258183583 -20.852500698332136 39.57492553845168
4.677688563208105 -21.11273849546482 39.61570808980992
4.677497456734701 -21.38058626683771 39.65753942594785
4.678672417045147 -21.656047640724168 39.700416364470385
4.679946490486553 -21.93965000041619 39.74451571065182
4.686094036409062 -22.232359608042064 39.788277253882754
4.693572165546623 -22.532179845748196 39.833308301819436
4.702455866238078 -22.839075394703197 39.87961477954329
4.712813076787198 -23.153011125776644 39.92720357344802
4.71700092247801 -23.46787353004538 39.97978558038648
4.7304197086321125 -23.797392729451275 40.02936321036215
4.745672404033722 -24.134307241702867 40.08002390178398
4.762544246343156 -24.478644123334515 40.13177937852022
4.780614292987687 -24.830448589512702 40.18465545446816
4.796570738531638 -25.188734172454858 40.23922997871528
4.814582941076061 -25.55636126626982 40.294388691604325
4.831405986491253 -25.93181630902141 40.350748518953864
4.8458779024053165 -26.31518968512052 40.408388028313865
4.857076547283456 -26.70653492978931 40.46737784806338
4.863200846631763 -27.105882604386245 40.527627329109954
4.867213315000137 -27.513555350195517 40.58933642664809
4.868720427757177 -27.929076915078035 40.65238548028096
4.8701845870874845 -28.106890476697654 40.893317975157096
4.872022565152668 -28.04383416094295 41.307614273371776
4.871857394320522 -27.98148479173589 41.71484850033841
4.867999710176927 -27.920881229509625 42.11430556609442
4.8603556401212185 -27.86169151542385 42.50639968983195
4.849299735765204 -27.803861197583956 42.89112400357519
4.835805028145687 -27.747328533904263 43.26840341971802
4.820453846631997 -27.691355992908104 43.63867851257946
4.805042171823631 -27.636720903880217 44.00110667058719
4.790212057214216 -27.583150237268622 44.35584707550715
4.7765460231157055 -27.53063285657357 44.70283423839505
4.764345570470032 -27.47916743253139 45.04203013235488
4.753703341269958 -27.428758950314233 45.37341819736176
4.7445811738486094 -27.379415805028376 45.69699606309114
4.736874197526884 -27.331147725350426 46.012769268375585
4.730455542911229 -27.28396445083601 46.32074672959556
4.72520377666826 -27.237874982275795 46.620937857716825
4.7210176406376085 -27.192887227709246 46.91335091314022
4.717822561545097 -27.149007906316513 47.197992173186286
4.715572379068101 -27.106242612361886 47.47486558315945
4.714248630907674 -27.064595971369656 47.74397267105438
4.713858823035392 -27.024071841996093 48.00531259218558
4.714434451135755 -26.984673533043633 48.25888222884503
4.716029083147355 -26.946404017739347 48.50467630875998
4.718716491817413 -26.909266137127577 48.742687534002606
4.722588576361932 -26.87326279082435 48.97290673594955
4.72775260519208 -26.838397116073995 49.19532309413268
4.735930683390023 -26.80354536988446 49.41047741180607
4.743765541419634 -26.77032196739537 49.617582787693365
4.75338050959532 -26.738437901108234 49.81675091085857
4.764837629953125 -26.70788038662844 50.007982493071026
4.778179024381924 -26.678638036764898 50.19127944515578
4.793413758966232 -26.65070083510474 50.366646142918626
4.810505677509596 -26.62406003015259 50.53409063640829
4.829363959890913 -26.59870795138465 50.693625635222226
4.849837918999883 -26.574637759950686 50.84526912012217
4.871716975199403 -26.551843156988255 50.989044481028934
4.8944488633770264 -26.531445013212444 51.124102231877615
4.918654147916759 -26.510686485366907 51.25239587764009
4.943417919621111 -26.49115075042896 51.37292670966328
4.968376385106696 -26.47284269053158 51.485727750779546
4.993162568264098 -26.45576589276444 51.59083288910295
5.017421017474586 -26.439922630800748 51.68827547962316
5.040819995658688 -26.42531392474866 51.77808715026058
5.063060474201811 -26.411939666097506 51.86029688357677
5.083881714019726 -26.39979879085924 51.93493040291605
5.103063605941391 -26.388889482906773 52.00200985504389
5.120426222572708 -26.379209390570267 52.0615537540097
5.1358271973754865 -26.370755842062387 52.11357713405903
5.149157606719501 -26.36352604855047 52.15809185207473
5.173054868911903 -16.618661702532474 38.885906568671224
5.15901229357581 -16.66704360329951 38.89366056879489
5.142796349401581 -16.723479478318033 38.9027270398338
5.124518270881181 -16.787927187188266 38.91310792691612
5.104319553842924 -16.860337181886123 38.924804264707916
5.082375266610945 -16.940652425006757 38.937815812470845
5.058896248884295 -17.028808561851044 38.95214072423085
5.034129734316761 -17.124734408072936 38.96777528533065
5.008357992033368 -17.228352794491705 38.98471374710947
4.981894707961629 -17.339581779221433 39.00294828839192
4.955079022412545 -17.45833619552889 39.0224691251272
4.928267396407888 -17.584529455412547 39.043264777689615
4.90715174533942 -17.71190076876331 39.067334504901325
4.882170231884022 -17.85233338985365 39.09076843214865
4.858095118259809 -18.000210334454515 39.11537451231967
4.835167372717929 -18.15550883865597 39.14113220105889
4.8135862445679285 -18.318215474401704 39.16802230905363
4.793505122759357 -18.488326065583347 39.19602751167332
4.775030781601488 -18.665844958051363 39.225132712610765
4.758225925017385 -18.85078374209536 39.25532523745792
4.743114499944562 -19.0431595977646 39.286594856055515
4.729688922407774 -19.24299347257875 39.318933653630644
4.7179182179957255 -19.4503082991537 39.35233578549557
4.707756143000342 -19.66512741984537 39.386797155638234
4.69914858655443 -19.887473320070853 39.42231505593192
4.692039877029047 -20.117366700814692 39.45888779265194
4.686377932539993 -20.35482586232742 39.49651431482449
4.682118427858107 -20.59986633663918 39.535193848832996
4.679228258183583 -20.852500698332136 39.57492553845168
4.677688563208105 -21.11273849546482 39.61570808980992
4.677497456734701 -21.38058626683771 39.65753942594785
4.678672417045147 -21.656047640724168 39.700416364470385
4.679946490486553 -21.93965000041619 39.74451571065182
4.686094036409062 -22.232359608042064 39.788277253882754
4.693572165546623 -22.532179845748196 39.833308301819436
4.702455866238078 -22.839075394703197 39.87961477954329
4.712813076787198 -23.153011125776644 39.92720357344802
4.71700092247801 -23.46787353004538 39.97978558038648
4.7304197086321125 -23.797392729451275 40.02936321036215
4.745672404033722 -24.134307241702867 40.08002390178398
4.762544246343156 -24.478644123334515 40.13177937852022
4.780614292987687 -24.830448589512702 40.18465545446816
4.796570738531638 -25.188734172454858 40.23922997871528
4.814582941076061 -25.55636126626982 40.294388691604325
4.831405986491253 -25.93181630902141 40.350748518953864
4.8458779024053165 -26.31518968512052 40.408388028313865
4.857076547283456 -26.70653492978931 40.46737784806338
4.863200846631763 -27.105882604386245 40.527627329109954
4.867213315000137 -27.513555350195517 40.58933642664809
4.868720427757177 -27.929076915078035 40.65238548028096
4.8701845870874845 -28.106890476697654 40.893317975157096
4.872022565152668 -28.04383416094295 41.307614273371776
4.871857394320522 -27.98148479173589 41.71484850033841
4.867999710176927 -27.920881229509625 42.11430556609442
4.8603556401212185 -27.86169151542385 42.50639968983195
4.849299735765204 -27.803861197583956 42.89112400357519
4.835805028145687 -27.747328533904263 43.26840341971802
4.820453846631997 -27.691355992908104 43.63867851257946
4.805042171823631 -27.636720903880217 44.00110667058719
4.790212057214216 -27.583150237268622 44.35584707550715
4.7765460231157055 -27.53063285657357 44.70283423839505
4.764345570470032 -27.47916743253139 45.04203013235488
4.753703341269958 -27.428758950314233 45.37341819736176
4.7445811738486094 -27.379415805028376 45.69699606309114
4.736874197526884 -27.331147725350426 46.012769268375585
4.730455542911229 -27.28396445083601 46.32074672959556
4.72520377666826 -27.237874982275795 46.620937857716825
4.7210176406376085 -27.192887227709246 46.91335091314022
4.717822561545097 -27.149007906316513 47.197992173186286
4.715572379068101 -27.106242612361886 47.47486558315945
4.714248630907674 -27.064595971369656 47.74397267105438
4.713858823035392 -27.024071841996093 48.00531259218558
4.714434451135755 -26.984673533043633 48.25888222884503
4.716029083147355 -26.946404017739347 48.50467630875998
4.718716491817413 -26.909266137127577 48.742687534002606
4.722588576361932 -26.87326279082435 48.97290673594955
4.72775260519208 -26.838397116073995 49.19532309413268
4.735930683390023 -26.80354536988446 49.41047741180607
4.743765541419634 -26.77032196739537 49.617582787693365
4.75338050959532 -26.738437901108234 49.81675091085857
4.764837629953125 -26.70788038662844 50.007982493071026
4.778179024381924 -26.678638036764898 50.19127944515578
4.793413758966232 -26.65070083510474 50.366646142918626
4.810505677509596 -26.62406003015259 50.53409063640829
4.829363959890913 -26.59870795138465 50.693625635222226
4.849837918999883 -26.574637759950686 50.84526912012217
4.871716975199403 -26.551843156988255 50.989044481028934
4.8944488633770264 -26.531445013212444 51.124102231877615
4.918654147916759 -26.510686485366907 51.25239587764009
4.943417919621111 -26.49115075042896 51.37292670966328
4.968376385106696 -26.47284269053158 51.485727750779546
4.993162568264098 -26.45576589276444 51.59083288910295
5.017421017474586 -26.439922630800748 51.68827547962316
5.040819995658688 -26.42531392474866 51.77808715026058
5.063060474201811 -26.411939666097506 51.86029688357677
5.083881714019726 -26.39979879085924 51.93493040291605
5.103063605941391 -26.388889482906773 52.00200985504389
5.120426222572708 -26.379209390570267 52.0615537540097
5.1358271973754865 -26.370755842062387 52.11357713405903
5.149157606719501 -26.36352604855047 52.15809185207473

VECTORS L float
0.057719656550104255 0.0 0.0
0.10436533046100543 0.0 0.0
0.15495927874632343 0.0 0.0
0.21120368078024843 0.0 0.0
0.27358328201924187 0.0 0.0
0.3422538085135806 0.0 0.0
0.41723405546332903 0.0 0.0
0.49846412347460184 0.0 0.0
0.5858264692989734 0.0 0.0
0.679153925329101 0.0 0.0
0.7782398754354215 0.0 0.0
0.8828275246626283 0.0 0.0
0.9926792300825598 0.0 0.0
1.1074021922705453 0.0 0.0
1.2266547007538426 0.0 0.0
1.3500668565258922 0.0 0.0
1.4772591983558192 0.0 0.0
1.6078668279559087 0.0 0.0
1.7415248697894568 0.0 0.0
1.8778904601277686 0.0 0.0
2.016643219172232 0.0 0.0
2.1574855488111275 0.0 0.0
2.3001130880997724 0.0 0.0
2.444414560067964 0.0 0.0
2.5901223491366063 0.0 0.0
2.7370305727980457 0.0 0.0
2.884958123868683 0.0 0.0
3.033741117709091 0.0 0.0
3.1832271898256836 0.0 0.0
3.3332700510365263 0.0 0.0
3.4837067702042908 0.0 0.0
3.6344002421200345 0.0 0.0
3.785162884884645 0.0 0.0
3.9359414303591276 0.0 0.0
4.086376039928694 0.0 0.0
4.236102581853566 0.0 0.0
4.384689877354724 0.0 0.0
4.531363938550552 0.0 0.0
4.676158187552115 0.0 0.0
4.818091302024636 0.0 0.0
4.956133013081173 0.0 0.0
5.089039597661297 0.0 0.0
5.215246169605415 0.0 0.0
5.3334932538899755 0.0 0.0
5.442052739091994 0.0 0.0
5.539473093163428 0.0 0.0
5.625055059561277 0.0 0.0
5.699871485109026 0.0 0.0
5.769528425607256 0.0 0.0
5.858179601675969 0.0 0.0
6.109075136545543 0.0 0.0
6.137734679569514 0.0 0.0
6.182596848572518 0.0 0.0
6.21892778360041 0.0 0.0
6.240491504016935 0.0 0.0
6.245265658470037 0.0 0.0
6.233188771211004 0.0 0.0
6.205007533430815 0.0 0.0
6.162030437707541 0.0 0.0
6.105490619528457 0.0 0.0
6.036839766596116 0.0 0.0
5.95712903739091 0.0 0.0
5.867286719760357 0.0 0.0
5.768081547373838 0.0 0.0
5.660141423543115 0.0 0.0
5.54404116439166 0.0 0.0
5.420187066779919 0.0 0.0
5.288979403369131 0.0 0.0
5.15076591231043 0.0 0.0
5.005869827940741 0.0 0.0
4.854589336365033 0.0 0.0
4.697109004902808 0.0 0.0
4.53448386863782 0.0 0.0
4.366173618175864 0.0 0.0
4.1927697872114384 0.0 0.0
4.014712459423374 0.0 0.0
3.8324489653644105 0.0 0.0
3.6465020855953716 0.0 0.0
3.457320378056363 0.0 0.0
3.2655586399708727 0.0 0.0
3.071938058116252 0.0 0.0
2.877008037350296 0.0 0.0
2.6815768265089677 0.0 0.0
2.486475257959524 0.0 0.0
2.2925833817650547 0.0 0.0
2.1008252067355633 0.0 0.0
1.912145661297124 0.0 0.0
1.7275040094061542 0.0 0.0
1.5478597005085186 0.0 0.0
1.3741243233905367 0.0 0.0
1.207166662493979 0.0 0.0
1.0477937540461182 0.0 0.0
0.8967440729554865 0.0 0.0
0.7546693316879657 0.0 0.0
0.6221177369392735 0.0 0.0
0.49952465590673706 0.0 0.0
0.38716084481299606 0.0 0.0
0.2850192553525297 0.0 0.0
0.1924496560942005 0.0 0.0
0.10647815767951377 0.0 0.0
0.057719656550104255 0.0 0.0
0.10436533046100543 0.0 0.0
0.15495927874632343 0.0 0.0
0.21120368078024843 0.0 0.0
0.27358328201924187 0.0 0.0
0.3422538085135806 0.0 0.0
0.41723405546332903 0.0 0.0
0.49846412347460184 0.0 0.0
0.5858264692989734 0.0 0.0
0.679153925329101 0.0 0.0
0.7782398754354215 0.0 0.0
0.8828275246626283 0.0 0.0
0.9926792300825598 0.0 0.0
1.1074021922705453 0.0 0.0
1.2266547007538426 0.0 0.0
1.3500668565258922 0.0 0.0
1.4772591983558192 0.0 0.0
1.6078668279559087 0.0 0.0
1.7415248697894568 0.0 0.0
1.8778904601277686 0.0 0.0
2.016643219172232 0.0 0.0
2.1574855488111275 0.0 0.0
2.3001130880997724 0.0 0.0
2.444414560067964 0.0 0.0
2.5901223491366063 0.0 0.0
2.7370305727980457 0.0 0.0
2.884958123868683 0.0 0.0
3.033741117709091 0.0 0.0
3.1832271898256836 0.0 0.0
3.3332700510365263 0.0 0.0
3.4837067702042908 0.0 0.0
3.6344002421200345 0.0 0.0
3.785162884884645 0.0 0.0
3.9359414303591276 0.0 0.0
4.086376039928694 0.0 0.0
4.236102581853566 0.0 0.0
4.384689877354724 0.0 0.0
4.531363938550552 0.0 0.0
4.676158187552115 0.0 0.0
4.818091302024636 0.0 0.0
4.956133013081173 0.0 0.0
5.089039597661297 0.0 0.0
5.215246169605415 0.0 0.0
5.3334932538899755 0.0 0.0
5.442052739091994 0.0 0.0
5.539473093163428 0.0 0.0
5.625055059561277 0.0 0.0
5.699871485109026 0.0 0.0
5.769528425607256 0.0 0.0
5.858179601675969 0.0 0.0
6.109075136545543 0.0 0.0
6.137734679569514 0.0 0.0
6.182596848572518 0.0 0.0
6.21892778360041 0.0 0.0
6.240491504016935 0.0 0.0
6.245265658470037 0.0 0.0
6.233188771211004 0.0 0.0
6.205007533430815 0.0 0.0
6.162030437707541 0.0 0.0
6.105490619528457 0.0 0.0
6.036839766596116 0.0 0.0
5.95712903739091 0.0 0.0
5.867286719760357 0.0 0.0
5.768081547373838 0.0 0.0
5.660141423543115 0.0 0.0
5.54404116439166 0.0 0.0
5.420187066779919 0.0 0.0
5.288979403369131 0.0 0.0
5.15076591231043 0.0 0.0
5.005869827940741 0.0 0.0
4.854589336365033 0.0 0.0
4.697109004902808 0.0 0.0
4.53448386863782 0.0 0.0
4.366173618175864 0.0 0.0
4.1927697872114384 0.0 0.0
4.014712459423374 0.0 0.0
3.8324489653644105 0.0 0.0
3.6465020855953716 0.0 0.0
3.457320378056363 0.0 0.0
3.2655586399708727 0.0 0.0
3.071938058116252 0.0 0.0
2.877008037350296 0.0 0.0
2.6815768265089677 0.0 0.0
2.486475257959524 0.0 0.0
2.2925833817650547 0.0 0.0
2.1008252067355633 0.0 0.0
1.912145661297124 0.0 0.0
1.7275040094061542 0.0 0.0
1.5478597005085186 0.0 0.0
1.3741243233905367 0.0 0.0
1.207166662493979 0.0 0.0
1.0477937540461182 0.0 0.0
0.8967440729554865 0.0 0.0
0.7546693316879657 0.0 0.0
0.6221177369392735 0.0 0.0
0.49952465590673706 0.0 0.0
0.38716084481299606 0.0 0.0
0.2850192553525297 0.0 0.0
0.1924496560942005 0.0 0.0
0.10647815767951377 0.0 0.0

SCALARS Gamma float
LOOKUP_TABLE default
0.4175216171293545
0.6417380158020946
0.825240422185631
0.9903494289889581
1.1445627766117816
1.291172985650984
1.4318005953692907
1.5672634218729249
1.697944740923754
1.8239723489047102
1.9453319548582855
2.061893821572289
2.173592620644935
2.2800727154666833
2.3811577857550623
2.476668109087719
2.566457007535274
2.650444461636746
2.7285827350103267
2.8008831842901327
2.8674056981589486
2.928249754696844
2.9835128289645354
3.0335266748559433
3.0784094975946013
3.118348789112724
3.153548836822116
3.1842193067873157
3.2105680179592784
3.2327953242394654
3.251074522301122
3.2655927586164997
3.276484678185808
3.2839883045590597
3.2880816433309237
3.2887556538848504
3.2859657630411183
3.2794486731346235
3.269539055016929
3.255868768436096
3.2380988070150876
3.2158160845283
3.1884858891413748
3.1558366997374656
3.117386795851985
3.072882503214681
3.0225039200640866
2.9672676363159507
2.9099697577975316
2.8576091201503275
2.851863501154494
2.8922098636428006
2.937011147363764
2.979563611656629
3.017363725766138
3.049459990840882
3.0757203536348654
3.096361141023011
3.1118594725314077
3.122654998064544
3.1293016126397197
3.132158410639662
3.131523623873857
3.1276135489233408
3.120568245535801
3.1104953698356157
3.097403866587713
3.081288688851102
3.062103320331925
3.0397725718113975
3.0141894224644603
2.9851564497568774
2.953005008455368
2.9170443966284623
2.8772590397228086
2.8335209859930206
2.7856822035101123
2.7336220575653307
2.677138204958465
2.616153084962335
2.5506235394146417
2.4803453260876536
2.405299871497434
2.3254793227969914
2.2409142015011803
2.1516785056550156
2.057877732679555
1.959651535934417
1.8571686499242315
1.7505775628060691
1.6400082650168686
1.5255406278700905
1.4071761809709842
1.284775887444395
1.1579645585936633
1.025989030816805
0.8873779112838271
0.7391645976575958
0.574620682725971
0.37375466687933695
0.4175216171293545
0.6417380158020946
0.825240422185631
0.9903494289889581
1.1445627766117816
1.291172985650984
1.4318005953692907
1.5672634218729249
1.697944740923754
1.8239723489047102
1.9453319548582855
2.061893821572289
2.173592620644935
2.2800727154666833
2.3811577857550623
2.476668109087719
2.566457007535274
2.650444461636746
2.7285827350103267
2.8008831842901327
2.8674056981589486
2.928249754696844
2.9835128289645354
3.0335266748559433
3.0784094975946013
3.118348789112724
3.153548836822116
3.1842193067873157
3.2105680179592784
3.2327953242394654
3.251074522301122
3.2655927586164997
3.276484678185808
3.2839883045590597
3.2880816433309237
3.2887556538848504
3.2859657630411183
3.2794486731346235
3.269539055016929
3.255868768436096
3.2380988070150876
3.2158160845283
3.1884858891413748
3.1558366997374656
3.117386795851985
3.072882503214681
3.0225039200640866
2.9672676363159507
2.9099697577975316
2.8576091201503275
2.851863501154494
2.8922098636428006
2.937011147363764
2.979563611656629
3.017363725766138
3.049459990840882
3.0757203536348654
3.096361141023011
3.1118594725314077
3.122654998064544
3.1293016126397197
3.132158410639662
3.131523623873857
3.1276135489233408
3.120568245535801
3.1104953698356157
3.097403866587713
3.081288688851102
3.062103320331925
3.0397725718113975
3.0141894224644603
2.9851564497568774
2.953005008455368
2.9170443966284623
2.8772590397228086
2.8335209859930206
2.7856822035101123
2.7336220575653307
2.677138204958465
2.616153084962335
2.5506235394146417
2.4803453260876536
2.405299871497434
2.3254793227969914