# vtk DataFile Version 4.0
[MyVLM domain - lattices] 
ASCII
DATASET UNSTRUCTURED_GRID
POINTS 302 float
0.034182456231286414 -4.276368862181322 4.482106880157177
0.03405815639044538 -4.282713029448567 4.481272872410976
0.03391102596659271 -4.290222451928164 4.480285679568532
0.03374106495972843 -4.298897129620112 4.479145301629848
0.033548273369852534 -4.308737062524411 4.477851738594923
0.03333265119696501 -4.319742250641062 4.476404990463756
0.03309419844106587 -4.3319126939700645 4.474805057236348
0.03283291510215511 -4.345248392511418 4.4730519389126995
0.03254880118023273 -4.359749346265122 4.471145635492809
0.032241856675298726 -4.375415555231178 4.469086146976678
0.031912081587353106 -4.392247019409585 4.466873473364306
0.031559475916395865 -4.410243738800343 4.464507614655691
0.03118403966242701 -4.429405713403453 4.461988570850837
0.03078577282544653 -4.449732943218914 4.459316341949741
0.030364675405454428 -4.471225428246726 4.456490927952403
0.02992074740245071 -4.493883168486889 4.4535123288588245
0.02945398881643537 -4.517706163939403 4.450380544669005
0.028964399647408403 -4.54269441460427 4.447095575382944
0.02845197989536983 -4.5688479204814865 4.443657421000642
0.02791672956031963 -4.596166681571055 4.440066081522099
0.02735864864225781 -4.6246506978729744 4.4363215569473144
0.026777737141184366 -4.654299969387246 4.432423847276289
0.02617399505709931 -4.685114496113868 4.428372952509022
0.02554742239000263 -4.717094278052841 4.424168872645515
0.024898019139894336 -4.7502393152041655 4.419811607685766
0.024225785306774418 -4.7845496075678415 4.415301157629775
0.02353072089064288 -4.820025155143869 4.410637522477544
0.022812825891499716 -4.856665957932247 4.405820702229072
0.022072100309344943 -4.894472015932976 4.400850696884358
0.021308544144178543 -4.9334433291460575 4.395727506443403
0.020522157396000527 -4.97357989757149 4.390451130906207
0.019712940064810888 -5.014881721209274 4.3850215702727695
0.01888089215060963 -5.057348800059408 4.379438824543091
0.018026013653396754 -5.100981134121894 4.373702893717171
0.017148304573172256 -5.145778723396731 4.367813777795011
0.016247764909936135 -5.19174156788392 4.3617714767766085
0.015324394663688396 -5.23886966758346 4.355575990661966
0.014378193834429044 -5.287163022495351 4.3492273194510815
0.01340916242215807 -5.336621632619593 4.342725463143956
0.012417300426875475 -5.387245497956187 4.336070421740589
0.011402607848581258 -5.439034618505131 4.3292621952409815
0.010365084687275422 -5.491988994266427 4.322300783645132
0.009304730942957966 -5.546108625240074 4.315186186953042
0.008221546615628886 -5.601393511426073 4.307918405164711
0.007115531705288192 -5.657843652824423 4.300497438280138
0.005986686211935873 -5.715459049435124 4.292923286299325
0.004835010135571936 -5.774239701258176 4.2851959492222695
0.0036605034761963795 -5.83418560829358 4.277315427048973
0.0024631662338092104 -5.895296770541334 4.269281719779436
0.0012429984084104148 -5.95757318800144 4.2610948274136575
0.0 -6.021014860673898 4.252754749951638
0.0012429984084104087 -6.029378877600903 4.316193270933739
0.0024631662338091974 -6.037589269727209 4.378466594591679
0.003660503476196367 -6.045646037052814 4.439574720925458
0.0048350101355719155 -6.053549179577719 4.499517649935076
0.005986686211935845 -6.0612986973019245 4.558295381620533
0.007115531705288154 -6.06889459022543 4.615907915981829
0.008221546615628844 -6.076336858348235 4.672355253018964
0.009304730942957914 -6.0836255016703396 4.727637392731937
0.010365084687275363 -6.090760520191744 4.78175433512075
0.011402607848581197 -6.097741913912449 4.834706080185402
0.012417300426875407 -6.104569682832454 4.886492627925892
0.013409162422157995 -6.111243826951759 4.9371139783422215
0.014378193834428968 -6.117764346270363 4.986570131434391
0.01532439466368832 -6.124131240788267 5.034861087202398
0.01624776490993605 -6.130344510505471 5.081986845646244
0.017148304573172162 -6.1364041554219755 5.12794740676593
0.018026013653396657 -6.142310175537779 5.172742770561454
0.018880892150609535 -6.148062570852883 5.216372937032818
0.019712940064810787 -6.153661341367287 5.25883790618002
0.02052215739600042 -6.15910648708099 5.300137678003061
0.021308544144178432 -6.164398007993994 5.340272252501942
0.022072100309344825 -6.169535904106297 5.379241629676661
0.022812825891499598 -6.174520175417901 5.4170458095272185
0.023530720890642752 -6.1793508219288045 5.4536847920536164
0.024225785306774283 -6.184027843639007 5.489158577255852
0.024898019139894204 -6.18855124054851 5.523467165133927
0.025547422390002496 -6.1929210126573135 5.556610555687842
0.026173995057099168 -6.197137159965416 5.588588748917594
0.02677773714118423 -6.201199682472819 5.619401744823186
0.027358648642257663 -6.205108580179521 5.649049543404617
0.02791672956031948 -6.208863853085524 5.677532144661887
0.02845197989536967 -6.2124655011908265 5.704849548594996
0.02896439964740825 -6.215913524495429 5.731001755203943
0.029453988816435208 -6.219207922999331 5.75598876448873
0.029920747402450553 -6.222348696702533 5.779810576449356
0.03036467540545427 -6.225335845605035 5.802467191085821
0.030785772825446357 -6.228169369706837 5.823958608398124
0.031184039662426843 -6.230849269007939 5.844284828386267
0.0315594759163957 -6.23337554350834 5.8634458510502485
0.031912081587352946 -6.2357481932080425 5.881441676390069
0.03224185667529856 -6.237967218107044 5.898272304405729
0.03254880118023256 -6.240032618205345 5.913937735097226
0.03283291510215493 -6.241944393502946 5.928437968464564
0.03309419844106569 -6.243702543999848 5.941773004507741
0.033332651196964824 -6.245307069696048 5.953942843226756
0.03354827336985235 -6.24675797059155 5.96494748462161
0.03374106495972825 -6.24805524668635 5.974786928692303
0.03391102596659253 -6.249198897980451 5.983461175438835
0.034058156390445196 -6.250188924473852 5.990970224861207
0.03418245623128623 -6.251025326166553 5.997314076959417
0.04785543872380095 -3.973441755581337 4.876889171599841
0.047731138882959906 -3.9797859228485826 4.87605516385364
0.04758400845910725 -3.98729534532818 4.875067971011196
0.047414047452242966 -3.995970023020128 4.873927593072512
0.04722125586236706 -4.005809955924427 4.872634030037586
0.04700563368947954 -4.016815144041078 4.87118728190642
0.046767180933580406 -4.02898558737008 4.869587348679012
0.046505897594669644 -4.0423212859114335 4.8678342303553634
0.046221783672747256 -4.056822239665138 4.865927926935473
0.045914839167813255 -4.072488448631193 4.863868438419342
0.045585064079867635 -4.0893199128096 4.861655764806969
0.0452324584089104 -4.107316632200359 4.859289906098356
0.04485702215494154 -4.1264786068034685 4.856770862293501
0.04445875531796106 -4.146805836618929 4.854098633392404
0.044037657897968964 -4.168298321646741 4.8512732193950665
0.04359372989496524 -4.190956061886904 4.8482946203014885
0.0431269713089499 -4.214779057339419 4.845162836111669
0.042637382139922936 -4.239767308004286 4.841877866825608
0.04212496238788436 -4.265920813881502 4.838439712443306
0.04158971205283416 -4.293239574971071 4.834848372964763
0.04103163113477234 -4.32172359127299 4.831103848389978
0.0404507196336989 -4.351372862787262 4.827206138718953
0.039846977549613846 -4.382187389513883 4.823155243951686
0.039220404882517164 -4.414167171452856 4.818951164088179
0.03857100163240887 -4.447312208604181 4.81459389912843
0.03789876779928895 -4.481622500967857 4.810083449072439
0.03720370338315741 -4.517098048543884 4.805419813920208
0.03648580838401425 -4.5537388513322625 4.800602993671736
0.03574508280185947 -4.591544909332992 4.7956329883270215
0.03498152663669308 -4.630516222546073 4.790509797886067
0.03419513988851506 -4.670652790971506 4.78523342234887
0.03338592255732543 -4.711954614609289 4.7798038617154335
0.03255387464312416 -4.754421693459424 4.774221115985755
0.03169899614591129 -4.79805402752191 4.768485185159836
0.030821287065686792 -4.842851616796747 4.7625960692376745
0.02992074740245067 -4.8888144612839355 4.7565537682192724
0.02899737715620294 -4.9359425609834755 4.75035828210463
0.028051176326943577 -4.984235915895367 4.744009610893745
0.0270821449146726 -5.033694526019609 4.73750775458662
0.02609028291939001 -5.084318391356201 4.730852713183253
0.025075590341095792 -5.136107511905147 4.7240444866836455
0.024038067179789957 -5.189061887666442 4.717083075087796
0.0229777134354725 -5.24318151864009 4.709968478395706
0.021894529108143417 -5.2984664048260885 4.7027006966073746
0.020788514197802723 -5.354916546224438 4.695279729722802
0.01965966870445041 -5.412531942835139 4.687705577741988
0.018507992628086473 -5.471312594658191 4.6799782406649335
0.017333485968710913 -5.531258501693595 4.672097718491637
0.016136148726323744 -5.59236966394135 4.6640640112221
0.01491598090092495 -5.654646081401456 4.6558771188563215
0.013672982492514535 -5.718087754073913 4.647537041394302
0.014915980900924941 -5.726451771000919 4.710975562376403
0.01613614872632373 -5.734662163127224 4.773248886034343
0.0173334859687109 -5.742718930452829 4.834357012368121
0.01850799262808645 -5.750622072977735 4.89429994137774
0.019659668704450378 -5.75837159070194 4.953077673063197
0.02078851419780269 -5.765967483625445 5.010690207424492
0.02189452910814338 -5.77340975174825 5.067137544461628
0.022977713435472447 -5.780698395070355 5.122419684174601
0.024038067179789898 -5.78783341359176 5.176536626563414
0.02507559034109573 -5.794814807312465 5.229488371628066
0.026090282919389942 -5.80164257623247 5.281274919368556
0.027082144914672535 -5.808316720351774 5.3318962697848855
0.028051176326943497 -5.8148372396703785 5.381352422877054
0.028997377156202854 -5.8212041341882825 5.429643378645062
0.029920747402450588 -5.8274174039054865 5.476769137088908
0.030821287065686702 -5.833477048821991 5.522729698208593
0.03169899614591119 -5.839383068937795 5.567525062004118
0.03255387464312407 -5.845135464252898 5.611155228475482
0.033385922557325316 -5.850734234767303 5.6536201976226845
0.034195139888514955 -5.856179380481006 5.694919969445726
[...]
CELL_DATA 200

VECTORS Vinf float
5.152233901050074 33.255563239572524 26.127505263053067
5.138356281936301 33.25094675392053 26.175614874765166
5.122377148117297 33.24556337006811 26.23175770250115
5.104422159810197 33.23941665027363 26.295904003173266
5.084645133534589 33.23250996550935 26.36801889373177
5.0632298971277185 33.2248462081977 26.448062420173184
5.04039101503715 33.21642747884549 26.53598987505257
5.0163729847496095 33.20725475932331 26.631752420117746
4.991447565687229 33.19732759066937 26.735298052310608
4.965909022847117 33.186643778158114 26.84657292213218
4.940067252132285 33.175199150043696 26.965522973848937
4.914238994139168 33.16298739777456 27.09209583035745
4.8887376143282815 33.15000002352533 27.22624279758229
4.863862190453754 33.13622641481109 27.367920822534813
4.839886851625309 33.121654055585275 27.517094215416282
4.8170514040396055 33.10626886925683 27.673735948441365
4.793764763163991 33.08995399915348 27.83874470319949
4.775273327450761 33.0728634934373 28.0100340481055
4.757823137896894 33.054953681150316 28.188821333624052
4.741517353449468 33.0362093519201 28.37510616029699
4.7264281137392725 33.01661551114202 28.568893590701958
4.712602172482723 32.9961578021293 28.77019255047265
4.700067965192141 32.974822794289864 28.97901414177116
4.688843189884854 32.95259812084153 29.19537005954507
4.678942133509843 32.929472467683304 29.419271246210965
4.670382201066174 32.90543542922469 29.650726858132717
4.668714962460292 32.8792453102574 29.889931582043975
4.664453214518463 32.853066684682716 30.136639509702754
4.661554253004356 32.82593648628458 30.390957856162974
4.659998377021718 32.797851131395035 30.652895293038213
4.659782366405028 32.768806972188386 30.922457456766146
4.660921953747037 32.73879996256914 31.19964699119671
4.663453821350904 32.707825353441955 31.484463693510275
4.667436554939439 32.67587744767425 31.77690482924099
4.672949576711452 32.64294946278742 32.076965722758324
4.680088582278971 32.60903357369432 32.3846407691578
4.6889554469911126 32.57412123380544 32.69992504329313
4.69964004653688 32.53820388882315 33.02281668872229
4.712191209302196 32.50127418573582 33.35332023545447
4.726574649801127 32.46332772238714 33.69145088449549
4.742618285981989 32.42436527248834 34.03723952782119
4.759951312215968 32.38439526158745 34.39073770554559
4.777953767412382 32.34343606826512 34.7520207283497
4.795746175258899 32.30151748145058 35.121186006580864
4.812280226758532 32.25856134094945 35.49860806316551
4.826324927543559 32.21492128754396 35.88375210648907
4.83727859134625 32.170442158605944 36.27706808435087
4.8446589370206885 32.12516816996609 36.67857944400872
4.848647321716461 32.07912541236084 37.08823649398367
4.849568709480822 32.032938642674324 37.50518064185298
4.851048737644985 32.219510140978336 37.73938852160293
4.852864946124657 32.636050989823666 37.78572793649238
4.8525052791121555 33.04498389941598 37.83139892848902
4.848897799281813 33.44643393532496 37.87643822046015
4.841627289164437 33.84047761240524 37.920837807067045
4.831044443763967 34.22712120534218 37.964548283804014
4.8180947764777855 34.60630722748451 38.00749503421819
4.802827183727855 34.97810710230701 38.049671612538475
4.787627525498202 35.34201178230803 38.0911060987413
4.77294545144464 35.69835088313456 38.13142832575479
4.759408565947944 36.047046832554926 38.17062206239428
4.747353758689382 36.388047114945934 38.20868886270188
4.736898778155417 36.72131977865589 38.24564292771489
4.728076279419408 37.04718837630525 38.281062254054156
4.72052471733293 37.36420371749385 38.31679438692957
4.714133685667942 37.673627448596136 38.35130558618716
4.708799679833325 37.97544921541591 38.38462856709571
4.704439761593616 38.26965777073875 38.416793947848234
4.70099371004605 38.55624047849149 38.44783025936164
4.6987906655868095 38.834497134974434 38.47859272915671
4.69773015497214 39.104955658470864 38.50832113473738
4.697525942230784 39.3677396549047 38.53698917612863
4.698179951868068 39.62283788064765 38.56461338957222
4.699715351879608 39.87023728328171 38.591209067429645
4.702173015612691 40.10992325935498 38.61679054777242
4.705607243413027 40.34187998945334 38.6413714962016
4.710080386174753 40.56609088153504 38.66496518558993
4.717888460197246 40.7801319029616 38.690224879462946
4.72654034684336 40.988364453312705 38.71214961176132
4.73687161155941 41.18873621947068 38.73313279835679
4.748926805689647 41.38123769789894 38.753182340702786
4.7627316568983655 41.56586073127539 38.772306924324276
4.778280573646854 41.74259967995339 38.79051629438999
4.795525183042393 41.91145255002844 38.80782144249196
4.814365616788831 42.07242191964624 38.8242346646617
4.834646002947629 42.225515520788186 38.83976946624495
4.8561550344447095 42.37074638065202 38.85444031187204
4.878631708199782 42.50813249370805 38.8682622430259
4.902659877104467 42.636952667993484 38.88193102587546
4.927347900999946 42.75843478659743 38.89427627391866
4.952227365505132 42.8721333310813 38.905805455357246
4.976933044452472 42.97807996677485 38.916530809705094
5.001111151052342 43.07630618659892 38.9264631683909
5.02443148006128 43.16684214666586 38.93561170554402
5.046596367182651 43.249715750475296 38.94398382237033
5.067346249982827 43.32495201365564 38.95158515624159
5.086462001869121 43.39257270619364 38.958419695123304
5.103764489417522 43.452596242530376 38.964489971953505
5.119111966148364 43.50503777302747 38.96979731166116
5.13239597556566 43.5499094224178 38.97434210474058
5.152233901050074 33.255563239572524 26.127505263053067
5.138356281936301 33.25094675392053 26.175614874765166
5.122377148117297 33.24556337006811 26.23175770250115
5.104422159810197 33.23941665027363 26.295904003173266
5.084645133534589 33.23250996550935 26.36801889373177
5.0632298971277185 33.2248462081977 26.448062420173184
5.04039101503715 33.21642747884549 26.53598987505257
5.0163729847496095 33.20725475932331 26.631752420117746
4.991447565687229 33.19732759066937 26.735298052310608
4.965909022847117 33.186643778158114 26.84657292213218
4.940067252132285 33.175199150043696 26.965522973848937
4.914238994139168 33.16298739777456 27.09209583035745
4.8887376143282815 33.15000002352533 27.22624279758229
4.863862190453754 33.13622641481109 27.367920822534813
4.839886851625309 33.121654055585275 27.517094215416282
4.8170514040396055 33.10626886925683 27.673735948441365
4.793764763163991 33.08995399915348 27.83874470319949
4.775273327450761 33.0728634934373 28.0100340481055
4.757823137896894 33.054953681150316 28.188821333624052
4.741517353449468 33.0362093519201 28.37510616029699
4.7264281137392725 33.01661551114202 28.568893590701958
4.712602172482723 32.9961578021293 28.77019255047265
4.700067965192141 32.974822794289864 28.97901414177116
4.688843189884854 32.95259812084153 29.19537005954507
4.678942133509843 32.929472467683304 29.419271246210965
4.670382201066174 32.90543542922469 29.650726858132717
4.668714962460292 32.8792453102574 29.889931582043975
4.664453214518463 32.853066684682716 30.136639509702754
4.661554253004356 32.82593648628458 30.390957856162974
4.659998377021718 32.797851131395035 30.652895293038213
4.659782366405028 32.768806972188386 30.922457456766146
4.660921953747037 32.73879996256914 31.19964699119671
4.663453821350904 32.707825353441955 31.484463693510275
4.667436554939439 32.67587744767425 31.77690482924099
4.672949576711452 32.64294946278742 32.076965722758324
4.680088582278971 32.60903357369432 32.3846407691578
4.6889554469911126 32.57412123380544 32.69992504329313
4.69964004653688 32.53820388882315 33.02281668872229
4.712191209302196 32.50127418573582 33.35332023545447
4.726574649801127 32.46332772238714 33.69145088449549
4.742618285981989 32.42436527248834 34.03723952782119
4.759951312215968 32.38439526158745 34.39073770554559
4.777953767412382 32.34343606826512 34.7520207283497
4.795746175258899 32.30151748145058 35.121186006580864
4.812280226758532 32.25856134094945 35.49860806316551
4.826324927543559 32.21492128754396 35.88375210648907
4.83727859134625 32.170442158605944 36.27706808435087
4.8446589370206885 32.12516816996609 36.67857944400872
4.848647321716461 32.07912541236084 37.08823649398367
4.849568709480822 32.032938642674324 37.50518064185298
4.851048737644985 32.219510140978336 37.73938852160293
4.852864946124657 32.636050989823666 37.78572793649238
4.8525052791121555 33.04498389941598 37.83139892848902
4.848897799281813 33.44643393532496 37.87643822046015
4.841627289164437 33.84047761240524 37.920837807067045
4.831044443763967 34.22712120534218 37.964548283804014
4.8180947764777855 34.60630722748451 38.00749503421819
4.802827183727855 34.97810710230701 38.049671612538475
4.787627525498202 35.34201178230803 38.0911060987413
4.77294545144464 35.69835088313456 38.13142832575479
4.759408565947944 36.047046832554926 38.17062206239428
4.747353758689382 36.388047114945934 38.20868886270188
4.736898778155417 36.72131977865589 38.24564292771489
4.728076279419408 37.04718837630525 38.281062254054156
4.72052471733293 37.36420371749385 38.31679438692957
4.714133685667942 37.673627448596136 38.35130558618716
4.708799679833325 37.97544921541591 38.38462856709571
4.704439761593616 38.26965777073875 38.416793947848234
4.70099371004605 38.55624047849149 38.44783025936164
4.6987906655868095 38.834497134974434 38.47859272915671
4.69773015497214 39.104955658470864 38.50832113473738
4.697525942230784 39.3677396549047 38.53698917612863
4.698179951868068 39.62283788064765 38.56461338957222
4.699715351879608 39.87023728328171 38.591209067429645
4.702173015612691 40.10992325935498 38.61679054777242
4.705607243413027 40.34187998945334 38.6413714962016
4.710080386174753 40.56609088153504 38.66496518558993
4.717888460197246 40.7801319029616 38.690224879462946
4.72654034684336 40.988364453312705 38.71214961176132
4.73687161155941 41.18873621947068 38.73313279835679
4.748926805689647 41.38123769789894 38.753182340702786
4.7627316568983655 41.56586073127539 38.772306924324276
4.778280573646854 41.74259967995339 38.79051629438999
4.795525183042393 41.91145255002844 38.80782144249196
4.814365616788831 42.07242191964624 38.8242346646617
4.834646002947629 42.225515520788186 38.83976946624495
4.8561550344447095 42.37074638065202 38.85444031187204
4.878631708199782 42.50813249370805 38.8682622430259
4.902659877104467 42.636952667993484 38.88193102587546
4.927347900999946 42.75843478659743 38.89427627391866
4.952227365505132 42.8721333310813 38.905805455357246
4.976933044452472 42.97807996677485 38.916530809705094
5.001111151052342 43.07630618659892 38.9264631683909
5.02443148006128 43.16684214666586 38.93561170554402
5.046596367182651 43.249715750475296 38.94398382237033
5.067346249982827 43.32495201365564 38.95158515624159
5.086462001869121 43.39257270619364 38.958419695123304
5.103764489417522 43.452596242530376 38.964489971953505
5.119111966148364 43.50503777302747 38.96979731166116
5.13239597556566 43.5499094224178 38.97434210474058

VECTORS L float
0.057451005448862856 0.0 0.0
0.10388015501847613 0.0 0.0
0.15423942500643842 0.0 0.0
0.21022356802125175 0.0 0.0
0.2723155288526973 0.0 0.0
0.3406707620104296 0.0 0.0
0.4153082530692536 0.0 0.0
0.4961685581209226 0.0 0.0
0.5831347770807723 0.0 0.0
0.6760409937706477 0.0 0.0
0.7746762553920897 0.0 0.0
0.8787874114624257 0.0 0.0
0.9880825482356724 0.0 0.0
1.1022360762682875 0.0 0.0
1.220895924984828 0.0 0.0
1.3436922941461582 0.0 0.0
1.4702406800422736 0.0 0.0
1.6002154359505705 0.0 0.0
1.7332275899489562 0.0 0.0
1.8689265477566777 0.0 0.0
2.0069896117290806 0.0 0.0
2.1471224829033386 0.0 0.0
2.289057198976397 0.0 0.0
2.4325729326501597 0.0 0.0
2.5774589272584745 0.0 0.0
2.723545485947017 0.0 0.0
2.8707606982827083 0.0 0.0
3.0187557835239316 0.0 0.0
3.1674263034983503 0.0 0.0
3.3166354829384264 0.0 0.0
3.466243716302162 0.0 0.0
3.616106716560889 0.0 0.0
3.7660147072225523 0.0 0.0
3.9157844061361913 0.0 0.0
4.065179871288812 0.0 0.0
4.213899965128084 0.0 0.0
4.361555140592274 0.0 0.0
4.507714871523156 0.0 0.0
4.651735291284371 0.0 0.0
4.792856684800324 0.0 0.0
4.930115947971786 0.0 0.0
5.062327903382776 0.0 0.0
5.18808649219013 0.0 0.0
5.305789050105072 0.0 0.0
5.4138177063538855 0.0 0.0
5.510748420626659 0.0 0.0
5.595923891026739 0.0 0.0
5.670466436122452 0.0 0.0
5.739777612251355 0.0 0.0
5.827860043168304 0.0 0.0
6.075178339857094 0.0 0.0
6.103824008840808 0.0 0.0
6.148511633571495 0.0 0.0
6.18477501267838 0.0 0.0
6.206357157324121 0.0 0.0
6.211226918661142 0.0 0.0
6.1992839940109805 0.0 0.0
6.171311373714534 0.0 0.0
6.12862796810197 0.0 0.0
6.0726031082008625 0.0 0.0
6.004460372486817 0.0 0.0
5.9252535210937 0.0 0.0
5.836004327672933 0.0 0.0
5.737446122033884 0.0 0.0
5.630247711527816 0.0 0.0
5.514832873725591 0.0 0.0
5.391683030920346 0.0 0.0
5.261182150437353 0.0 0.0
5.123699446271232 0.0 0.0
4.979594842494794 0.0 0.0
4.829197677215617 0.0 0.0
4.672793383346917 0.0 0.0
4.510681049851289 0.0 0.0
4.3431951453558595 0.0 0.0
4.170698328806991 0.0 0.0
3.99359039796075 0.0 0.0
3.812321412054428 0.0 0.0
3.6274293703899017 0.0 0.0
3.4393838646243555 0.0 0.0
3.2487559941290964 0.0 0.0
3.056163504446463 0.0 0.0
2.8623080480489116 0.0 0.0
2.6679442121015677 0.0 0.0
2.473890940740087 0.0 0.0
2.2810219545334465 0.0 0.0
2.0902522779045647 0.0 0.0
1.902537256323454 0.0 0.0
1.7188362083810986 0.0 0.0
1.5401051881595866 0.0 0.0
1.3672515074974851 0.0 0.0
1.201139066948984 0.0 0.0
1.0425720717179445 0.0 0.0
0.892282125022129 0.0 0.0
0.750916992020493 0.0 0.0
0.619027403828986 0.0 0.0
0.49704571755408594 0.0 0.0
0.3852414087243648 0.0 0.0
0.28360793551071 0.0 0.0
0.19149825133487156 0.0 0.0
0.10595320475084179 0.0 0.0
0.057451005448862856 0.0 0.0
0.10388015501847613 0.0 0.0
0.15423942500643842 0.0 0.0
0.21022356802125175 0.0 0.0
0.2723155288526973 0.0 0.0
0.3406707620104296 0.0 0.0
0.4153082530692536 0.0 0.0
0.4961685581209226 0.0 0.0
0.5831347770807723 0.0 0.0
0.6760409937706477 0.0 0.0
0.7746762553920897 0.0 0.0
0.8787874114624257 0.0 0.0
0.9880825482356724 0.0 0.0
1.1022360762682875 0.0 0.0
1.220895924984828 0.0 0.0
1.3436922941461582 0.0 0.0
1.4702406800422736 0.0 0.0
1.6002154359505705 0.0 0.0
1.7332275899489562 0.0 0.0
1.8689265477566777 0.0 0.0
2.0069896117290806 0.0 0.0
2.1471224829033386 0.0 0.0
2.289057198976397 0.0 0.0
2.4325729326501597 0.0 0.0
2.5774589272584745 0.0 0.0
2.723545485947017 0.0 0.0
2.8707606982827083 0.0 0.0
3.0187557835239316 0.0 0.0
3.1674263034983503 0.0 0.0
3.3166354829384264 0.0 0.0
3.466243716302162 0.0 0.0
3.616106716560889 0.0 0.0
3.7660147072225523 0.0 0.0
3.9157844061361913 0.0 0.0
4.065179871288812 0.0 0.0
4.213899965128084 0.0 0.0
4.361555140592274 0.0 0.0
4.507714871523156 0.0 0.0
4.651735291284371 0.0 0.0
4.792856684800324 0.0 0.0
4.930115947971786 0.0 0.0
5.062327903382776 0.0 0.0
5.18808649219013 0.0 0.0
5.305789050105072 0.0 0.0
5.4138177063538855 0.0 0.0
5.510748420626659 0.0 0.0
5.595923891026739 0.0 0.0
5.670466436122452 0.0 0.0
5.739777612251355 0.0 0.0
5.827860043168304 0.0 0.0
6.075178339857094 0.0 0.0
6.103824008840808 0.0 0.0
6.148511633571495 0.0 0.0
6.18477501267838 0.0 0.0
6.206357157324121 0.0 0.0
6.211226918661142 0.0 0.0
6.1992839940109805 0.0 0.0
6.171311373714534 0.0 0.0
6.12862796810197 0.0 0.0
6.0726031082008625 0.0 0.0
6.004460372486817 0.0 0.0
5.9252535210937 0.0 0.0
5.836004327672933 0.0 0.0
5.737446122033884 0.0 0.0
5.630247711527816 0.0 0.0
5.514832873725591 0.0 0.0
5.391683030920346 0.0 0.0
5.261182150437353 0.0 0.0
5.123699446271232 0.0 0.0
4.979594842494794 0.0 0.0
4.829197677215617 0.0 0.0
4.672793383346917 0.0 0.0
4.510681049851289 0.0 0.0
4.3431951453558595 0.0 0.0
4.170698328806991 0.0 0.0
3.99359039796075 0.0 0.0
3.812321412054428 0.0 0.0
3.6274293703899017 0.0 0.0
3.4393838646243555 0.0 0.0
3.2487559941290964 0.0 0.0
3.056163504446463 0.0 0.0
2.8623080480489116 0.0 0.0
2.6679442121015677 0.0 0.0
2.473890940740087 0.0 0.0
2.2810219545334465 0.0 0.0
2.0902522779045647 0.0 0.0
1.902537256323454 0.0 0.0
1.7188362083810986 0.0 0.0
1.5401051881595866 0.0 0.0
1.3672515074974851 0.0 0.0
1.201139066948984 0.0 0.0
1.0425720717179445 0.0 0.0
0.892282125022129 0.0 0.0
0.750916992020493 0.0 0.0
0.619027403828986 0.0 0.0
0.49704571755408594 0.0 0.0
0.3852414087243648 0.0 0.0
0.28360793551071 0.0 0.0
0.19149825133487156 0.0 0.0
0.10595320475084179 0.0 0.0

SCALARS Gamma float
LOOKUP_TABLE default
0.41545264390232617
0.6385612206388471
0.8211607914957999
0.9854618119968633
1.138925526709549
1.2848285973813933
1.4247832224843062
1.559602599915822
1.6896674157481908
1.8151049889050768
1.9358873556617666
2.051890921867776
2.162936945894754
2.268822169640338
2.369343785213545
2.4643193866032354
2.5535925200120513
2.637144254045427
2.7148803615722783
2.7867978307675596
2.8529523914384494
2.9134478324070745
2.9684244855134723
3.0180766781774038
3.062599586037834
3.102223449609579
3.1372622748821404
3.1677204163587946
3.193859412206856
3.215889576555302
3.2340048441757547
3.2483829148164083
3.259136792045304
3.2664000012656036
3.270260372015023
3.270757770108136
3.2678753146981707
3.26158180587022
3.2517169430528963
3.2380775918095535
3.2203703022036634
3.198216460300385
3.1711695934557707
3.1387439413891096
3.1005256884068313
3.056275854707482
3.006195169216527
2.9513221957265565
2.894349802751183
2.842258930570889
2.836552905812096
2.8766964361161635
2.9212790779905817
2.9636587605132907
3.0013171922600614
3.033297747988623
3.0594496293886175
3.0800070781285487
3.0954534981216915
3.106298716525102
3.1129843776883432
3.1158903198128245
3.1153167545863973
3.111488755966147
3.1045700797562246
3.0945875953496667
3.081590566714799
3.065565471050615
3.0464785618096344
3.0242777460774564
2.998877885106872
2.970148765443022
2.9379465718266937
2.9021265809989547
2.86253815245129
2.8190299767871294
2.7714593272000307
2.7197211260933494
2.663635166151693
2.603066592099551
2.5378902100372467
2.468023978323464
2.393410988147688
2.3140358194209103
2.229925611611199
2.1411477385513784
2.047820262422964
1.9500866844229767
1.848116307350404
1.7420571559188625
1.6320377864542526
1.5181391211653545
1.4003577957311806
1.2785530233521805
1.1523590597883715
1.021024900621975
0.8830860592765521
0.7355910218260328
0.5718436433432336
0.3719489698744898
0.41545264390232617
0.6385612206388471
0.8211607914957999
0.9854618119968633
1.138925526709549
1.2848285973813933
1.4247832224843062
1.559602599915822
1.6896674157481908
1.8151049889050768
1.9358873556617666
2.051890921867776
2.162936945894754
2.268822169640338
2.369343785213545
2.4643193866032354
2.5535925200120513
2.637144254045427
2.7148803615722783
2.7867978307675596
2.8529523914384494
2.9134478324070745
2.9684244855134723
3.0180766781774038
3.062599586037834
3.102223449609579
3.1372622748821404
3.1677204163587946
3.193859412206856
3.215889576555302
3.2340048441757547
3.2483829148164083
3.259136792045304
3.2664000012656036
3.270260372015023
3.270757770108136
3.2678753146981707
3.26158180587022
3.2517169430528963
3.2380775918095535
3.2203703022036634
3.198216460300385
3.1711695934557707
3.1387439413891096
3.1005256884068313
3.056275854707482
3.006195169216527
2.9513221957265565
2.894349802751183
2.842258930570889
2.836552905812096
2.8766964361161635
2.9212790779905817
2.9636587605132907
3.0013171922600614
3.033297747988623
3.0594496293886175
3.0800070781285487
3.0954534981216915
3.106298716525102
3.1129843776883432
3.1158903198128245
3.1153167545863973
3.111488755966147
3.1045700797562246
3.0945875953496667
3.081590566714799
3.065565471050615
3.0464785618096344
3.0242777460774564
2.998877885106872
2.970148765443022
2.9379465718266937
2.9021265809989547
2.86253815245129
2.8190299767871294
2.7714593272000307
2.7197211260933494
2.663635166151693
2.603066592099551
2.5378902100372467
2.468023978323464
2.393410988147688
2.3140358194209103
2.229925611611199
2.1411477385513784
2.047820262422964
1.9500866844229767
1.848116307350404
1.7420571559188625
1.6320377864542526
1.5181391211653545
1.4003577957311806
1.2785530233521805
1.1523590597883715
1.021024900621975
0.8830860592765521
0.7355910218260328
0.5718436433432336