# vtk DataFile Version 4.0
[MyVLM domain - lattices] 
ASCII
DATASET UNSTRUCTURED_GRID
POINTS 302 float
0.03418245623128648 5.318417483613153 3.2430654657072666
0.034058156390445446 5.3186977994033935 3.249458074743744
0.03391102596659278 5.319029601767353 3.2570248364603915
0.0337410649597285 5.319412890705029 3.265765750857208
0.0335482733698526 5.319847666216424 3.275680817934194
0.033332651196965074 5.320333928301535 3.2867700376913507
0.03309419844106594 5.320871676960365 3.299033410128675
0.03283291510215518 5.321460912192912 3.31247093524617
0.032548801180232796 5.322101633999178 3.3270826130438333
0.032241856675298795 5.32279384237916 3.3428684435216667
0.031912081587353175 5.323537537332861 3.3598284266796687
0.03155947591639593 5.324332718860279 3.3779625625178413
0.03118403966242708 5.325179386961415 3.3972708510361826
0.030785772825446592 5.326077541636269 3.417753292234693
0.03036467540545449 5.327027182884841 3.439409886113373
0.02992074740245077 5.32802831070713 3.462240632672223
0.02945398881643543 5.329080925103137 3.4862455319112424
0.028964399647408462 5.330185026072861 3.511424583830431
0.028451979895369885 5.331340613616304 3.5377777884297887
0.027916729560319688 5.332547687733465 3.5653051457093166
0.027358648642257868 5.3338062484243425 3.5940066556690127
0.026777737141184428 5.335116295688938 3.623882318308879
0.026173995057099365 5.336477829527252 3.6549321336289142
0.025547422390002683 5.337890849939282 3.6871561016291197
0.024898019139894388 5.339355356925031 3.7205542223094934
0.02422578530677447 5.340871350484498 3.755126495670037
0.02353072089064293 5.342438830617683 3.790872921710751
0.022812825891499768 5.344057797324584 3.827793500431633
0.02207210030934499 5.345728250605204 3.865888231832685
0.021308544144178588 5.347450190459543 3.9051571159139065
0.02052215739600057 5.349223616887597 3.945600152675298
0.019712940064810933 5.35104852988937 3.987217342116858
0.01888089215060967 5.352924929464861 4.030008684238587
0.018026013653396792 5.35485281561407 4.073974179040486
0.01714830457317229 5.3568321883369965 4.119113826522555
0.016247764909936173 5.3588630476336405 4.165427626684792
0.01532439466368843 5.360945393504002 4.2129155795272
0.014378193834429074 5.3630792259480815 4.261577685049777
0.013409162422158099 5.3652645449658785 4.311413943252523
0.012417300426875503 5.367501350557394 4.362424354135438
0.011402607848581284 5.369789642722626 4.414608917698523
0.010365084687275445 5.372129421461576 4.467967633941777
0.009304730942957987 5.374520686774245 4.522500502865201
0.008221546615628902 5.37696343866063 4.5782075244687945
0.007115531705288204 5.379457677120734 4.635088698752557
0.005986686211935885 5.382003402154555 4.693144025716489
0.004835010135571947 5.384600613762094 4.75237350536059
0.003660503476196388 5.387249311943351 4.812777137684861
0.0024631662338092156 5.389949496698326 4.874354922689301
0.0012429984084104176 5.392701168027018 4.937106860373911
0.0 5.395504325929428 5.00103295073869
0.0012429984084104141 5.459431469529578 4.998253915892288
0.002463166233809208 5.52218444110442 4.995525924543065
0.003660503476196383 5.583763240653952 4.992848976691021
0.004835010135571938 5.644167868178176 4.990223072336155
0.005986686211935872 5.70339832367709 4.987648211478469
0.007115531705288186 5.7614546071506965 4.985124394117961
0.008221546615628881 5.818336718598993 4.982651620254632
0.009304730942957955 5.874044658021981 4.980229889888482
0.01036508468727541 5.92857842541966 4.97785920301951
0.011402607848581247 5.981938020792031 4.975539559647718
0.012417300426875463 6.034123444139093 4.973270959773104
0.013409162422158054 6.0851346954608445 4.971053403395669
0.014378193834429029 6.134971774757289 4.968886890515413
0.015324394663688387 6.183634682028424 4.966771421132336
0.016247764909936124 6.231123417274249 4.964706995246437
0.01714830457317224 6.277437980494766 4.962693612857717
0.018026013653396736 6.322578371689975 4.960731273966177
0.01888089215060962 6.366544590859874 4.958819978571815
0.019712940064810874 6.409336638004464 4.956959726674631
0.02052215739600051 6.450954513123746 4.9551505182746265
0.021308544144178525 6.491398216217718 4.953392353371801
0.022072100309344922 6.530667747286382 4.951685231966154
0.022812825891499695 6.568763106329737 4.950029154057686
0.023530720890642856 6.605684293347783 4.948424119646397
0.02422578530677439 6.641431308340521 4.946870128732287
0.024898019139894312 6.676004151307947 4.945367181315355
0.02554742239000261 6.709402822250068 4.943915277395602
0.026173995057099286 6.741627321166878 4.942514416973029
0.02677773714118434 6.77267764805838 4.9411646000476335
0.027358648642257788 6.802553802924572 4.939865826619417
0.027916729560319604 6.831255785765456 4.938618096688379
0.0284519798953698 6.858783596581031 4.937421410254521
0.028964399647408372 6.885137235371297 4.936275767317841
0.029453988816435336 6.910316702136254 4.935181167878339
0.02992074740245068 6.9343219968759024 4.934137611936017
0.0303646754054544 6.9571531195902425 4.933145099490874
0.030785772825446495 6.978810070279272 4.932203630542909
0.031184039662426975 6.999292848942994 4.931313205092122
0.03155947591639583 7.018601455581406 4.930473823138516
0.031912081587353085 7.036735890194509 4.9296854846820874
0.0322418566752987 7.053696152782305 4.928948189722838
0.0325488011802327 7.069482243344791 4.928261938260767
0.03283291510215508 7.084094161881969 4.927626730295875
0.03309419844106584 7.097531908393837 4.927042565828162
0.03333265119696497 7.109795482880396 4.926509444857628
0.0335482733698525 7.120884885341647 4.926027367384273
0.0337410649597284 7.130800115777588 4.925596333408096
0.033911025966592685 7.139541174188221 4.925216342929098
0.03405815639044535 7.1471080605735455 4.924887395947279
0.034182456231286386 7.15350077493356 4.924609492462639
0.04785543872380107 5.654599404950724 2.8761872770457715
0.047731138882960024 5.654879720740965 2.882579886082249
0.04758400845910737 5.655211523104924 2.890146647798897
0.04741404745224308 5.655594812042601 2.8988875621957138
0.04722125586236718 5.656029587553995 2.9088026292726994
0.04700563368947965 5.656515849639106 2.919891849029855
0.04676718093358052 5.657053598297936 2.93215522146718
0.046505897594669755 5.657642833530484 2.9455927465846745
0.046221783672747374 5.658283555336749 2.960204424382338
0.04591483916781337 5.6589757637167315 2.9759902548601715
0.04558506407986775 5.659719458670432 2.992950238018174
0.04523245840891051 5.660514640197851 3.011084373856346
0.04485702215494165 5.661361308298987 3.0303926623746875
0.044458755317961174 5.66225946297384 3.0508751035731985
0.044037657897969075 5.663209104222412 3.0725316974518786
0.043593729894965356 5.664210232044701 3.0953624440107284
0.043126971308950005 5.665262846440708 3.1193673432497473
0.04263738213992304 5.666366947410433 3.144546395168936
0.04212496238788446 5.667522534953876 3.1708995997682936
0.041589712052834266 5.668729609071036 3.198426957047821
0.04103163113477245 5.669988169761914 3.2271284670075175
0.040450719633699006 5.67129821702651 3.2570041296473837
0.03984697754961395 5.672659750864823 3.288053944967419
0.03922040488251727 5.674072771276855 3.3202779129676245
0.038571001632408966 5.675537278262603 3.3536760336479983
0.037898767799289045 5.67705327182207 3.3882483070085425
0.03720370338315751 5.678620751955254 3.423994733049256
0.03648580838401435 5.680239718662156 3.4609153117701377
0.03574508280185957 5.681910171942776 3.49901004317119
0.034981526636693176 5.683632111797114 3.5382789272524113
0.03419513988851514 5.685405538225169 3.578721964013803
0.03338592255732551 5.687230451226942 3.620339153455363
0.032553874643124245 5.689106850802433 3.663130495577093
0.03169899614591137 5.691034736951641 3.7070959903789906
0.03082128706568687 5.693014109674568 3.7522356378610597
0.02992074740245075 5.695044968971212 3.7985494380232976
0.028997377156203014 5.697127314841573 3.846037390865705
0.02805117632694365 5.699261147285653 3.8946994963882813
0.027082144914672673 5.70144646630345 3.944535754591028
0.026090282919390077 5.703683271894965 3.9955461654739426
0.02507559034109586 5.705971564060198 4.047730729037028
0.024038067179790026 5.708311342799148 4.101089445280282
0.022977713435472565 5.710702608111816 4.155622314203706
0.021894529108143483 5.713145359998202 4.211329335807299
0.020788514197802786 5.7156395984583055 4.268210510091062
0.019659668704450465 5.718185323492127 4.3262658370549945
0.018507992628086525 5.720782535099666 4.385495316699095
0.017333485968710968 5.723431233280922 4.445898949023366
0.016136148726323792 5.726131418035897 4.507476734027806
0.014915980900924997 5.728883089364589 4.570228671712416
0.013672982492514578 5.731686247267 4.634154762077195
0.014915980900924995 5.79561339086715 4.631375727230793
0.016136148726323785 5.858366362441991 4.62864773588157
0.01733348596871096 5.9199451619915235 4.625970788029526
0.018507992628086518 5.980349789515747 4.62334488367466
0.019659668704450448 6.039580245014662 4.6207700228169735
0.020788514197802765 6.097636528488268 4.618246205456466
0.02189452910814346 6.154518639936565 4.615773431593137
0.022977713435472533 6.210226579359553 4.613351701226987
0.024038067179789988 6.264760346757232 4.610981014358016
0.025075590341095827 6.318119942129602 4.608661370986223
0.026090282919390043 6.370305365476664 4.60639277111161
0.02708214491467263 6.421316616798416 4.604175214734174
0.028051176326943608 6.47115369609486 4.602008701853919
0.02899737715620296 6.519816603365995 4.599893232470841
0.029920747402450706 6.5673053386118205 4.597828806584943
0.03082128706568682 6.613619901832338 4.595815424196223
0.03169899614591132 6.658760293027546 4.593853085304682
0.032553874643124196 6.702726512197446 4.59194178991032
0.033385922557325455 6.7455185593420355 4.590081538013137
0.034195139888515094 6.787136434461318 4.588272329613132
0.03498152663669311 6.82758013755529 4.586514164710306
0.0357450828018595 6.866849668623955 4.584807043304659
0.03648580838401427 6.904945027667309 4.583150965396191
0.03720370338315744 6.941866214685355 4.581545930984902
0.037898767799288975 6.9776132296780915 4.579991940070792
0.0385710016324089 7.01218607264552 4.57848899265386
0.03922040488251719 7.04558474358764 4.577037088734107
0.03984697754961387 7.077809242504449 4.5756362283115335
0.04045071963369892 7.108859569395951 4.574286411386138
0.041031631134772366 7.138735724262144 4.5729876379579215
0.04158971205283418 7.167437707103027 4.571739908026884
0.04212496238788438 7.194965517918601 4.5705432215930255
0.04263738213992296 7.2213191567088675 4.569397578656345
0.04312697130894992 7.246498623473825 4.568302979216845
0.04359372989496526 7.270503918213473 4.567259423274522
0.04403765789796898 7.293335040927813 4.566266910829379
0.04445875531796107 7.314991991616843 4.565325441881414
0.044857022154941556 7.335474770280565 4.564435016430628
0.045232458408910416 7.354783376918977 4.5635956344770205
0.04558506407986766 7.372917811532082 4.562807296020592
0.045914839167813276 7.389878074119878 4.562070001061343
0.04622178367274728 7.4056641646823635 4.561383749599273
0.04650589759466966 7.420276083219539 4.56074854163438
0.04676718093358042 7.433713829731409 4.560164377166667
0.047005633689479555 7.4459774042179685 4.559631256196133
0.04722125586236708 7.45706680667922 4.559149178722778
0.04741404745224298 7.4669820371151605 4.558718144746601
0.04758400845910726 7.475723095525793 4.558338154267603
0.04773113888295993 7.483289981911118 4.558009207285784
0.04785543872380097 7.489682696271132 4.557731303801145
0.0443750431802519 5.5706940825114515 2.9711031287293843
0.04423932804790505 5.571000141588552 2.9780828141059468
0.04408078233254658 5.571357687239369 2.986236652162679
0.04389940603417649 5.571766719463905 2.99556464289958
0.043695199152794774 5.572227238262158 3.006066786316651
0.043468161688401445 5.572739243634128 3.017743082413891
0.04321829364099649 5.5733027355798175 3.0305935311913013
0.04294559501057992 5.573917714099223 3.04461813264888
0.042650065797151734 5.574584179192347 3.0598168867866287
0.04233170600071192 5.575302130859189 3.0761897936045464
0.04199051562126049 5.576071569099748 3.0937368531026337
0.04162649465879744 5.576892493914026 3.11245806528089
0.041239643113322774 5.577764905302021 3.1323534301393163
0.04082996098483648 5.578688803263733 3.153422947677912
0.04039744827333857 5.579664187799164 3.175666617896677
0.03994210497882903 5.580691058908312 3.1990844407956116
0.03946393110130788 5.581769416591178 3.2236764163747154
0.03896292664077511 5.5828992608477614 3.249442544633989
0.038439091597230725 5.584080591678063 3.2763828255734313
0.037892425970674715 5.585313409082082 3.3044972591930426
0.03732292976110708 5.586597713059819 3.3337858454928244
0.036730602968527835 5.587933503611273 3.3642485844727754
0.036115445592936966 5.589320780736446 3.3958854761328956
0.03547745763433448 5.590759544435336 3.428696520473186
0.03481663909272036 5.592249794707944 3.462681717493644
0.034132989968094635 5.5937915315542694 3.497841067194273
0.03342651026045729 5.5953847549743125 3.5341745695750713
0.03269719996980832 5.597029464968073 3.5716822246360374
0.03194505909614773 5.598725661535552 3.6103640323771744
0.031170087639475513 5.6004733446767485 3.6502199927984806
0.03037228559979169 5.602272514391663 3.6912501058999565
0.029551652977096235 5.604123170680294 3.733454371681601
0.028708189771389166 5.606025313542644 3.7768327901434153
0.027841895982670475 5.607978942978711 3.821385361285399
0.026952771610940163 5.609984058988497 3.8671120851075527
0.026040816656198243 5.612040661571999 3.914012961609875
0.02510603111844469 5.61414875072922 3.9620879907923667
0.024148414997679526 5.6163083264601585 4.011337172655028
0.023167968293902736 5.618519388764815 4.061760507197859
0.02216469100711433 5.620781937643188 4.113357994420859
0.021138583137314298 5.62309597309528 4.166129634324029
0.020089644684502653 5.6254614951210895 4.220075426907368
0.01901787564867938 5.627878503720616 4.275195372170876
0.01792327602984449 5.630346998893861 4.331489470114555
0.016805845827997982 5.632866980640824 4.388957720738402
0.015665585043139856 5.635438448961503 4.447600124042419
0.014502493675270109 5.638061403855901 4.507416680026604
0.01331657172438874 5.640735845324017 4.56840738869096
0.012107819190495752 5.643461773365851 4.630572250035485
0.010876236073591143 5.646239187981402 4.693911264060179
0.01087623607359114 5.679604338732682 4.724484791819368
0.012107819190495745 5.742944396320178 4.721731278721555
0.013316571724388727 5.8051102818823646 4.719028809120922
0.014502493675270092 5.866101995419243 4.716377383017467
0.01566558504313984 5.925919536930812 4.7137770004111905
0.01680584582799796 5.9845629064170724 4.711227661302094
0.01792327602984447 6.042032103878023 4.708729365690175
0.019017875648679353 6.098327129313666 4.706282113575436
0.020089644684502618 6.153447982724 4.7038859049578745
0.021138583137314263 6.2073946641090245 4.701540739837493
0.022164691007114296 6.260167173468741 4.69924661821429
0.023167968293902694 6.311765510803148 4.697003540088265
0.02414841499767948 6.362189676112245 4.69481150545942
0.025106031118444644 6.411439669396034 4.692670514327753
0.02604081665619819 6.459515490654515 4.690580566693265
0.02695277161094012 6.506417139887686 4.688541662555956
0.027841895982670426 6.552144617095549 4.686553801915826
0.02870818977138911 6.596697922278103 4.684616984772874
0.029551652977096176 6.6400770554353485 4.682731211127102
0.03037228559979162 6.682282016567284 4.680896480978508
0.03117008763947545 6.7233128056739115 4.679112794327093
0.03194505909614766 6.7631694227552295 4.677380151172857
0.032697199969808244 6.801851867811238 4.675698551515799
0.03342651026045721 6.839360140841938 4.67406799535592
0.034132989968094565 6.87569424184733 4.672488482693221
0.034816639092720286 6.910854170827412 4.6709600135277
0.035477457634334394 6.944839927782186 4.669482587859357
0.03611544559293688 6.977651512711652 4.668056205688194
0.03673060296852776 7.009288925615808 4.666680867014209
0.037322929761107 7.039752166494654 4.665356571837403
0.03789242597067463 7.069041235348193 4.6640833201577765
0.03843909159723064 7.097156132176424 4.662861111975328
0.038962926640775025 7.124096856979342 4.661689947290059
0.039463931101307796 7.149863409756954 4.660569826101969
0.03994210497882895 7.174455790509257 4.659500748411057
0.040397448273338465 7.19787399923625 4.658482714217324
0.040829960984836385 7.220118035937935 4.65751572352077
0.04123964311332268 7.241187900614311 4.656599776321395
0.04162649465879734 7.26108359326538 4.655734872619198
0.041990515621260396 7.279805113891137 4.654921012414181
0.04233170600071183 7.2973524624915855 4.654158195706342
0.04265006579715163 7.3137256390667265 4.653446422495682
0.042945595010579825 7.328924643616557 4.6527856927822
0.043218293640996386 7.342949476141081 4.652176006565898
0.04346816168840134 7.355800136640295 4.651617363846774
0.04369519915279468 7.3674766251142 4.651109764624829
0.043899406034176386 7.377978941562797 4.650653208900064
0.04408078233254648 7.387307085986084 4.650247696672476
0.04423932804790495 7.395461058384062 4.6498932279420675
0.0443750431802518 7.402440858756732 4.649589802708838

CELLS 200 700
4 0 101 102 1
4 1 102 103 2
4 2 103 104 3
4 3 104 105 4
4 4 105 106 5
4 5 106 107 6
4 6 107 108 7
4 7 108 109 8
4 8 109 110 9
4 9 110 111 10
4 10 111 112 11
4 11 112 113 12
4 12 113 114 13
4 13 114 115 14
4 14 115 116 15
4 15 116 117 16
4 16 117 118 17
4 17 118 119 18
4 18 119 120 19
4 19 120 121 20
4 20 121 122 21
4 21 122 123 22
4 22 123 124 23
4 23 124 125 24
4 24 125 126 25
4 25 126 127 26
4 26 127 128 27
4 27 128 129 28
4 28 129 130 29
4 29 130 131 30
4 30 131 132 31
4 31 132 133 32
4 32 133 134 33
4 33 134 135 34
4 34 135 136 35
4 35 136 137 36
4 36 137 138 37
4 37 138 139 38
4 38 139 140 39
4 39 140 141 40
4 40 141 142 41
4 41 142 143 42
4 42 143 144 43
4 43 144 145 44
4 44 145 146 45
4 45 146 147 46
4 46 147 148 47
4 47 148 149 48
4 48 149 150 49
4 49 150 151 50
4 50 151 152 51
4 51 152 153 52
4 52 153 154 53
4 53 154 155 54
4 54 155 156 55
4 55 156 157 56
4 56 157 158 57
4 57 158 159 58
4 58 159 160 59
4 59 160 161 60
4 60 161 162 61
4 61 162 163 62
4 62 163 164 63
4 63 164 165 64
4 64 165 166 65
4 65 166 167 66
4 66 167 168 67
4 67 168 169 68
4 68 169 170 69
4 69 170 171 70
4 70 171 172 71
4 71 172 173 72
4 72 173 174 73
4 73 174 175 74
4 74 175 176 75
4 75 176 177 76
4 76 177 178 77
4 77 178 179 78
4 78 179 180 79
4 79 180 181 80
4 80 181 182 81
4 81 182 183 82
4 82 183 184 83
4 83 184 185 84
4 84 185 186 85
4 85 186 187 86
4 86 187 188 87
4 87 188 189 88
4 88 189 190 89
4 89 190 191 90
4 90 191 192 91
4 91 192 193 92
4 92 193 194 93
4 93 194 195 94
4 94 195 196 95
4 95 196 197 96
4 96 197 198 97
4 97 198 199 98
4 98 199 200 99
4 99 200 201 100
1 202
1 203
1 204
1 205
1 206
1 207
1 208
1 209
1 210
1 211
1 212
1 213
1 214
1 215
1 216
1 217
1 218
1 219
1 220
1 221
1 222
1 223
1 224
1 225
1 226
1 227
1 228
1 229
1 230
1 231
1 232
1 233
1 234
1 235
1 236
1 237
1 238
1 239
1 240
1 241
1 242
1 243
1 244
1 245
1 246
1 247
1 248
1 249
1 250
1 251
1 252
1 253
1 254
1 255
1 256
1 257
1 258
1 259
1 260
1 261
1 262
1 263
1 264
1 265
1 266
1 267
1 268
1 269
1 270
1 271
1 272
1 273
1 274
1 275
1 276
1 277
1 278
1 279
1 280
1 281
1 282
1 283
1 284
1 285
1 286
1 287
1 288
1 289
1 290
1 291
1 292
1 293
1 294
1 295
1 296
1 297
1 298
1 299
1 300
1 301

CELL_TYPES 200
9
9
9
9
9
9
9
9
9
9
9
9
9
9
9
9
9
9
9
9
9
9
9
9
9
9
9
9
9
9
9
9
9
9
9
9
9
9
9
9
9
9
9
9
9
9
9
9
9
9
9
9
9
9
9
9
9
9
9
9
9
9
9
9
9
9
9
9
9
9
9
9
9
9
9
9
9
9
9
9
9
9
9
9
9
9
9
9
9
9
9
9
9
9
9
9
9
9
9
9
1
1
1
1
1
1
1
1
1
1
1
1
1
1
1
1
1
1
1
1
1
1
1
1
1
1
1
1
1
1
1
1
1
1
1
1
1
1
1
1
1
1
1
1
1
1
1
1
1
1
1
1
1
1
1
1
1
1
1
1
1
1
1
1
1
1
1
1
1
1
1
1
1
1
1
1
1
1
1
1
1
1
1
1
1
1
1
1
1
1
1
1
1
1
1
1
1
1
1
1

CELL_DATA 200

VECTORS Vinf float
5.16503138084957 19.939308077307242 -37.310333016462494
5.151104949542098 19.987512616163254 -37.31410546732127
5.135069842920553 20.043765042146976 -37.318512227793704
5.1170522545313855 20.10803519173379 -37.323551871546506
5.097206636575001 20.180287833717035 -37.329221906636185
5.075717559271764 20.26048278997198 -37.33551849812831
5.052800437371881 20.34857530776033 -37.34243620811563
5.028700723577094 20.444516737298173 -37.349967775966
5.003691229249452 20.54825554905131 -37.35810396356376
4.978067354000199 20.659738695255726 -37.36683349003496
4.9521401908288425 20.77891328026264 -37.37614307715726
4.926227713799926 20.90572845780365 -37.3860176197951
4.900644526922617 21.0401374261927 -37.396440485254075
4.875690916272919 21.182099353336646 -37.4073939321213
4.851642151113234 21.33158104198053 -37.41885962451783
4.828739070357601 21.488558150581834 -37.4308192040263
4.807180926832444 21.653015821574023 -37.443254871532
4.7871212296260826 21.824948635045903 -37.456149927231486
4.768666949669132 22.00435989273127 -37.46948922053887
4.751881001255777 22.191260328486422 -37.483259472415504
4.736787476335067 22.385666417557843 -37.49744944885172
4.723378786169379 22.587598500572355 -37.5120499825604
4.711623726664086 22.797078939832375 -37.527053856643654
4.701475549018686 23.014130487042475 -37.54245557596419
4.692879348665412 23.23877497584338 -37.558251057689034
4.685778402052005 23.471032378632977 -37.57443727233992
4.680119388754727 23.710920203889724 -37.59101186250817
4.675856660337814 23.958453169967214 -37.60797276055345
4.672955820282623 24.213643077503956 -37.62531782115248
4.671396862835624 24.476498810970085 -37.643044480825495
4.671177007310031 24.747026422707062 -37.66114945533653
4.672313184586242 25.02522928292402 -37.67962848787914
4.674843897375085 25.311108312183272 -37.69847616734595
4.6788298815061475 25.60466234738366 -37.71768584813212
4.684352628292442 25.905888727775235 -37.73724972189979
4.6915093770202 26.21478422303821 -37.757159117015114
4.700402663626931 26.531346457444595 -37.77740512919498
4.711121991806126 26.855576004439758 -37.797979708101316
4.723714908376611 27.187479315432338 -37.81887732270096
4.738145282918478 27.527072559827857 -37.840097278277604
4.754239020583815 27.874386196664048 -37.86164662738746
4.771623354452135 28.2294695302497 -37.88354336942101
4.789676322781428 28.592393531037356 -37.905819245477296
4.807516091133121 28.963249050182686 -37.92852094700599
4.824067423201091 29.342137086013082 -37.95170816833883
4.838230964857999 29.72914941653087 -37.97544708529508
4.849139177579265 30.12434265063196 -37.9997990833629
4.856419837345263 30.52771513977405 -38.024807011182595
4.860343463381965 30.93919957097124 -38.05048388443871
4.861755301522194 31.358679315644892 -38.076809684373444
4.8631821664857116 31.55681917041594 -38.301201358682476
4.865008644432903 31.529981532273787 -38.71947117095599
4.864607992956411 31.50378922929507 -39.130143418994045
4.860870802728699 31.47825868867363 -39.53335071702584
4.853335438628398 31.453370849836617 -39.92917146638516
4.84230096827903 31.42907778708308 -40.317608801387074
4.82866017803598 31.40531712918447 -40.698599378955564
4.813578350964542 31.382027313601206 -41.07204183520524
4.798644010233046 31.358570336037698 -41.438222112658806
4.783533643818519 31.335867815471435 -41.796437432352796
4.770510897862413 31.314917246123752 -42.146005114100646
4.757871916651591 31.2927475440852 -42.48864038729054
4.746694503387959 31.270972437875233 -42.823413253281586
4.736971037342337 31.249604743906428 -43.15031420693305
4.728627171713332 31.228659448492373 -43.46934211499535
4.721562724438475 31.208151936693618 -43.78050002898582
4.720691088163242 31.18851747270495 -44.083004656924984
4.716065081965562 31.168596390949713 -44.37853018825991
4.712346986982784 31.149210710245548 -44.66617460046206
4.709465316767646 31.13036340352167 -44.94594656241323
4.707364850594745 31.112056473106154 -45.21785309219748
4.705997920817237 31.094291272586762 -45.481900294593665
4.708095602388454 31.07885358609639 -45.73666669277346
4.709300248899724 31.062044890215006 -45.984870048577285
4.711677181468433 31.045769902729795 -46.2251811062798
4.715254260450306 31.030024985803692 -46.45759971675973
4.720080302975505 31.014806548495507 -46.682123481427
4.726221177436513 31.000111234782533 -46.89874806706588
4.733754068661479 30.985936111893146 -47.10746768775922
4.742759506512772 30.972278856500047 -47.30827579945783
4.75642269368533 30.959003472431167 -47.50058657763865
4.76975477129728 30.945956227356124 -47.685607843471935
4.7849682404903895 30.93338966820613 -47.86268918807414
4.802054526221871 30.921311246138693 -48.03182803839038
4.820944566854816 30.90972933291443 -48.19302729847116
4.841503787078555 30.89865301209538 -48.34629596809809
4.863532334106223 30.888091784870163 -48.49164928579166
4.886770748411748 30.87805521767449 -48.62910836325113
4.910910441067301 30.86855256747639 -48.75869935300439
4.935607703889515 30.859592423116368 -48.88045225412131
4.960499600996854 30.851182397439576 -48.994399500774065
4.985220017731293 30.843328896413123 -49.10057449075478
5.009414339689891 30.836036980190684 -49.199010198008345
5.032751617393219 30.829310319451547 -49.289737981820416
5.054304582581785 30.821030102046493 -49.37374433056362
5.0753815216564195 30.815704648757283 -49.4489806744336
5.0947714446165 30.81091677403563 -49.51660616462341
5.112301526779183 30.806667098888777 -49.576637997633945
5.127835661896971 30.802955483922926 -49.62909009007346
5.141270342048308 30.799781254051574 -49.673973365387766
5.16503138084957 19.939308077307242 -37.310333016462494
5.151104949542098 19.987512616163254 -37.31410546732127
5.135069842920553 20.043765042146976 -37.318512227793704
5.1170522545313855 20.10803519173379 -37.323551871546506
5.097206636575001 20.180287833717035 -37.329221906636185
5.075717559271764 20.26048278997198 -37.33551849812831
5.052800437371881 20.34857530776033 -37.34243620811563
5.028700723577094 20.444516737298173 -37.349967775966
5.003691229249452 20.54825554905131 -37.35810396356376
4.978067354000199 20.659738695255726 -37.36683349003496
4.9521401908288425 20.77891328026264 -37.37614307715726
4.926227713799926 20.90572845780365 -37.3860176197951
4.900644526922617 21.0401374261927 -37.396440485254075
4.875690916272919 21.182099353336646 -37.4073939321213
4.851642151113234 21.33158104198053 -37.41885962451783
4.828739070357601 21.488558150581834 -37.4308192040263
4.807180926832444 21.653015821574023 -37.443254871532
4.7871212296260826 21.824948635045903 -37.456149927231486
4.768666949669132 22.00435989273127 -37.46948922053887
4.751881001255777 22.191260328486422 -37.483259472415504
4.736787476335067 22.385666417557843 -37.49744944885172
4.723378786169379 22.587598500572355 -37.5120499825604
4.711623726664086 22.797078939832375 -37.527053856643654
4.701475549018686 23.014130487042475 -37.54245557596419
4.692879348665412 23.23877497584338 -37.558251057689034
4.685778402052005 23.471032378632977 -37.57443727233992
4.680119388754727 23.710920203889724 -37.59101186250817
4.675856660337814 23.958453169967214 -37.60797276055345
4.672955820282623 24.213643077503956 -37.62531782115248
4.671396862835624 24.476498810970085 -37.643044480825495
4.671177007310031 24.747026422707062 -37.66114945533653
4.672313184586242 25.02522928292402 -37.67962848787914
4.674843897375085 25.311108312183272 -37.69847616734595
4.6788298815061475 25.60466234738366 -37.71768584813212
4.684352628292442 25.905888727775235 -37.73724972189979
4.6915093770202 26.21478422303821 -37.757159117015114
4.700402663626931 26.531346457444595 -37.77740512919498
4.711121991806126 26.855576004439758 -37.797979708101316
4.723714908376611 27.187479315432338 -37.81887732270096
4.738145282918478 27.527072559827857 -37.840097278277604
4.754239020583815 27.874386196664048 -37.86164662738746
4.771623354452135 28.2294695302497 -37.88354336942101
4.789676322781428 28.592393531037356 -37.905819245477296
4.807516091133121 28.963249050182686 -37.92852094700599
4.824067423201091 29.342137086013082 -37.95170816833883
4.838230964857999 29.72914941653087 -37.97544708529508
4.849139177579265 30.12434265063196 -37.9997990833629
4.856419837345263 30.52771513977405 -38.024807011182595
4.860343463381965 30.93919957097124 -38.05048388443871
4.861755301522194 31.358679315644892 -38.076809684373444
4.8631821664857116 31.55681917041594 -38.301201358682476
4.865008644432903 31.529981532273787 -38.71947117095599
4.864607992956411 31.50378922929507 -39.130143418994045
4.860870802728699 31.47825868867363 -39.53335071702584
4.853335438628398 31.453370849836617 -39.92917146638516
4.84230096827903 31.42907778708308 -40.317608801387074
4.82866017803598 31.40531712918447 -40.698599378955564
4.813578350964542 31.382027313601206 -41.07204183520524
4.798644010233046 31.358570336037698 -41.438222112658806
4.783533643818519 31.335867815471435 -41.796437432352796
4.770510897862413 31.314917246123752 -42.146005114100646
4.757871916651591 31.2927475440852 -42.48864038729054
4.746694503387959 31.270972437875233 -42.823413253281586
4.736971037342337 31.249604743906428 -43.15031420693305
4.728627171713332 31.228659448492373 -43.46934211499535
4.721562724438475 31.208151936693618 -43.78050002898582
4.720691088163242 31.18851747270495 -44.083004656924984
4.716065081965562 31.168596390949713 -44.37853018825991
4.712346986982784 31.149210710245548 -44.66617460046206
4.709465316767646 31.13036340352167 -44.94594656241323
4.707364850594745 31.112056473106154 -45.21785309219748
4.705997920817237 31.094291272586762 -45.481900294593665
4.708095602388454 31.07885358609639 -45.73666669277346
4.709300248899724 31.062044890215006 -45.984870048577285
4.711677181468433 31.045769902729795 -46.2251811062798
4.715254260450306 31.030024985803692 -46.45759971675973
4.720080302975505 31.014806548495507 -46.682123481427
4.726221177436513 31.000111234782533 -46.89874806706588
4.733754068661479 30.985936111893146 -47.10746768775922
4.742759506512772 30.972278856500047 -47.30827579945783
4.75642269368533 30.959003472431167 -47.50058657763865