# vtk DataFile Version 4.0
[MyVLM domain - lattices] 
ASCII
DATASET UNSTRUCTURED_GRID
POINTS 302 float
0.034182456231286545 1.885105928290416 5.864071168378124
0.0340581563904455 1.8812115727616305 5.8691483745243165
0.033911025966592845 1.8766019274418433 5.875158128738176
0.033741064959728555 1.871276992331055 5.882100431019705
0.03354827336985266 1.865236767429265 5.889975281368901
0.03333265119696513 1.8584812527364734 5.898782679785766
0.033094198441065995 1.8510104482526806 5.908522626270298
0.032832915102155226 1.8428243539778868 5.919195120822499
0.032548801180232845 1.8339229699120911 5.930800163442367
0.032241856675298844 1.8243062960552938 5.943337754129904
0.031912081587353223 1.8139743324074955 5.9568078928851085
0.031559475916395976 1.8029270789686955 5.97121057970798
0.031184039662427124 1.7911645357388943 5.9865458145985215
0.030785772825446645 1.7786867027180913 6.002813597556729
0.030364675405454542 1.765493579906287 6.020013928582606
0.029920747402450817 1.7515851673034812 6.038146807676151
0.029453988816435475 1.7369614649096745 6.057212234837363
0.028964399647408507 1.7216224727248655 6.0772102100662435
0.02845197989536993 1.7055681907490554 6.098140733362792
0.027916729560319733 1.6887986189822441 6.120003804727008
0.027358648642257913 1.6713137574244312 6.142799424158893
0.026777737141184466 1.653113606075617 6.166527591658445
0.026173995057099404 1.6341981649358015 6.191188307225666
0.025547422390002728 1.614567434004984 6.2167815708605545
0.024898019139894426 1.5942214132831656 6.243307382563111
0.024225785306774505 1.5731601027703455 6.270765742333335
0.023530720890642964 1.551383502466524 6.299156650171228
0.022812825891499803 1.5288916123717011 6.328480106076788
0.022072100309345023 1.5056844324858767 6.358736110050017
0.021308544144178623 1.4817619628090508 6.389924662090913
0.0205221573960006 1.4571242033412237 6.4220457621994775
0.01971294006481096 1.431771154082395 6.45509941037571
0.018880892150609698 1.4057028150325648 6.489085606619611
0.01802601365339682 1.3789191861917334 6.524004350931178
0.01714830457317232 1.3514202675599005 6.5598556433104145
0.016247764909936197 1.323206059137066 6.59663948375732
0.015324394663688455 1.29427656092323 6.634355872271892
0.014378193834429096 1.264631772918393 6.673004808854132
0.01340916242215812 1.2342716951225543 6.7125862935040415
0.01241730042687552 1.203196327535714 6.753100326221619
0.011402607848581301 1.1714056701578726 6.794546907006862
0.010365084687275459 1.1388997229890294 6.836926035859776
0.009304730942958 1.105678486029185 6.880237712780357
0.008221546615628914 1.071741959278339 6.924481937768604
0.007115531705288217 1.0370901427364918 6.96965871082452
0.005986686211935896 1.001723036403643 7.015768031948105
0.0048350101355719545 0.9656406402797927 7.062809901139357
0.003660503476196393 0.9288429543649411 7.110784318398278
0.0024631662338092195 0.8913299786590883 7.159691283724867
0.0012429984084104196 0.8531017131622336 7.209530797119122
0.0 0.8141581578743777 7.260302858581048
0.0012429984084104137 0.8649155201598959 7.299265570208556
0.0024631662338092074 0.9147406043626186 7.337512640193927
0.0036605034761963817 0.9636334104825465 7.375044068537159
0.0048350101355719355 1.0115939385196788 7.411859855238254
0.00598668621193587 1.058622188474016 7.447960000297212
0.007115531705288183 1.1047181603455578 7.483344503714032
0.00822154661562888 1.1498818541343045 7.518013365488712
0.009304730942957952 1.194113269840256 7.551966585621256
0.010365084687275409 1.2374124074634123 7.585204164111661
0.011402607848581244 1.2797792670037733 7.617726100959929
0.01241730042687546 1.3212138484613392 7.649532396166059
0.013409162422158052 1.3617161518361094 7.68062304973005
0.014378193834429027 1.401286177128085 7.710998061651903
0.015324394663688385 1.4399239243372648 7.74065743193162
0.01624776490993612 1.4776293934636497 7.769601160569197
0.017148304573172235 1.5144025845072393 7.7978292475646365
0.01802601365339673 1.550243497468034 7.825341692917941
0.01888089215060961 1.5851521323460331 7.852138496629104
0.019712940064810867 1.6191284891412372 7.8782196586981295
0.020522157396000506 1.6521725678536459 7.903585179125018
0.02130854414417852 1.6842843684832594 7.9282350579097685
0.02207210030934492 1.7154638910300777 7.952169295052381
0.02281282589149969 1.7457111354941004 7.975387890552855
0.02353072089064285 1.775026101875328 7.9978908444111925
0.024225785306774387 1.803408790173761 8.019678156627391
0.02489801913989431 1.830859200389398 8.040749827201452
0.025547422390002603 1.8573773325222402 8.061105856133375
0.026173995057099282 1.8829631865722871 8.08074624342316
0.026777737141184338 1.9076167625395388 8.099670989070807
0.02735864864225778 1.931338060423995 8.117880093076316
0.027916729560319594 1.954127080225656 8.135373555439687
0.028451979895369787 1.9759838219445223 8.152151376160921
0.028964399647408372 1.9969082855805926 8.168213555240015
0.029453988816435326 2.0169004711338685 8.183560092676974
0.02992074740245067 2.035960378604349 8.198190988471794
0.030364675405454393 2.054088007992034 8.212106242624476
0.030785772825446485 2.0712833592969235 8.22530585513502
0.03118403966242697 2.0875464325190185 8.237789826003425
0.031559475916395824 2.1028772276583174 8.249558155229693
0.03191208158735308 2.1172757447148216 8.260610842813822
0.03224185667529869 2.1307419836885306 8.270947888755815
0.03254880118023269 2.143275944579444 8.280569293055668
0.03283291510215507 2.1548776273875623 8.289475055713385
0.03309419844106583 2.165547032112886 8.297665176728964
0.03333265119696496 2.1752841587554137 8.305139656102403
0.033548273369852485 2.1840890073151464 8.311898493833706
0.03374106495972839 2.191961577792084 8.317941689922872
0.03391102596659267 2.1989018701862264 8.323269244369898
0.034058156390445335 2.2049098844975736 8.327881157174787
0.03418245623128638 2.2099856207261253 8.331777428337537
0.04785543872380113 2.378460974943973 5.799119744288837
0.047731138882960086 2.3745666194151873 5.8041969504350295
0.04758400845910743 2.369956974095401 5.810206704648889
0.04741404745224315 2.3646320389846123 5.817149006930419
0.047221255862367244 2.358591814082822 5.825023857279614
0.04700563368947972 2.3518362993900306 5.833831255696479
0.04676718093358058 2.3443654949062385 5.843571202181012
0.04650589759466981 2.336179400631444 5.854243696733212
0.04622178367274744 2.327278016565648 5.865848739353081
0.04591483916781343 2.3176613427088513 5.878386330040617
0.04558506407986781 2.3073293790610525 5.8918564687958215
0.045232458408910575 2.2962821256222528 5.906259155618694
0.04485702215494171 2.284519582392451 5.9215943905092345
0.04445875531796123 2.272041749371649 5.937862173467443
0.04403765789796913 2.2588486265598444 5.95506250449332
0.043593729894965405 2.2449402139570385 5.973195383586864
0.04312697130895006 2.2303165115632315 5.992260810748077
0.042637382139923095 2.214977519378423 6.012258785976957
0.04212496238788452 2.198923237402613 6.033189309273506
0.04158971205283432 2.182153665635801 6.055052380637722
0.041031631134772505 2.164668804077989 6.077848000069606
0.040450719633699055 2.1464686527291743 6.101576167569158
0.03984697754961399 2.1275532115893583 6.126236883136379
0.03922040488251731 2.1079224806585413 6.1518301467712675
0.038571001632409015 2.087576459936723 6.178355958473825
0.037898767799289086 2.0665151494239025 6.205814318244048
0.03720370338315755 2.0447385491200816 6.234205226081941
0.03648580838401439 2.0222466590252584 6.263528681987501
0.03574508280185961 1.999039479139434 6.2937846859607305
0.03498152663669321 1.975117009462608 6.324973238001626
0.034195139888515184 1.9504792499947812 6.3570943381101905
0.03338592255732555 1.9251262007359526 6.390147986286424
0.032553874643124286 1.8990578616861222 6.424134182530324
0.03169899614591141 1.8722742328452908 6.459052926841892
0.030821287065686903 1.8447753142134575 6.494904219221129
0.029920747402450782 1.8165611057906232 6.531688059668033
0.02899737715620305 1.7876316075767875 6.569404448182606
0.028051176326943685 1.75798681957195 6.608053384764846
0.0270821449146727 1.7276267417761113 6.647634869414755
0.026090282919390112 1.6965513741892715 6.6881489021323315
0.02507559034109589 1.6647607168114296 6.729595482917576
0.024038067179790047 1.6322547696425866 6.771974611770488
0.02297771343547259 1.5990335326827423 6.815286288691069
0.021894529108143504 1.5650970059318965 6.859530513679318
0.020788514197802803 1.530445189390049 6.904707286735235
0.019659668704450482 1.4950780830572001 6.950816607858819
0.01850799262808654 1.45899568693335 6.9978584770500705
0.017333485968710982 1.4221980010184982 7.04583289430899
0.016136148726323806 1.3846850253126455 7.094739859635579
0.014915980900925005 1.346456759815791 7.144579373029836
0.013672982492514587 1.307513204527935 7.19535143449176
0.014915980900925 1.3582705668134532 7.234314146119268
0.016136148726323792 1.408095651016176 7.2725612161046405
0.017333485968710968 1.4569884571361036 7.310092644447873
0.018507992628086525 1.504948985173236 7.346908431148969
0.019659668704450458 1.5519772351275731 7.383008576207925
0.020788514197802768 1.598073206999115 7.418393079624744
0.021894529108143466 1.6432369007878618 7.453061941399426
0.022977713435472537 1.6874683164938133 7.487015161531969
0.024038067179789995 1.7307674541169698 7.520252740022375
0.025075590341095834 1.7731343136573308 7.552774676870641
0.026090282919390043 1.8145688951148964 7.584580972076771
0.027082144914672642 1.8550711984896666 7.615671625640764
0.028051176326943608 1.8946412237816421 7.646046637562616
0.028997377156202972 1.9332789709908225 7.675706007842334
0.029920747402450706 1.970984440117207 7.704649736479911
0.03082128706568682 2.0077576311607963 7.73287782347535
0.031698996145911325 2.0435985441215916 7.760390268828653
0.032553874643124196 2.0785071789995904 7.787187072539818
0.033385922557325455 2.1124835357947944 7.813268234608843
0.034195139888515094 2.145527614507203 7.838633755035732
0.034981526636693114 2.1776394151368166 7.8632836338204815
0.0357450828018595 2.2088189376836347 7.887217870963095
0.03648580838401427 2.239066182147657 7.910436466463569
0.03720370338315744 2.268381148528886 7.932939420321905
0.037898767799288975 2.296763836827318 7.954726732538104
0.03857100163240889 2.3242142470429554 7.975798403112165
0.03922040488251719 2.3507323791757972 7.996154432044087
0.03984697754961387 2.3763182332258443 8.015794819333873
0.04045071963369893 2.400971809193096 8.03471956498152
0.041031631134772366 2.4246931070775526 8.052928668987029
0.04158971205283418 2.4474821268792137 8.070422131350401
0.04212496238788438 2.4693388685980797 8.087199952071634
0.04263738213992296 2.49026333223415 8.103262131150728
0.043126971308949914 2.5102555177874253 8.118608668587687
0.043593729894965266 2.5293154252579058 8.133239564382507
0.04403765789796898 2.5474430546455915 8.147154818535189
0.04445875531796107 2.5646384059504808 8.160354431045732
0.044857022154941556 2.5809014791725753 8.172838401914138
0.045232458408910416 2.5962322743118746 8.184606731140406
0.04558506407986766 2.6106307913683793 8.195659418724535
0.045914839167813276 2.624097030342088 8.205996464666528
0.046221783672747284 2.6366309912330017 8.215617868966381
0.04650589759466966 2.64823267404112 8.224523631624098
0.04676718093358041 2.6589020787664435 8.232713752639677
0.04700563368947955 2.6686392054089705 8.240188232013118
0.04722125586236707 2.6774440539687037 8.246947069744419
0.04741404745224298 2.6853166244456412 8.252990265833585
0.047584008459107256 2.6922569168397836 8.258317820280611
0.04773113888295992 2.6982649311511304 8.2629297330855
0.047855438723800964 2.7033406673796825 8.266826004248252
0.04437504318025196 2.2531750355161915 5.8178962033842545
0.04423932804790511 2.248923035091905 5.823439683564281
0.04408078233254664 2.243955744876617 5.829915711811976
0.04389940603417655 2.238273164870328 5.837324288127339
0.043695199152794836 2.2318752950730376 5.845665412510369
0.04346816168840151 2.2247621354847453 5.854939084961067
0.04321829364099655 2.2169336861054516 5.865145305479434
0.04294559501057998 2.208389946935157 5.8762840740654685
0.04265006579715179 2.1991309179738607 5.888355390719171
0.042331706000711976 2.1891565992215627 5.901359255440541
0.04199051562126054 2.178466990678263 5.91529566822958
0.041626494658797496 2.1670620923439627 5.930164629086286
0.04123964311332282 2.154941904218661 5.94596613801066
0.04082996098483654 2.142106426302357 5.962700195002703
0.040397448273338625 2.1285556585950522 5.980366800062413
0.039942104978829086 2.114289601096746 5.998965953189792
0.03946393110130793 2.099308253807438 6.018497654384838
0.038962926640775164 2.0836116167271284 6.038961903647553
0.03843909159723077 2.067199689855818 6.060358700977935
0.03789242597067476 2.050072473193506 6.082688046375986
0.037322929761107126 2.032229966740192 6.105949939841704
0.03673060296852788 2.013672170495877 6.130144381375091
0.03611544559293701 1.9943990844605606 6.155271370976145
0.03547745763433452 1.9744107086342426 6.181330908644868
0.03481663909272041 1.9537070430169234 6.208322994381258
0.034132989968094676 1.9322880876086026 6.236247628185317
0.03342651026045733 1.9101538424092803 6.265104810057043
0.03269719996980836 1.887304307418957 6.294894539996437
0.03194505909614777 1.8637394826376321 6.3256168180035
0.03117008763947555 1.8394593680653053 6.357271644078231
0.030372285599791726 1.8144639637019773 6.389859018220629
0.029551652977096266 1.7887532695476478 6.423378940430696
0.0287081897713892 1.762327285602317 6.45783141070843
0.02784189598267051 1.7351860118659848 6.493216429053832
0.026952771610940205 1.707329448338651 6.5295339954669025
0.02604081665619827 1.6787575950203162 6.566784109947642
0.02510603111844472 1.64947045191098 6.604966772496048
0.024148414997679554 1.6194680190106416 6.644081983112123
0.02316796829390276 1.588750296319302 6.684129741795864
0.022164691007114354 1.5573172838369613 6.725110048547276
0.021138583137314322 1.5251689815636191 6.767022903366354
0.020089644684502674 1.4923053894992755 6.8098683062531
0.019017875648679402 1.4587265076439302 6.853646257207515
0.017923276029844507 1.4244323359975835 6.898356756229596
0.016805845827998 1.3894228745602355 6.943999803319348
0.015665585043139873 1.353698123331886 6.990575398476766
0.014502493675270123 1.3172580823125353 7.038083541701853
0.01331657172438875 1.2801027515021826 7.086524232994607
0.01210781919049576 1.2422321309008288 7.13589747235503
0.01087623607359115 1.2036462205084737 7.18620325978312
0.010876236073591146 1.2095531240073047 7.2310706463278365
0.01210781919049575 1.2598443472514251 7.269675537134277
0.013316571724388736 1.3092032924127506 7.307564786298579
0.014502493675270098 1.3576299594912804 7.344738393820743
0.015665585043139845 1.4051243484870155 7.381196359700768
0.016805845827997965 1.4516864593999548 7.416938683938655
0.017923276029844473 1.497316292230099 7.451965366534407
0.01901787564867936 1.5420138469774483 7.486276407488019
0.02008964468450262 1.585779123642002 7.519871806799493
0.021138583137314267 1.6286121222237606 7.55275156446883
0.0221646910071143 1.6705128427227245 7.584915680496028
0.023167968293902698 1.7114812851388923 7.616364154881089
0.02414841499767948 1.7515174494722654 7.647096987624012
0.025106031118444647 1.7906213357228427 7.677114178724796
0.026040816656198198 1.8287929438906254 7.706415728183443
0.02695277161094012 1.8660322739756128 7.735001635999952
0.027841895982670426 1.9023393259778045 7.762871902174324
0.02870818977138911 1.9377140998972016 7.790026526706557
0.029551652977096176 1.9721565957338028 7.816465509596651
0.03037228559979162 2.0056668134876094 7.842188850844608
0.03117008763947545 2.0382447531586205 7.867196550450429
0.03194505909614766 2.0698904147468364 7.891488608414109
0.032697199969808244 2.1006037982522567 7.915065024735653
0.03342651026045721 2.1303849036748823 7.937925799415058
0.034132989968094565 2.1592337310147123 7.960070932452327
0.03481663909272028 2.187150280271747 7.981500423847457
0.035477457634334394 2.214134551445987 8.002214273600448
0.03611544559293688 2.2401865445374316 8.022212481711302
0.03673060296852776 2.2653062595460813 8.041495048180018
0.03732292976110701 2.2894936964719355 8.060061973006597
0.037892425970674624 2.312748855314994 8.077913256191037
0.03843909159723064 2.3350717360752578 8.095048897733339
0.038962926640775025 2.356462338752726 8.111468897633504
0.03946393110130779 2.3769206633473985 8.12717325589153
0.03994210497882894 2.3964467098592763 8.142161972507418
0.040397448273338465 2.4150404782883594 8.15643504748117
0.040829960984836385 2.432701968634647 8.169992480812782
0.04123964311332267 2.449431180898139 8.182834272502257
0.04162649465879734 2.465228115078836 8.194960422549594
0.041990515621260396 2.4800927711767375 8.206370930954792
0.04233170600071183 2.4940251491918444 8.217065797717854
0.04265006579715163 2.507025249124155 8.227045022838777
0.04294559501057982 2.519093070973671 8.236308606317563
0.04321829364099638 2.530228614740392 8.244856548154209
0.043468161688401334 2.5404318804243173 8.252688848348718
0.04369519915279467 2.549702868025448 8.25980550690109
0.04389940603417638 2.558041577543783 8.266206523811324
0.044080782332546475 2.565448008979323 8.271891899079419
0.044239328047904945 2.5719221623320676 8.276861632705376
0.044375043180251796 2.5774640376020175 8.281115724689197

CELLS 200 700
4 0 101 102 1
4 1 102 103 2
4 2 103 104 3
4 3 104 105 4
4 4 105 106 5
4 5 106 107 6
4 6 107 108 7
4 7 108 109 8
4 8 109 110 9
4 9 110 111 10
4 10 111 112 11
4 11 112 113 12
4 12 113 114 13
4 13 114 115 14
4 14 115 116 15
4 15 116 117 16
4 16 117 118 17
4 17 118 119 18
4 18 119 120 19
4 19 120 121 20
4 20 121 122 21
4 21 122 123 22
4 22 123 124 23
4 23 124 125 24
4 24 125 126 25
4 25 126 127 26
4 26 127 128 27
4 27 128 129 28
4 28 129 130 29
4 29 130 131 30
4 30 131 132 31
4 31 132 133 32
4 32 133 134 33
4 33 134 135 34
4 34 135 136 35
4 35 136 137 36
4 36 137 138 37
4 37 138 139 38
4 38 139 140 39
4 39 140 141 40
4 40 141 142 41
4 41 142 143 42
4 42 143 144 43
4 43 144 145 44
4 44 145 146 45
4 45 146 147 46
4 46 147 148 47
4 47 148 149 48
4 48 149 150 49
4 49 150 151 50
4 50 151 152 51
4 51 152 153 52
4 52 153 154 53
4 53 154 155 54
4 54 155 156 55
4 55 156 157 56
4 56 157 158 57
4 57 158 159 58
4 58 159 160 59
4 59 160 161 60
4 60 161 162 61
4 61 162 163 62
4 62 163 164 63
4 63 164 165 64
4 64 165 166 65
4 65 166 167 66
4 66 167 168 67
4 67 168 169 68
4 68 169 170 69
4 69 170 171 70
4 70 171 172 71
4 71 172 173 72
4 72 173 174 73
4 73 174 175 74
4 74 175 176 75
4 75 176 177 76
4 76 177 178 77
4 77 178 179 78
4 78 179 180 79
4 79 180 181 80
4 80 181 182 81
4 81 182 183 82
4 82 183 184 83
4 83 184 185 84
4 84 185 186 85
4 85 186 187 86
4 86 187 188 87
4 87 188 189 88
4 88 189 190 89
4 89 190 191 90
4 90 191 192 91
4 91 192 193 92
4 92 193 194 93
4 93 194 195 94
4 94 195 196 95
4 95 196 197 96
4 96 197 198 97
4 97 198 199 98
4 98 199 200 99
4 99 200 201 100
1 202
1 203
1 204
1 205
1 206
1 207
1 208
1 209
1 210
1 211
1 212
1 213
1 214
1 215
1 216
1 217
1 218
1 219
1 220
1 221
1 222
1 223
1 224
1 225
1 226
1 227
1 228
1 229
1 230
1 231
1 232
1 233
1 234
1 235
1 236
1 237
1 238
1 239
1 240
1 241
1 242
1 243
1 244
1 245
1 246
1 247
1 248
1 249
1 250
1 251
1 252
1 253
1 254
1 255
1 256
1 257
1 258
1 259
1 260
1 261
1 262
1 263
1 264
1 265
1 266
1 267
1 268
1 269
1 270
1 271
1 272
1 273
1 274
1 275
1 276
1 277
1 278
1 279
1 280
1 281
1 282
1 283
1 284
1 285
1 286
1 287
1 288
1 289
1 290
1 291
1 292
1 293
1 294
1 295
1 296
1 297
1 298
1 299
1 300
1 301

CELL_TYPES 200
9
9
9
9
9
9
9
9
9
9
9
9
9
9
9
9
9
9
9
9
9
9
9
9
9
9
9
9
9
9
9
9
9
9
9
9
9
9
9
9
9
9
9
9
9
9
9
9
9
9
9
9
9
9
9
9
9
9
9
9
9
9
9
9
9
9
9
9
9
9
9
9
9
9
9
9
9
9
9
9
9
9
9
9
9
9
9
9
9
9
9
9
9
9
9
9
9
9
9
9
1
1
1
1
1
1
1
1
1
1
1
1
1
1
1
1
1
1
1
1
1
1
1
1
1
1
1
1
1
1
1
1
1
1
1
1
1
1
1
1
1
1
1
1
1
1
1
1
1
1
1
1
1
1
1
1
1
1
1
1
1
1
1
1
1
1
1
1
1
1
1
1
1
1
1
1
1
1
1
1
1
1
1
1
1
1
1
1
1
1
1
1
1
1
1
1
1
1
1
1

CELL_DATA 200

VECTORS Vinf float
5.247221280917557 39.242815390366 -15.740720711134895
5.233124708475435 39.28224452399209 -15.712688440993956
5.1989759195387455 39.32817560770715 -15.686093329146322
5.177510226769206 39.38069036123743 -15.649488863919762
5.15744417996791 39.439753623755266 -15.607536837042339
5.135717322257057 39.50530873976161 -15.560977737598286
5.112547939987621 39.5773171026938 -15.509836590590455
5.088184801079649 39.655735921616994 -15.454139526462724
5.062904441943093 39.7405189231873 -15.39391300186551
5.037006332092843 39.83161737696003 -15.329182870037274
5.010805882935182 39.92898142916019 -15.259973340335781
4.984625511291031 40.032561689545915 -15.186305890925205
4.958784244068129 40.14231097288019 -15.108198220592358
4.933586617760615 40.258186057896445 -15.025663340226425
4.90931183292597 40.38014930104854 -14.93870890659641
4.886657865248001 40.508584037300714 -14.84692435676764
4.866933459201946 40.64352756591913 -14.748106189724243
4.844252967863463 40.78229925013813 -14.651320221339759
4.825673964900527 40.928385614074514 -14.546653482145311
4.808793100705534 41.080483661129264 -14.437526848796407
4.793635202657175 41.238598755241725 -14.323921677412441
4.780192994456651 41.402740544941814 -14.20581843003132
4.761435413566595 41.5661774215191 -14.102700056967358
4.753454120914184 41.743914998016926 -13.971033453646898
4.746502237021705 41.92763437455708 -13.835213061143234
4.7406576391488535 42.1173076151746 -13.695285495038437
4.735994013661602 42.312906092944736 -13.551299393348398
4.73258287513071 42.51440013104815 -13.40330561167182
4.730496491559159 42.72175858139939 -13.251357365476323
4.729811672761283 42.93494836526109 -13.095510307517442
4.730614222597221 43.153934020406886 -12.935822531968237
4.733003708863685 43.378677310253764 -12.772354505475484
4.736352089557568 43.606235756514984 -12.611208887181926
4.739346260400194 43.84436505425939 -12.436373791608252
4.744055320897642 44.08848257667018 -12.25713857222027
4.750605157660828 44.33857216293432 -12.073505332149455
4.75911292610666 44.59461989602919 -11.885476046037814
4.769672770484189 44.856615853329004 -11.693052395617563
4.782329948231016 45.124557003831136 -11.496235335743211
4.797041407145849 45.398451329180965 -11.295024433745612
4.815599511223897 45.677743139910156 -11.090633957104018
4.833587143222237 45.964002733199095 -10.87972429699955
4.850714472843473 46.255912202789034 -10.664278488085708
4.868522037803559 46.55487629487042 -10.444151108887276
4.885258255009244 46.86022669090252 -10.219365421782907
4.899751201614046 47.1720837702437 -9.989911719174838
4.9110684217993334 47.49053643856284 -9.755800738421694
4.91899586220887 47.81539153574459 -9.5174659593926
4.922991562078491 48.147327470872774 -9.273590846351832
4.924452405066967 48.485766028137235 -9.025147423686128
4.925657007792396 48.781711731521256 -9.07077251059269
4.926935009617956 49.029763123597 -9.409403724732211
4.925908320044435 49.273485867834694 -9.741611124473486
4.9214943665668605 49.51297382398578 -10.067493394150455
4.913512528796786 49.74828738288802 -10.387325516218626
4.9019158054736875 49.9791587209418 -10.701262814656397
4.8898990025930384 50.204769887979474 -11.011016565833998
4.873402345252366 50.426679966589965 -11.313056283636923
4.856690319586991 50.644106145177965 -11.608620675448607
4.840699160571591 50.8569535990491 -11.897674041213609
4.826046054247003 51.06515816296607 -12.180190270416327
4.813057272830222 51.26868389498767 -12.456155070638328
4.801841166070326 51.46751643681127 -12.72556464644916
4.79588986316501 51.6592636873005 -12.994439835324837
4.78379962059628 51.84891061715805 -13.250034294715485
4.776398683986838 52.03313192061567 -13.501742156483116
4.7703943912607425 52.212768407479594 -13.746683402115975
4.765683809149312 52.38782398506759 -13.984889506898712
4.7621885032685185 52.558300189139516 -14.216390419821359
4.759847899290789 52.724196688476134 -14.441214601143363
4.758608182850233 52.8855121921853 -14.659389454220701
4.758408843891031 53.04224554721335 -14.870942052421947
4.7589069406993145 53.1898042968638 -15.08905360861128
4.75964984920774 53.33665598640607 -15.289614080522119
4.761498962982839 53.47889832214585 -15.483638472271265
4.7645024281793 53.61652151075479 -15.671143905475805
4.7687284746504215 53.74951459455017 -15.852145129176314
4.775297142559237 53.87743856173157 -16.02754163519141
4.783123374566513 54.00046942270914 -16.19700301360815
4.792639432501746 54.11877415573628 -16.36009113750375
4.80395351113999 54.23234796071022 -16.516794116764274
4.817147557988318 54.341188129831274 -16.66710096908077
4.832264022894942 54.445294922705436 -16.8110025572209
4.849293598763701 54.54467234297801 -16.9484925411329
4.8681657587575335 54.63932869557679 -17.079568222627827
4.89072443293928 54.728283535289286 -17.206483190295604
4.910824329883031 54.814533973586514 -17.322487493894048
4.934144485592666 54.895121272881596 -17.434347848214728
4.9583910666243485 54.97106290086727 -17.53982696998397
4.9832154751056486 55.042385025880314 -17.638943010361533
5.008249677028928 55.109114645227 -17.731716629933093
5.033122472163154 55.17127844579962 -17.818170002777244
5.0574743746363655 55.228901791543535 -17.89832582625665
5.080969942830035 55.28200791366859 -17.972206422092206
5.103306872117928 55.33061734494659 -18.039832989030486
5.124221631970302 55.37474760639908 -18.10122503965614
5.145405728867871 55.412758941541604 -18.160589931822845
5.163119324367832 55.44794272132028 -18.209532806342466
5.178828074863344 55.47869230335511 -18.252271171952952
5.1924220101412235 55.50501136762099 -18.288823614536515
5.247221280917557 39.242815390366 -15.740720711134895
5.233124708475435 39.28224452399209 -15.712688440993956
5.1989759195387455 39.32817560770715 -15.686093329146322
5.177510226769206 39.38069036123743 -15.649488863919762
5.15744417996791 39.439753623755266 -15.607536837042339
5.135717322257057 39.50530873976161 -15.560977737598286
5.112547939987621 39.5773171026938 -15.509836590590455
5.088184801079649 39.655735921616994 -15.454139526462724
5.062904441943093 39.7405189231873 -15.39391300186551
5.037006332092843 39.83161737696003 -15.329182870037274
5.010805882935182 39.92898142916019 -15.259973340335781
4.984625511291031 40.032561689545915 -15.186305890925205
4.958784244068129 40.14231097288019 -15.108198220592358
4.933586617760615 40.258186057896445 -15.025663340226425
4.90931183292597 40.38014930104854 -14.93870890659641
4.886657865248001 40.508584037300714 -14.84692435676764
4.866933459201946 40.64352756591913 -14.748106189724243
4.844252967863463 40.78229925013813 -14.651320221339759
4.825673964900527 40.928385614074514 -14.546653482145311
4.808793100705534 41.080483661129264 -14.437526848796407
4.793635202657175 41.238598755241725 -14.323921677412441
4.780192994456651 41.402740544941814 -14.20581843003132
4.761435413566595 41.5661774215191 -14.102700056967358
4.753454120914184 41.743914998016926 -13.971033453646898
4.746502237021705 41.92763437455708 -13.835213061143234
4.7406576391488535 42.1173076151746 -13.695285495038437
4.735994013661602 42.312906092944736 -13.551299393348398
4.73258287513071 42.51440013104815 -13.40330561167182
4.730496491559159 42.72175858139939 -13.251357365476323
4.729811672761283 42.93494836526109 -13.095510307517442
4.730614222597221 43.153934020406886 -12.935822531968237
4.733003708863685 43.378677310253764 -12.772354505475484
4.736352089557568 43.606235756514984 -12.611208887181926
4.739346260400194 43.84436505425939 -12.436373791608252
4.744055320897642 44.08848257667018 -12.25713857222027
4.750605157660828 44.33857216293432 -12.073505332149455
4.75911292610666 44.59461989602919 -11.885476046037814
4.769672770484189 44.856615853329004 -11.693052395617563
4.782329948231016 45.124557003831136 -11.496235335743211
4.797041407145849 45.398451329180965 -11.295024433745612
4.815599511223897 45.677743139910156 -11.090633957104018
4.833587143222237 45.964002733199095 -10.87972429699955
4.850714472843473 46.255912202789034 -10.664278488085708
4.868522037803559 46.55487629487042 -10.444151108887276
4.885258255009244 46.86022669090252 -10.219365421782907
4.899751201614046 47.1720837702437 -9.989911719174838
4.9110684217993334 47.49053643856284 -9.755800738421694
4.91899586220887 47.81539153574459 -9.5174659593926
4.922991562078491 48.147327470872774 -9.273590846351832
4.924452405066967 48.485766028137235 -9.025147423686128
4.925657007792396 48.781711731521256 -9.07077251059269
4.926935009617956 49.029763123597 -9.409403724732211
4.925908320044435 49.273485867834694 -9.741611124473486
4.9214943665668605 49.51297382398578 -10.067493394150455
4.913512528796786 49.74828738288802 -10.387325516218626
4.9019158054736875 49.9791587209418 -10.701262814656397
4.8898990025930384 50.204769887979474 -11.011016565833998
4.873402345252366 50.426679966589965 -11.313056283636923
4.856690319586991 50.644106145177965 -11.608620675448607
4.840699160571591 50.8569535990491 -11.897674041213609
4.826046054247003 51.06515816296607 -12.180190270416327
4.813057272830222 51.26868389498767 -12.456155070638328
4.801841166070326 51.46751643681127 -12.72556464644916
4.79588986316501 51.6592636873005 -12.994439835324837
4.78379962059628 51.84891061715805 -13.250034294715485
4.776398683986838 52.03313192061567 -13.501742156483116
4.7703943912607425 52.212768407479594 -13.746683402115975
4.765683809149312 52.38782398506759 -13.984889506898712
4.7621885032685185 52.558300189139516 -14.216390419821359
4.759847899290789 52.724196688476134 -14.441214601143363
4.758608182850233 52.8855121921853 -14.659389454220701
4.758408843891031 53.04224554721335 -14.870942052421947
4.7589069406993145 53.1898042968638 -15.08905360861128
4.75964984920774 53.33665598640607 -15.289614080522119
4.761498962982839 53.47889832214585 -15.483638472271265
4.7645024281793 53.61652151075479 -15.671143905475805
4.7687284746504215 53.74951459455017 -15.852145129176314
4.775297142559237 53.87743856173157 -16.02754163519141