# vtk DataFile Version 4.0
[MyVLM domain - lattices] 
ASCII
DATASET UNSTRUCTURED_GRID
POINTS 302 float
0.034182456231286275 0.29222499009656944 -6.470748392953967
0.03405815639044523 0.29762099402350084 -6.474187458067637
0.033911025966592574 0.3040081007125215 -6.478258188202184
0.033741064959728284 0.31138631016363183 -6.48296058335761
0.03354827336985239 0.3197556223768314 -6.488294643533914
0.033332651196964866 0.32911603735212047 -6.494260368731095
0.03309419844106573 0.339467555089499 -6.500857758949157
0.03283291510215496 0.350810175588967 -6.508086814188093
0.032548801180232595 0.3631438988505242 -6.51594753444791
0.032241856675298594 0.37646872487417116 -6.5244399197286045
0.031912081587352974 0.39078465365990733 -6.533563970030176
0.031559475916395734 0.406091685207733 -6.543319685352627
0.031184039662426874 0.42238981951764787 -6.553707065695955
0.0307857728254464 0.43967905658965223 -6.564726111060161
0.0303646754054543 0.4579593964237463 -6.576376821445245
0.02992074740245058 0.4772308390199296 -6.588659196851209
0.02945398881643524 0.4974933843782023 -6.601573237278049
0.028964399647408285 0.5187470324985646 -6.615118942725769
0.028451979895369704 0.5409917833810163 -6.629296313194364
0.02791672956031951 0.5642276370255572 -6.64410534868384
0.02735864864225769 0.5884545934321879 -6.659546049194193
0.02677773714118425 0.6136726526009078 -6.675618414725424
0.026173995057099202 0.6398818145317171 -6.692322445277533
0.025547422390002524 0.6670820792246159 -6.709658140850521
0.024898019139894232 0.695273446679604 -6.727625501444385
0.024225785306774314 0.7244559168966815 -6.7462245270591294
0.02353072089064278 0.7546294898758488 -6.7654552176947504
0.022812825891499623 0.7857941656171051 -6.78531757335125
0.022072100309344853 0.8179499441204512 -6.805811594028628
0.021308544144178456 0.8510968253858864 -6.826937279726884
0.02052215739600044 0.8852348094134114 -6.848694630446019
0.019712940064810804 0.9203638962030255 -6.871083646186029
0.018880892150609552 0.9564840857547293 -6.89410432694692
0.018026013653396677 0.993595378068522 -6.917756672728687
0.017148304573172186 1.0316977731444048 -6.942040683531335
0.016247764909936072 1.0707912709823768 -6.9669563593548585
0.015324394663688335 1.1108758715824383 -6.9925037001992605
0.014378193834428983 1.1519515749445888 -7.018682706064542
0.013409162422158012 1.194018381068829 -7.045493376950699
0.012417300426875423 1.2370762899551586 -7.072935712857736
0.011402607848581211 1.2811253016035775 -7.101009713785651
0.010365084687275377 1.326165416014086 -7.129715379734443
0.009304730942957928 1.3721966331866842 -7.159052710704114
0.00822154661562885 1.4192189531213717 -7.189021706694663
0.007115531705288161 1.4672323758181485 -7.21962236770609
0.005986686211935848 1.5162369012770147 -7.250854693738396
0.0048350101355719155 1.5662325294979704 -7.282718684791578
0.0036605034761963643 1.6172192604810154 -7.315214340865639
0.0024631662338092 1.6691970942261496 -7.348341661960578
0.0012429984084104096 1.7221660307333735 -7.382100648076395
0.0 1.7761260700026873 -7.416491299213091
0.001242998408410416 1.7417557834276258 -7.470464312138996
0.002463166233809212 1.7080167878304744 -7.52344598401116
0.0036605034761963886 1.6749090832112319 -7.575436314829584
0.004835010135571945 1.6424326695698985 -7.626435304594266
0.005986686211935881 1.6105875469064748 -7.676442953305206
0.007115531705288197 1.5793737152209602 -7.725459260962405
0.008221546615628895 1.548791174513355 -7.773484227565865
0.00930473094295797 1.5188399247836588 -7.820517853115582
0.010365084687275428 1.489519966031872 -7.866560137611558
0.011402607848581265 1.4608312982579945 -7.911611081053793
0.012417300426875482 1.4327739214620263 -7.955670683442287
0.013409162422158076 1.4053478356439675 -7.99873894477704
0.014378193834429051 1.3785530408038178 -8.04081586505805
0.015324394663688413 1.3523895369415775 -8.081901444285322
0.01624776490993615 1.3268573240572465 -8.12199568245885
0.017148304573172266 1.3019564021508248 -8.16109857957864
0.018026013653396768 1.2776867712223123 -8.199210135644687
0.018880892150609646 1.254048431271709 -8.236330350656994
0.019712940064810905 1.231041382299015 -8.272459224615558
0.02052215739600054 1.2086656243042304 -8.307596757520383
0.02130854414417856 1.186921157287355 -8.341742949371465
0.022072100309344957 1.165807981248389 -8.374897800168807
0.02281282589149973 1.1453260961873324 -8.407061309912407
0.023530720890642894 1.125475502104185 -8.438233478602267
0.02422578530677443 1.1062561989989466 -8.468414306238385
0.02489801913989435 1.0876681868716176 -8.497603792820762
0.02554742239000265 1.069711465722198 -8.5258019383494
0.026173995057099327 1.0523860355506875 -8.553008742824293
0.026777737141184386 1.0356918963570867 -8.579224206245447
0.027358648642257826 1.0196290481413948 -8.604448328612861
0.02791672956031965 1.0041974909036124 -8.628681109926532
0.028451979895369846 0.9893972246437394 -8.651922550186463
0.028964399647408417 0.9752282493617753 -8.674172649392652
0.02945398881643538 0.9616905650577205 -8.695431407545101
0.029920747402450727 0.948784171731575 -8.715698824643807
0.030364675405454445 0.9365090693833389 -8.734974900688774
0.03078577282544654 0.9248652580130123 -8.75325963568
0.031184039662427034 0.9138527376205946 -8.770553029617483
0.031559475916395886 0.9034715082060866 -8.786855082501226
0.03191208158735313 0.8937215697694874 -8.802165794331227
0.03224185667529875 0.8846029223107981 -8.816485165107487
0.03254880118023275 0.8761155658300176 -8.829813194830008
0.03283291510215513 0.8682595003271466 -8.842149883498786
0.0330941984410659 0.8610347258021844 -8.853495231113822
0.033332651196965025 0.8544412422551322 -8.863849237675119
0.03354827336985255 0.848479049685989 -8.873211903182673
0.03374106495972845 0.8431481480947548 -8.881583227636487
0.033911025966592734 0.8384485374814303 -8.888963211036561
0.0340581563904454 0.8343802178460148 -8.895351853382891
0.03418245623128644 0.8309431891885086 -8.900749154675482
0.04785543872380082 -0.19359180204748982 -6.57845138279462
0.04773113888295978 -0.18819579812055864 -6.58189044790829
0.04758400845910712 -0.181808691431538 -6.585961178042838
0.047414047452242834 -0.17443048198042765 -6.590663573198263
0.04722125586236693 -0.16606116976722807 -6.595997633374567
0.04700563368947941 -0.1567007547919388 -6.601963358571749
0.046767180933580274 -0.1463492370545605 -6.6085607487898095
0.04650589759466951 -0.1350066165550925 -6.615789804028747
0.04622178367274714 -0.12267289329353526 -6.623650524288563
0.04591483916781314 -0.10934806726988831 -6.632142909569257
0.04558506407986752 -0.09503213848415215 -6.641266959870831
0.045232458408910284 -0.0797251069363265 -6.65102267519328
0.044857022154941424 -0.06342697262641162 -6.661410055536609
0.044458755317960945 -0.04613773555440703 -6.672429100900814
0.044037657897968846 -0.027857395720313205 -6.6840798112858995
0.04359372989496513 -0.008585953124129686 -6.696362186691862
0.04312697130894979 0.01167659223414308 -6.709276227118703
0.04263738213992283 0.032930240354505314 -6.722821932566422
0.042124962387884254 0.0551749912369568 -6.736999303035018
0.04158971205283406 0.07841084488149797 -6.751808338524493
0.04103163113477224 0.1026378012881284 -6.767249039034847
0.040450719633698805 0.1278558604568485 -6.783321404566078
0.03984697754961375 0.15406502238765785 -6.8000254351181875
0.03922040488251707 0.18126528708055667 -6.817361130691174
0.03857100163240877 0.20945665453554452 -6.83532849128504
0.03789876779928886 0.23863912475262253 -6.853927516899782
0.03720370338315733 0.2688126977317895 -6.873158207535404
0.03648580838401417 0.29997737347304576 -6.893020563191903
0.03574508280185939 0.3321331519763917 -6.913514583869282
0.03498152663669301 0.3652800332418271 -6.934640269567538
0.03419513988851498 0.3994180172693522 -6.95639762028667
0.03338592255732535 0.4345471040589659 -6.978786636026683
0.03255387464312409 0.47066729361066995 -7.0018073167875725
0.03169899614591123 0.5077785859244628 -7.025459662569341
0.03082128706568673 0.5458809810003455 -7.049743673371988
0.029920747402450616 0.5849744788383173 -7.074659349195512
0.028997377156202885 0.6250590794383786 -7.100206690039914
0.028051176326943525 0.6661347828005295 -7.126385695905193
0.027082144914672562 0.7082015889247697 -7.153196366791353
0.026090282919389966 0.7512594978110991 -7.18063870269839
0.025075590341095758 0.7953085094595183 -7.208712703626304
0.024038067179789926 0.8403486238700267 -7.237418369575097
0.02297771343547247 0.8863798410426246 -7.266755700544768
0.021894529108143396 0.9334021609773123 -7.296724696535317
0.020788514197802706 0.9814155836740891 -7.3273253575467425
0.019659668704450396 1.0304201091329555 -7.358557683579049
0.018507992628086462 1.080415737353911 -7.390421674632233
0.01733348596871091 1.1314024683369561 -7.422917330706293
0.016136148726323744 1.1833803020820906 -7.456044651801231
0.014915980900924955 1.2363492385893142 -7.489803637917049
0.013672982492514543 1.2903092778586278 -7.524194289053746
0.01491598090092496 1.2559389912835668 -7.578167301979649
0.016136148726323758 1.222199995686415 -7.631148973851815
0.017333485968710937 1.1890922910671724 -7.683139304670236
0.01850799262808649 1.1566158774258393 -7.734138294434919
0.019659668704450427 1.1247707547624155 -7.78414594314586
0.02078851419780274 1.0935569230769009 -7.833162250803059
0.02189452910814344 1.0629743823692954 -7.881187217406517
0.022977713435472516 1.0330231326395993 -7.928220842956233
0.02403806717978997 1.0037031738878128 -7.974263127452211
0.025075590341095813 0.9750145061139353 -8.019314070894445
0.026090282919390025 0.9469571293179672 -8.063373673282939
0.027082144914672618 0.9195310434999082 -8.106441934617692
0.028051176326943594 0.8927362486597586 -8.148518854898704
0.028997377156202958 0.866572744797518 -8.189604434125975
0.029920747402450692 0.8410405319131872 -8.229698672299504
0.030821287065686806 0.8161396100067656 -8.268801569419292
0.03169899614591131 0.7918699790782529 -8.306913125485341
[...]
CELL_DATA 200

VECTORS Vinf float
5.239541301128732 -42.26180760378691 1.3702860075154917
5.225226426319167 -42.28926541782335 1.3302870125378519
5.20876118343861 -42.32131073531899 1.2835846992465925
5.1896275627778 -42.35801652636589 1.2303660974515813
5.1694540425083195 -42.399143288152956 1.1707318193913565
5.147610378297716 -42.444791907939184 1.104546359763871
5.124315871995946 -42.49493467873009 1.0318464476057272
5.09982045560467 -42.54954032341854 0.9526713217467495
5.074401967634397 -42.60857438386683 0.8670617579772275
5.048361296248449 -42.67199986342502 0.7750588395689989
5.022015354521682 -42.739778123075936 0.676702513015222
4.995688098247496 -42.811870001675906 0.5720300082032496
4.96970007397335 -42.88823709763288 0.46107423824550986
4.944357253923975 -42.96884311780355 0.3438623217541945
4.921417493937143 -43.053570791941446 0.21953623694616334
4.898599587785729 -43.14247285110374 0.09009777085250137
4.876736781979777 -43.235584142436636 -0.04561692536629435
4.856113817913735 -43.332872388290035 -0.18760198057830801
4.836990150939463 -43.43430848415423 -0.3358579599776608
4.819597547182441 -43.539866718261166 -0.4903912230907971
4.804140833507943 -43.649524615673805 -0.6512128532641432
4.790801328237258 -43.7632624701431 -0.8183373265812437
4.7797421227478765 -43.88106266740265 -0.991781114585231
4.771114209549119 -44.00290892101999 -1.171561403813708
4.758814091997955 -44.12956963142492 -1.3571204783836892
4.747375212388677 -44.26028986172583 -1.5485397176161528
4.742871582157331 -44.394664737786464 -1.7477760879087874
4.739286883911801 -44.533259903525504 -1.953379875571057
4.736737078173805 -44.67606231864937 -2.165360298947364
4.735323858611701 -44.823060501324896 -2.3837285327696365
4.735144288273392 -44.97424346887931 -2.6084963950573434
4.7363005531181015 -45.1295996973447 -2.83967533188348
4.738908096675298 -45.28911628592361 -3.0772758439512113
4.7462058902731465 -45.45243453321324 -3.321522131697608
4.75197933951824 -45.62026313279905 -3.571898267342337
4.759412553418101 -45.79224094073957 -3.8287156153489317
4.768608233874063 -45.96835900993872 -4.091975231262046
4.779213698855555 -46.148634770354555 -4.362095731831234
4.7920710092886845 -46.333024112865054 -4.63830463040741
4.806671141262814 -46.521564419294776 -4.9209736702149875
4.82447574029412 -46.71415136943252 -5.209446907005309
4.841814535665012 -46.91106942605763 -5.505176207020223
4.860098257127148 -47.11221972273047 -5.8074505053177745
4.878347052269923 -47.317699742066715 -6.116339653083089
4.8953806542730565 -47.52762409095346 -6.431913887418801
4.90999778379956 -47.742107886736484 -6.7542299691123215
4.918320176078219 -47.96164669044955 -7.083081782178429
4.926400304567444 -48.18536314115333 -7.418877078124032
4.930944493101115 -48.41375225432795 -7.761369370258941
4.932780415844338 -48.64674181477352 -8.110471256888745
4.934056459038503 -48.94045240724645 -8.16889870348147
4.935395924751092 -49.289398578962945 -7.935574561708026
4.934630720346534 -49.632073529613315 -7.706606763100301
4.930661683301517 -49.96860007609655 -7.481945453792339
4.9230555105348435 -50.29903430799705 -7.261537429587441
4.912157559838042 -50.62335055719911 -7.045342877977206
4.898919441534474 -50.94145671186646 -6.833343821983959
4.880490885175402 -51.25347196228259 -6.626304981906883
4.86483683918077 -51.558777592130646 -6.422496763452349
4.849098759672237 -51.85772190937652 -6.223373764534897
4.834654358146652 -52.15006496561175 -6.0284650070994585
4.8218280395698105 -52.435768532323195 -5.837797257327021
4.8107240769961885 -52.71481877503201 -5.651393710744832
4.801302826588051 -52.98721843370451 -5.469273937125163
4.793440430600733 -53.25298031849149 -5.29145419690455
4.785625157794493 -53.51224973814646 -5.11797109760895
4.779785778128794 -53.7648424169984 -4.948771254540421
4.77263377713609 -54.01112729991624 -4.785050853497337
4.769608826830431 -54.25048678845688 -4.624245761751125
4.767317945910508 -54.48328838798244 -4.467821912148842
4.765771347363397 -54.709534785011286 -4.3157830146814256
4.764987825121135 -54.92922737317478 -4.168133100588254
4.764981549651411 -55.14236750728103 -4.024876216334574
4.767205206311012 -55.34880904649347 -3.885260217383028
4.76951167552365 -55.548797410216935 -3.7506413360849273
4.773032841507983 -55.74220067594863 -3.6203645279161134
4.777877485357219 -55.92901051772297 -3.494436531513589
4.784165753606083 -56.109217557131956 -3.3728650165729146
4.792023198082391 -56.28281190136916 -3.2556585089715377
4.801572425698552 -56.44978388011247 -3.1428261946897367
4.81292232359623 -56.610124985557746 -3.034377584401609
4.825617940060925 -56.76394380095721 -2.9301929647837524
4.841799541998952 -56.910913690258795 -2.830550260439648
4.858390908322417 -57.05131866241594 -2.7354233785052413
4.877313789509903 -57.18511291113412 -2.644592894617578
4.897946289561154 -57.3122883661178 -2.5581796555662093
4.920085114172366 -57.43286336291818 -2.476183781014564
4.943466419143491 -57.546861436724726 -2.3986024882872568
4.967776453978711 -57.654310398819085 -2.325430186266669
4.992665800453653 -57.75524110235701 -2.2566587676133767
5.017765526663224 -57.84968604273162 -2.1922780561354736
5.0427035025535485 -57.937677944278356 -2.1322763523366985
5.067119322918299 -58.01924846785723 -2.0766410169464913
5.091350001965776 -58.09437185156913 -2.0246199451146056
5.113602512809411 -58.16319769671063 -1.9777224106908107
5.134470770151458 -58.225678337728056 -1.9351524595915892
5.153722334901639 -58.28183404755084 -1.8968974416182878
5.171167427435486 -58.331681367731875 -1.8629460430708402
5.186655740378761 -58.37523339203052 -1.8332883782947975
5.2000719028562985 -58.41250016571946 -1.8079160110314998
5.239541301128732 -42.26180760378691 1.3702860075154917
5.225226426319167 -42.28926541782335 1.3302870125378519
5.20876118343861 -42.32131073531899 1.2835846992465925
5.1896275627778 -42.35801652636589 1.2303660974515813
5.1694540425083195 -42.399143288152956 1.1707318193913565
5.147610378297716 -42.444791907939184 1.104546359763871
5.124315871995946 -42.49493467873009 1.0318464476057272
5.09982045560467 -42.54954032341854 0.9526713217467495
5.074401967634397 -42.60857438386683 0.8670617579772275
5.048361296248449 -42.67199986342502 0.7750588395689989
5.022015354521682 -42.739778123075936 0.676702513015222
4.995688098247496 -42.811870001675906 0.5720300082032496
4.96970007397335 -42.88823709763288 0.46107423824550986
4.944357253923975 -42.96884311780355 0.3438623217541945
4.921417493937143 -43.053570791941446 0.21953623694616334
4.898599587785729 -43.14247285110374 0.09009777085250137
4.876736781979777 -43.235584142436636 -0.04561692536629435
4.856113817913735 -43.332872388290035 -0.18760198057830801
4.836990150939463 -43.43430848415423 -0.3358579599776608
4.819597547182441 -43.539866718261166 -0.4903912230907971
4.804140833507943 -43.649524615673805 -0.6512128532641432
4.790801328237258 -43.7632624701431 -0.8183373265812437
4.7797421227478765 -43.88106266740265 -0.991781114585231
4.771114209549119 -44.00290892101999 -1.171561403813708
4.758814091997955 -44.12956963142492 -1.3571204783836892
4.747375212388677 -44.26028986172583 -1.5485397176161528
4.742871582157331 -44.394664737786464 -1.7477760879087874
4.739286883911801 -44.533259903525504 -1.953379875571057
4.736737078173805 -44.67606231864937 -2.165360298947364
4.735323858611701 -44.823060501324896 -2.3837285327696365
4.735144288273392 -44.97424346887931 -2.6084963950573434
4.7363005531181015 -45.1295996973447 -2.83967533188348
4.738908096675298 -45.28911628592361 -3.0772758439512113
4.7462058902731465 -45.45243453321324 -3.321522131697608
4.75197933951824 -45.62026313279905 -3.571898267342337
4.759412553418101 -45.79224094073957 -3.8287156153489317
4.768608233874063 -45.96835900993872 -4.091975231262046
4.779213698855555 -46.148634770354555 -4.362095731831234
4.7920710092886845 -46.333024112865054 -4.63830463040741
4.806671141262814 -46.521564419294776 -4.9209736702149875
4.82447574029412 -46.71415136943252 -5.209446907005309
4.841814535665012 -46.91106942605763 -5.505176207020223
4.860098257127148 -47.11221972273047 -5.8074505053177745
4.878347052269923 -47.317699742066715 -6.116339653083089
4.8953806542730565 -47.52762409095346 -6.431913887418801
4.90999778379956 -47.742107886736484 -6.7542299691123215
4.918320176078219 -47.96164669044955 -7.083081782178429
4.926400304567444 -48.18536314115333 -7.418877078124032
4.930944493101115 -48.41375225432795 -7.761369370258941
4.932780415844338 -48.64674181477352 -8.110471256888745
4.934056459038503 -48.94045240724645 -8.16889870348147
4.935395924751092 -49.289398578962945 -7.935574561708026
4.934630720346534 -49.632073529613315 -7.706606763100301
4.930661683301517 -49.96860007609655 -7.481945453792339
4.9230555105348435 -50.29903430799705 -7.261537429587441
4.912157559838042 -50.62335055719911 -7.045342877977206
4.898919441534474 -50.94145671186646 -6.833343821983959
4.880490885175402 -51.25347196228259 -6.626304981906883
4.86483683918077 -51.558777592130646 -6.422496763452349
4.849098759672237 -51.85772190937652 -6.223373764534897
4.834654358146652 -52.15006496561175 -6.0284650070994585
4.8218280395698105 -52.435768532323195 -5.837797257327021
4.8107240769961885 -52.71481877503201 -5.651393710744832
4.801302826588051 -52.98721843370451 -5.469273937125163
4.793440430600733 -53.25298031849149 -5.29145419690455
4.785625157794493 -53.51224973814646 -5.11797109760895
4.779785778128794 -53.7648424169984 -4.948771254540421
4.77263377713609 -54.01112729991624 -4.785050853497337
4.769608826830431 -54.25048678845688 -4.624245761751125
4.767317945910508 -54.48328838798244 -4.467821912148842
4.765771347363397 -54.709534785011286 -4.3157830146814256
4.764987825121135 -54.92922737317478 -4.168133100588254
4.764981549651411 -55.14236750728103 -4.024876216334574
4.767205206311012 -55.34880904649347 -3.885260217383028
4.76951167552365 -55.548797410216935 -3.7506413360849273
4.773032841507983 -55.74220067594863 -3.6203645279161134
4.777877485357219 -55.92901051772297 -3.494436531513589
4.784165753606083 -56.109217557131956 -3.3728650165729146
4.792023198082391 -56.28281190136916 -3.2556585089715377
4.801572425698552 -56.44978388011247 -3.1428261946897367
4.81292232359623 -56.610124985557746 -3.034377584401609
4.825617940060925 -56.76394380095721 -2.9301929647837524
4.841799541998952 -56.910913690258795 -2.830550260439648
4.858390908322417 -57.05131866241594 -2.7354233785052413
4.877313789509903 -57.18511291113412 -2.644592894617578
4.897946289561154 -57.3122883661178 -2.5581796555662093
4.920085114172366 -57.43286336291818 -2.476183781014564
4.943466419143491 -57.546861436724726 -2.3986024882872568
4.967776453978711 -57.654310398819085 -2.325430186266669
4.992665800453653 -57.75524110235701 -2.2566587676133767
5.017765526663224 -57.84968604273162 -2.1922780561354736
5.0427035025535485 -57.937677944278356 -2.1322763523366985
5.067119322918299 -58.01924846785723 -2.0766410169464913
5.091350001965776 -58.09437185156913 -2.0246199451146056
5.113602512809411 -58.16319769671063 -1.9777224106908107
5.134470770151458 -58.225678337728056 -1.9351524595915892
5.153722334901639 -58.28183404755084 -1.8968974416182878
5.171167427435486 -58.331681367731875 -1.8629460430708402
5.186655740378761 -58.37523339203052 -1.8332883782947975
5.2000719028562985 -58.41250016571946 -1.8079160110314998

VECTORS L float
0.0586864292396597 0.0 0.0
0.1061147308043969 0.0 0.0
0.15755967699987772 0.0 0.0
0.21475114548515312 0.0 0.0
0.2781852348329658 0.0 0.0
0.3480205075563395 0.0 0.0
0.4242768008869287 0.0 0.0
0.5068983429332093 0.0 0.0
0.5957590825919493 0.0 0.0
0.6906939490299571 0.0 0.0
0.7914886200203 0.0 0.0
0.8978859274653677 0.0 0.0
1.0095893968672942 0.0 0.0
1.1262696886263812 0.0 0.0
1.2475794853188673 0.0 0.0
1.3731200277419329 0.0 0.0
1.5024423299226328 0.0 0.0
1.6352743436021393 0.0 0.0
1.7712039975781213 0.0 0.0
1.909889709376869 0.0 0.0
2.0510152800672214 0.0 0.0
2.1942898134598914 0.0 0.0
2.339443289912052 0.0 0.0
2.486211169707823 0.0 0.0
2.634234605655099 0.0 0.0
2.783456931455501 0.0 0.0
2.933862520550679 0.0 0.0
3.085159653957295 0.0 0.0
3.2371808883802213 0.0 0.0
3.389777127535519 0.0 0.0
3.5428062421886866 0.0 0.0
3.696123245344818 0.0 0.0
3.849574237475722 0.0 0.0
4.003037699378749 0.0 0.0
4.1560506629097596 0.0 0.0
4.308361241581988 0.0 0.0
4.459587924536774 0.0 0.0
4.609234924158513 0.0 0.0
4.756716812915328 0.0 0.0
4.901267522663245 0.0 0.0
5.041902368226385 0.0 0.0
5.177247614122631 0.0 0.0
5.305980194553061 0.0 0.0
5.426458072480739 0.0 0.0
5.536988345702029 0.0 0.0
5.636093468877986 0.0 0.0
5.722971107691034 0.0 0.0
5.799264952182281 0.0 0.0
5.870287914642611 0.0 0.0
5.960810496260434 0.0 0.0
6.221304707633788 0.0 0.0
6.250118763141119 0.0 0.0
6.295581171841411 0.0 0.0
6.3323836276715255 0.0 0.0
6.354138601541497 0.0 0.0
6.358721573981139 0.0 0.0
6.346036743355731 0.0 0.0
6.316705209219754 0.0 0.0
6.272454003905975 0.0 0.0
6.21452398191134 0.0 0.0
6.144213994752367 0.0 0.0
6.062660374161834 0.0 0.0
5.970791179376292 0.0 0.0
5.869371569214161 0.0 0.0
5.758899860132271 0.0 0.0
5.640175081247904 0.0 0.0
5.513593521173543 0.0 0.0
5.379507315817747 0.0 0.0
5.238508755413036 0.0 0.0
5.090787634269258 0.0 0.0
4.936633245688801 0.0 0.0
4.776342838205895 0.0 0.0
4.610259509420672 0.0 0.0
4.43877028903193 0.0 0.0
4.262164576119876 0.0 0.0
4.080870669821183 0.0 0.0
3.8953274114492347 0.0 0.0
3.7060626981008737 0.0 0.0
3.5135941933693124 0.0 0.0
3.3185123400903986 0.0 0.0
3.1214706681538535 0.0 0.0
2.923184105501561 0.0 0.0
2.724478785339364 0.0 0.0
2.5261127198578475 0.0 0.0
2.3290122696008018 0.0 0.0
2.1341063492941617 0.0 0.0
1.9423562056798598 0.0 0.0
1.7547331771523946 0.0 0.0
1.5721978471737403 0.0 0.0
1.3956798278393763 0.0 0.0
1.2260604688395342 0.0 0.0
1.064160281919028 0.0 0.0
0.9107240898374154 0.0 0.0
0.7664129456448234 0.0 0.0
0.6317791400645608 0.0 0.0
0.507266367329395 0.0 0.0
0.3931486976521966 0.0 0.0
0.28941768175942206 0.0 0.0
0.19541172581985086 0.0 0.0
0.10810936703971068 0.0 0.0
0.0586864292396597 0.0 0.0
0.1061147308043969 0.0 0.0
0.15755967699987772 0.0 0.0
0.21475114548515312 0.0 0.0
0.2781852348329658 0.0 0.0
0.3480205075563395 0.0 0.0
0.4242768008869287 0.0 0.0
0.5068983429332093 0.0 0.0
0.5957590825919493 0.0 0.0
0.6906939490299571 0.0 0.0
0.7914886200203 0.0 0.0
0.8978859274653677 0.0 0.0
1.0095893968672942 0.0 0.0
1.1262696886263812 0.0 0.0
1.2475794853188673 0.0 0.0
1.3731200277419329 0.0 0.0
1.5024423299226328 0.0 0.0
1.6352743436021393 0.0 0.0
1.7712039975781213 0.0 0.0
1.909889709376869 0.0 0.0
2.0510152800672214 0.0 0.0
2.1942898134598914 0.0 0.0
2.339443289912052 0.0 0.0
2.486211169707823 0.0 0.0
2.634234605655099 0.0 0.0
2.783456931455501 0.0 0.0
2.933862520550679 0.0 0.0
3.085159653957295 0.0 0.0
3.2371808883802213 0.0 0.0
3.389777127535519 0.0 0.0
3.5428062421886866 0.0 0.0
3.696123245344818 0.0 0.0
3.849574237475722 0.0 0.0
4.003037699378749 0.0 0.0
4.1560506629097596 0.0 0.0
4.308361241581988 0.0 0.0
4.459587924536774 0.0 0.0
4.609234924158513 0.0 0.0
4.756716812915328 0.0 0.0
4.901267522663245 0.0 0.0
5.041902368226385 0.0 0.0
5.177247614122631 0.0 0.0
5.305980194553061 0.0 0.0
5.426458072480739 0.0 0.0
5.536988345702029 0.0 0.0
5.636093468877986 0.0 0.0
5.722971107691034 0.0 0.0
5.799264952182281 0.0 0.0
5.870287914642611 0.0 0.0
5.960810496260434 0.0 0.0
6.221304707633788 0.0 0.0
6.250118763141119 0.0 0.0
6.295581171841411 0.0 0.0
6.3323836276715255 0.0 0.0
6.354138601541497 0.0 0.0
6.358721573981139 0.0 0.0
6.346036743355731 0.0 0.0
6.316705209219754 0.0 0.0
6.272454003905975 0.0 0.0
6.21452398191134 0.0 0.0
6.144213994752367 0.0 0.0
6.062660374161834 0.0 0.0
5.970791179376292 0.0 0.0
5.869371569214161 0.0 0.0
5.758899860132271 0.0 0.0
5.640175081247904 0.0 0.0
5.513593521173543 0.0 0.0
5.379507315817747 0.0 0.0
5.238508755413036 0.0 0.0
5.090787634269258 0.0 0.0
4.936633245688801 0.0 0.0
4.776342838205895 0.0 0.0
4.610259509420672 0.0 0.0
4.43877028903193 0.0 0.0
4.262164576119876 0.0 0.0
4.080870669821183 0.0 0.0
3.8953274114492347 0.0 0.0
3.7060626981008737 0.0 0.0
3.5135941933693124 0.0 0.0
3.3185123400903986 0.0 0.0
3.1214706681538535 0.0 0.0
2.923184105501561 0.0 0.0
2.724478785339364 0.0 0.0
2.5261127198578475 0.0 0.0
2.3290122696008018 0.0 0.0
2.1341063492941617 0.0 0.0
1.9423562056798598 0.0 0.0
1.7547331771523946 0.0 0.0
1.5721978471737403 0.0 0.0
1.3956798278393763 0.0 0.0
1.2260604688395342 0.0 0.0
1.064160281919028 0.0 0.0
0.9107240898374154 0.0 0.0
0.7664129456448234 0.0 0.0
0.6317791400645608 0.0 0.0
0.507266367329395 0.0 0.0
0.3931486976521966 0.0 0.0
0.28941768175942206 0.0 0.0
0.19541172581985086 0.0 0.0
0.10810936703971068 0.0 0.0

SCALARS Gamma float
LOOKUP_TABLE default
0.42459476097923543
0.6526135559305406
0.8392323890471253
1.0071479951470734
1.163998666170678
1.3131295978275246
1.4561883404543567
1.594006720677482
1.7269742533717731
1.8552211601736066
1.9787196359257448
2.097344506689244
2.2109146280812246
2.319226667605756
2.422092729647427
2.5192831994855083
2.610647965217144
2.696092699838653
2.775583071275255
2.8491421637364436
2.9168437364332997
2.978802291064027
3.035159418576624
3.0860593059431505
3.1315393909344804
3.1719867558837076
3.2077881749859385
3.2390090450266933
3.265845194784579
3.288499024214257
3.307167066236545
3.3220316230655382
3.3332575099577966
3.341025455879688
3.345238449397828
3.3459865984991057
3.3432665324775335
3.3370077019451916
3.3271003469039573
3.313323644173955
3.2954117123358766
3.272879750315798
3.24530500583674
3.2122101062717805
3.1731506223398505
3.1278726328273505
3.076516761590784
3.0204069812812255
2.96216051453887
2.9089037152245965
2.9030348203411482
2.9440260055940297
2.9895193099786974
3.0327213661590324
3.071075466063234
3.1035836972085873
3.13009481307694
3.150758726623146
3.166253214073179
3.177021636471261
3.183543150794483
3.1862098463396293
3.1853168836365295
3.18107418468015
3.173546303219472
3.1629440160092677
3.1493013977382005
3.1325480948934024
3.112785320597463
3.089860929264418
3.0636589982674667
3.0340484404970414
3.0009052190414294
2.9641119595138736
2.9234632352845895
2.87881673328041
2.830011601295463
2.7769228460422317
2.7193919198840213
2.657286013397889
2.590495367405056
2.518936577292889
2.4426021932296047
2.3614131506332505
2.275429681323979
2.1847202346444163
2.0893954453628645
1.9895965409176402
1.885481290077232
1.7772056549425148
1.6649020481750083
1.5486548503244606
1.4284606695846767
1.304179015374033
1.1754233534866507
1.0414332672418136
0.9007157780241702
0.750259420214279
0.5832340967755255
0.3793452119318583
0.42459476097923543
0.6526135559305406
0.8392323890471253
1.0071479951470734
1.163998666170678
1.3131295978275246
1.4561883404543567
1.594006720677482
1.7269742533717731
1.8552211601736066
1.9787196359257448
2.097344506689244
2.2109146280812246
2.319226667605756
2.422092729647427
2.5192831994855083
2.610647965217144
2.696092699838653
2.775583071275255
2.8491421637364436
2.9168437364332997
2.978802291064027
3.035159418576624
3.0860593059431505
3.1315393909344804
3.1719867558837076
3.2077881749859385
3.2390090450266933
3.265845194784579
3.288499024214257
3.307167066236545
3.3220316230655382
3.3332575099577966
3.341025455879688
3.345238449397828
3.3459865984991057
3.3432665324775335
3.3370077019451916
3.3271003469039573
3.313323644173955
3.2954117123358766
3.272879750315798
3.24530500583674
3.2122101062717805
3.1731506223398505
3.1278726328273505
3.076516761590784
3.0204069812812255
2.96216051453887
2.9089037152245965
2.9030348203411482
2.9440260055940297
2.9895193099786974
3.0327213661590324
3.071075466063234
3.1035836972085873
3.13009481307694
3.150758726623146
3.166253214073179
3.177021636471261
3.183543150794483
3.1862098463396293
3.1853168836365295
3.18107418468015
3.173546303219472
3.1629440160092677
3.1493013977382005
3.1325480948934024
3.112785320597463
3.089860929264418
3.0636589982674667
3.0340484404970414
3.0009052190414294
2.9641119595138736
2.9234632352845895
2.87881673328041
2.830011601295463