# vtk DataFile Version 4.0
[MyVLM domain - lattices] 
ASCII
DATASET UNSTRUCTURED_GRID
POINTS 302 float
0.03418245623128636 5.477541978514923 -3.306645751985206
0.034058156390445314 5.483341727409964 -3.303942616770313
0.03391102596659266 5.490206736306134 -3.3007429873322773
0.033741064959728374 5.498137005203434 -3.297046863671098
0.03354827336985247 5.507132534101864 -3.2928542457867747
0.03333265119696495 5.517193323001425 -3.2881651336793074
0.033094198441065814 5.528319371902114 -3.2829795273486964
0.032832915102155046 5.540510680803935 -3.277297426794943
0.03254880118023267 5.553767249706885 -3.2711188320180447
0.03224185667529867 5.5680890786109645 -3.264443743018004
0.03191208158735304 5.583476167516174 -3.2572721597948195
0.03155947591639581 5.599928516422514 -3.2496040823484904
0.031184039662426954 5.617446125329983 -3.2414395106790193
0.030785772825446475 5.636028994238583 -3.232778444786404
0.030364675405454372 5.655677123148312 -3.2236208846706447
0.02992074740245066 5.676390512059171 -3.213966830331742
0.02945398881643532 5.69816916097116 -3.2038162817696962
0.028964399647408358 5.721013069884279 -3.1931692389845066
0.028451979895369777 5.744922238798528 -3.1820257019761735
0.027916729560319584 5.7698966677139065 -3.1703856707446967
0.027358648642257764 5.795936356630415 -3.1582491452900765
0.026777737141184327 5.823041305548054 -3.1456161256123125
0.026173995057099272 5.851211514466822 -3.132486611711405
0.025547422390002586 5.880446983386721 -3.118860603587354
0.02489801913989429 5.910747712307749 -3.1047381012401596
0.024225785306774376 5.942113701229907 -3.0901191046698218
0.02353072089064284 5.974544950153195 -3.07500361387634
0.02281282589149968 6.008041459077614 -3.0593916288597147
0.022072100309344905 6.042603228003161 -3.0432831496199464
0.021308544144178508 6.078230256929839 -3.026678176157034
0.020522157396000492 6.114922545857647 -3.009576708470978
0.019712940064810853 6.152680094786584 -2.9919787465617786
0.018880892150609598 6.191502903716652 -2.9738842904294356
0.018026013653396723 6.23139097264785 -2.955293340073949
0.017148304573172228 6.272344301580176 -2.936205895495319
0.016247764909936107 6.3143628905136335 -2.9166219566935454
0.015324394663688371 6.357446739448221 -2.896541523668628
0.014378193834429022 6.401595848383938 -2.8759645964205673
0.013409162422158047 6.446810217320785 -2.8548911749493633
0.012417300426875453 6.493089846258761 -2.8333212592550154
0.011402607848581239 6.540434735197868 -2.811254849337524
0.010365084687275405 6.588844884138106 -2.788691945196889
0.009304730942957952 6.638320293079471 -2.7656325468331104
0.00822154661562887 6.688860962021967 -2.7420766542461883
0.007115531705288178 6.740466890965593 -2.718024267436123
0.005986686211935864 6.793138079910351 -2.6934753864029135
0.004835010135571928 6.846874528856237 -2.6684300111465604
0.003660503476196374 6.901676237803252 -2.6428881416670644
0.002463166233809206 6.9575432067513985 -2.6168497779644246
0.0012429984084104128 7.014475435700674 -2.590314920038641
0.0 7.0724729246510805 -2.563283567889714
0.001242998408410416 7.099526160541988 -2.6212708522836454
0.002463166233809212 7.126082500263469 -2.6781930641070755
0.0036605034761963886 7.152141943815529 -2.734050203360005
0.004835010135571945 7.177704491198162 -2.788842270042434
0.005986686211935881 7.202770142411371 -2.842569264154362
0.007115531705288197 7.227338897455154 -2.8952311856957893
0.008221546615628895 7.251410756329513 -2.9468280346667157
0.00930473094295797 7.274985719034447 -2.9973598110671413
0.010365084687275426 7.298063785569955 -3.046826514897066
0.011402607848581265 7.32064495593604 -3.09522814615649
0.012417300426875484 7.342729230132698 -3.1425647048454137
0.013409162422158076 7.364316608159933 -3.188836190963836
0.014378193834429055 7.385407090017742 -3.234042604511758
0.015324394663688413 7.406000675706128 -3.278183945489179
0.01624776490993615 7.426097365225089 -3.3212602138960996
0.017148304573172266 7.445697158574622 -3.3632714097325187
0.018026013653396764 7.464800055754734 -3.404217532998438
0.01888089215060965 7.4834060567654195 -3.444098583693856
0.019712940064810905 7.5015151616066795 -3.482914561818773
0.020522157396000544 7.519127370278515 -3.5206654673731888
0.021308544144178557 7.536242682780927 -3.5573513003571042
0.02207210030934496 7.552861099113913 -3.5929720607705202
0.022812825891499734 7.568982619277474 -3.627527748613433
0.02353072089064289 7.584607243271611 -3.661018363885847
0.02422578530677443 7.599734971096322 -3.693443906587759
0.024898019139894353 7.61436580275161 -3.7248043767191708
0.025547422390002655 7.628499738237472 -3.7550997742800827
0.02617399505709933 7.642136777553908 -3.784330099270492
0.026777737141184386 7.655276920700921 -3.812495351690402
0.027358648642257826 7.667920167678507 -3.83959553153981
0.02791672956031965 7.6800665184866705 -3.8656306388187183
0.028451979895369846 7.691715973125409 -3.890600673527125
0.028964399647408424 7.702868531594722 -3.914505635665031
0.02945398881643538 7.71352419389461 -3.9373455252324367
0.029920747402450727 7.723682960025073 -3.9591203422293417
0.030364675405454452 7.733344829986111 -3.9798300866557454
0.03078577282544654 7.742509803777725 -3.999474758511649
0.031184039662427034 7.751177881399914 -4.018054357797052
0.03155947591639588 7.759349062852679 -4.035568884511953
0.03191208158735313 7.767023348136018 -4.052018338656354
0.032241856675298754 7.774200737249931 -4.067402720230254
0.032548801180232755 7.780881230194422 -4.081722029233653
0.03283291510215513 7.787064826969485 -4.094976265666552
0.0330941984410659 7.792751527575125 -4.1071654295289495
0.033332651196965025 7.79794133201134 -4.118289520820846
0.03354827336985255 7.80263424027813 -4.128348539542243
0.03374106495972846 7.806830252375496 -4.137342485693138
0.033911025966592734 7.810529368303436 -4.145271359273533
0.0340581563904454 7.813731588061953 -4.152135160283427
0.03418245623128644 7.816436911651042 -4.15793388872282
0.04785543872380092 5.307348586687684 -3.7742482529709256
0.04773113888295988 5.313148335582724 -3.771545117756033
0.04758400845910722 5.320013344478895 -3.7683454883179963
0.04741404745224293 5.3279436133761955 -3.764649364656817
0.047221255862367036 5.336939142274626 -3.760456746772494
0.04700563368947951 5.346999931174186 -3.755767634665027
0.04676718093358037 5.358125980074876 -3.7505820283344162
0.04650589759466961 5.370317288976697 -3.7448999277806623
0.046221783672747235 5.383573857879646 -3.7387213330037654
0.045914839167813234 5.397895686783726 -3.732046244003724
0.04558506407986761 5.413282775688936 -3.724874660780539
0.04523245840891038 5.429735124595275 -3.717206583334211
0.04485702215494152 5.4472527335027445 -3.7090420116647387
0.04445875531796104 5.465835602411344 -3.7003809457721237
0.04403765789796894 5.485483731321073 -3.6912233856563645
0.04359372989496522 5.506197120231932 -3.681569331317462
0.04312697130894988 5.5279757691439215 -3.671418782755416
0.042637382139922915 5.5508196780570405 -3.660771739970227
0.04212496238788434 5.57472884697129 -3.6496282029618934
0.04158971205283414 5.599703275886668 -3.637988171730416
0.041031631134772324 5.625742964803177 -3.625851646275797
0.04045071963369888 5.652847913720816 -3.6132186265980324
0.039846977549613825 5.681018122639584 -3.600089112697125
0.03922040488251715 5.710253591559482 -3.5864631045730735
0.038571001632408855 5.740554320480511 -3.57234060222588
0.037898767799288934 5.7719203094026685 -3.5577216056555416
0.0372037033831574 5.804351558325957 -3.54260611486206
0.036485808384014246 5.837848067250375 -3.526994129845434
0.035745082801859465 5.8724098361759225 -3.510885650605666
0.03498152663669307 5.9080368651026 -3.4942806771427533
0.034195139888515046 5.944729154030409 -3.4771792094566973
0.03338592255732542 5.982486702959346 -3.459581247547499
0.03255387464312416 6.021309511889413 -3.4414867914151555
0.03169899614591129 6.06119758082061 -3.422895841059669
0.030821287065686792 6.102150909752938 -3.403808396481039
0.02992074740245067 6.144169498686395 -3.3842244576792653
0.02899737715620294 6.187253347620982 -3.364144024654348
0.02805117632694358 6.231402456556699 -3.343567097406287
0.027082144914672607 6.276616825493546 -3.3224936759350827
0.026090282919390022 6.322896454431523 -3.3009237602407353
0.025075590341095803 6.37024134337063 -3.2788573503232437
0.024038067179789967 6.4186514923108655 -3.2562944461826087
0.022977713435472516 6.468126901252233 -3.2332350478188303
0.021894529108143435 6.51866757019473 -3.2096791552319077
0.020788514197802744 6.570273499138355 -3.1856267684218427
0.019659668704450427 6.622944688083113 -3.1610778873886334
0.01850799262808649 6.6766811370289965 -3.1360325121322803
0.017333485968710937 6.731482845976013 -3.110490642652784
0.016136148726323768 6.78734981492416 -3.084452278950144
0.014915980900924974 6.844282043873435 -3.057917421024361
0.013672982492514564 6.902279532823842 -3.030886068875434
0.014915980900924981 6.929332768714749 -3.088873353269365
0.016136148726323775 6.955889108436232 -3.1457955650927953
0.01733348596871095 6.98194855198829 -3.201652704345725
0.01850799262808651 7.007511099370923 -3.2564447710281534
0.019659668704450444 7.0325767505841315 -3.310171765140081
0.020788514197802758 7.057145505627916 -3.362833686681509
0.02189452910814346 7.081217364502273 -3.414430535652435
0.022977713435472533 7.104792327207207 -3.4649623120528603
0.02403806717978999 7.127870393742716 -3.514429015882785
0.02507559034109583 7.150451564108801 -3.5628306471422104
0.026090282919390043 7.17253583830546 -3.6101672058311336
0.027082144914672642 7.194123216332694 -3.656438691949556
0.028051176326943615 7.215213698190504 -3.701645105497477
0.028997377156202972 7.235807283878888 -3.7457864464748987
0.02992074740245071 7.25590397339785 -3.7888627148818186
0.03082128706568683 7.275503766747385 -3.8308739107182386
0.03169899614591133 7.294606663927495 -3.8718200339841577
0.03255387464312421 7.313212664938181 -3.9117010846795752
[...]
CELL_DATA 200

VECTORS Vinf float
5.244498806827281 -23.868252774895765 -34.940778638192164
5.2303178218953255 -23.84941922584301 -34.985367151485896
5.213989361809779 -23.827446194411078 -35.03740076709442
5.195641881848388 -23.802346687890928 -35.096851449953036
5.175806718443908 -23.77380236165534 -35.163842813810994
5.15396111610455 -23.74260226455575 -35.23795181839156
5.130587340610969 -23.70828300886039 -35.319401873331365
5.105942017842116 -23.670848154607764 -35.40815325142817
5.080322366176286 -23.63030010650682 -35.50416127425146
5.054063509664149 -23.586639426183293 -35.60737718045081
5.027533273923371 -23.539864069043578 -35.71774939851735
5.001124571940599 -23.489968598679106 -35.83522517110226
4.975245803645567 -23.436943447627424 -35.95975242260903
4.949873164515484 -23.382722066597253 -36.08994042889575
4.925391751868274 -23.32416302402732 -36.22802183277519
4.9020789396173265 -23.262600272617302 -36.3729812618334
4.880137486286591 -23.198025000281365 -36.52479679620498
4.859723391030693 -23.130424930981967 -36.68345557212055
4.840945082639027 -23.059785059343533 -36.848953347877554
4.823865961336272 -22.9860885403445 -37.021293491950445
4.804869780034373 -22.908897851631682 -37.202310607782046
4.792842617912277 -22.82986572269593 -37.387560117793896
4.781805899416109 -22.747325226800537 -37.580062902904515
4.7717843401535465 -22.661208277802437 -37.779862223843395
4.763829591265679 -22.57115008362246 -37.98608572524633
4.756596714018217 -22.478763711704485 -38.19978122853208
4.750826930288329 -22.383216173299747 -38.42042712938449
4.746473395586156 -22.28449877145575 -38.648036086985314
4.743500900673472 -22.182604222530713 -38.882618136365366
4.742025549952294 -22.07604506131605 -39.12527218886517
4.7415054155238545 -21.968611082553217 -39.37327303953335
4.742272376260578 -21.857762999437536 -39.62842255011025
4.744467817486446 -21.743458682916494 -39.89072950980141
4.748223207031829 -21.625654567913365 -40.1602051745786
4.753666269418623 -21.504306047869083 -40.4368623570069
4.760923289536245 -21.37936765690754 -40.72071519345671
4.770781649860188 -21.252806727078593 -41.0103203199168
4.781855614499859 -21.12225227234853 -41.30753765642229
4.7946986274193275 -20.988331479025234 -41.61183482266883
4.809240765469448 -20.851017059303498 -41.92324332063394
4.825519149279352 -20.71004905059946 -42.241750564911314
4.843057377531887 -20.56631728688562 -42.56707807606243
4.861207311381565 -20.41936861725268 -42.89963981325145
4.878890770858513 -20.269208636259446 -43.23924780487217
4.895402407796189 -20.115729161550163 -43.58623554879467
4.9095380941632705 -19.9589393325972 -43.940733640886364
4.920341577989035 -19.79886143941085 -44.3028363669405
4.927508892531606 -19.63560963970869 -44.67252887934922
4.930988575981292 -19.46933699402159 -45.04964635803219
4.932001225432856 -19.299936896251598 -45.43418080627239
4.933375050317306 -19.40817050431078 -45.713135357436386
4.935366627905456 -19.79209082656138 -45.88129154329033
4.935033104181838 -20.16906514482628 -46.046468552571035
4.9313415962004985 -20.539193752426193 -46.208739955295705
4.923690790499154 -20.90198125697091 -46.368539444400454
4.912459390303996 -21.2582526069653 -46.525256501020365
4.89854719068328 -21.6076622623005 -46.67903056365385
4.883148133456647 -21.950146322114858 -46.82976042659181
4.867412099993028 -22.285630133424995 -46.97735242149983
4.852243070375627 -22.61404645188774 -47.12173517295157
4.837920535837369 -22.936062590828563 -47.26245384414528
4.825721029410879 -23.24991891248023 -47.4004611677228
4.814925323244209 -23.55685319576154 -47.53504376826133
4.805523540525719 -23.85683571878459 -47.66622029839985
4.797432094013283 -24.149844051659205 -47.79401529947441
4.790536105209806 -24.43586009871513 -47.91845553691129
4.787737665367204 -24.712034470959722 -48.04098606022236
4.780395861410157 -24.983735037208362 -48.15932522915987
4.776905896669988 -25.24767981756887 -48.27445061332188
4.774371984738217 -25.504459789481892 -48.38636971677751
4.772776592637931 -25.75407423320003 -48.495086928160255
4.772128436926307 -25.99652073449473 -48.60060461086005
4.772460483480927 -26.231795168741964 -48.70292338770982
4.773827988972791 -26.459891710953187 -48.802042418765815
4.775578611374341 -26.683438703572577 -48.8963322905507
4.7794613261766274 -26.89604698875375 -48.98970692830595
4.784584512142961 -27.101893462569684 -49.079611551348535
4.7909880514903636 -27.30092907287094 -49.16607335142126
4.7987100788858985 -27.493105955857157 -49.249118920675485
4.807778138477615 -27.678378116168336 -49.328774738996444
4.818199386311735 -27.85670223390033 -49.405067669425385
4.829950915365231 -28.028038519271465 -49.478025402205326
4.84297155587676 -28.1923515073871 -49.547676778786034
4.857156526393529 -28.349610675353038 -49.61405193191364
4.88406722525953 -28.495530695901362 -49.678078622400555
4.904742158133933 -28.636338061375287 -49.73896270915395
4.928483060701801 -28.767351185220626 -49.79834083433696
4.951983515753454 -28.893998810435182 -49.85257349320022
4.976410986898149 -29.01341105149255 -49.90366533737173
5.00141538310244 -29.12561130207227 -49.95163789657425
5.026627000600996 -29.230625599620456 -49.99651297496402
5.051672890876624 -29.328481399859218 -50.03831175207993
5.076191830920164 -29.419206385039995 -50.07705400652346
5.099846728121709 -29.502827406264796 -50.11275751823856
5.12233376962557 -29.579369627923477 -50.14543767687382
5.1433880965080165 -29.648855907909493 -50.17510729735513
5.162786178886625 -29.711306416370476 -50.20177662284577
5.180345352865099 -29.766738471731443 -50.22545348129093
5.195921146496984 -29.815166556882815 -50.246143554704474
5.209403082852298 -29.856602470392588 -50.26385071914747
5.244498806827281 -23.868252774895765 -34.940778638192164
5.2303178218953255 -23.84941922584301 -34.985367151485896
5.213989361809779 -23.827446194411078 -35.03740076709442
5.195641881848388 -23.802346687890928 -35.096851449953036
5.175806718443908 -23.77380236165534 -35.163842813810994
5.15396111610455 -23.74260226455575 -35.23795181839156
5.130587340610969 -23.70828300886039 -35.319401873331365
5.105942017842116 -23.670848154607764 -35.40815325142817
5.080322366176286 -23.63030010650682 -35.50416127425146
5.054063509664149 -23.586639426183293 -35.60737718045081
5.027533273923371 -23.539864069043578 -35.71774939851735
5.001124571940599 -23.489968598679106 -35.83522517110226
4.975245803645567 -23.436943447627424 -35.95975242260903
4.949873164515484 -23.382722066597253 -36.08994042889575
4.925391751868274 -23.32416302402732 -36.22802183277519
4.9020789396173265 -23.262600272617302 -36.3729812618334
4.880137486286591 -23.198025000281365 -36.52479679620498
4.859723391030693 -23.130424930981967 -36.68345557212055
4.840945082639027 -23.059785059343533 -36.848953347877554
4.823865961336272 -22.9860885403445 -37.021293491950445
4.804869780034373 -22.908897851631682 -37.202310607782046
4.792842617912277 -22.82986572269593 -37.387560117793896
4.781805899416109 -22.747325226800537 -37.580062902904515
4.7717843401535465 -22.661208277802437 -37.779862223843395
4.763829591265679 -22.57115008362246 -37.98608572524633
4.756596714018217 -22.478763711704485 -38.19978122853208
4.750826930288329 -22.383216173299747 -38.42042712938449
4.746473395586156 -22.28449877145575 -38.648036086985314
4.743500900673472 -22.182604222530713 -38.882618136365366
4.742025549952294 -22.07604506131605 -39.12527218886517
4.7415054155238545 -21.968611082553217 -39.37327303953335
4.742272376260578 -21.857762999437536 -39.62842255011025
4.744467817486446 -21.743458682916494 -39.89072950980141
4.748223207031829 -21.625654567913365 -40.1602051745786
4.753666269418623 -21.504306047869083 -40.4368623570069
4.760923289536245 -21.37936765690754 -40.72071519345671
4.770781649860188 -21.252806727078593 -41.0103203199168
4.781855614499859 -21.12225227234853 -41.30753765642229
4.7946986274193275 -20.988331479025234 -41.61183482266883
4.809240765469448 -20.851017059303498 -41.92324332063394
4.825519149279352 -20.71004905059946 -42.241750564911314
4.843057377531887 -20.56631728688562 -42.56707807606243
4.861207311381565 -20.41936861725268 -42.89963981325145
4.878890770858513 -20.269208636259446 -43.23924780487217
4.895402407796189 -20.115729161550163 -43.58623554879467
4.9095380941632705 -19.9589393325972 -43.940733640886364
4.920341577989035 -19.79886143941085 -44.3028363669405
4.927508892531606 -19.63560963970869 -44.67252887934922
4.930988575981292 -19.46933699402159 -45.04964635803219
4.932001225432856 -19.299936896251598 -45.43418080627239
4.933375050317306 -19.40817050431078 -45.713135357436386
4.935366627905456 -19.79209082656138 -45.88129154329033
4.935033104181838 -20.16906514482628 -46.046468552571035
4.9313415962004985 -20.539193752426193 -46.208739955295705
4.923690790499154 -20.90198125697091 -46.368539444400454
4.912459390303996 -21.2582526069653 -46.525256501020365
4.89854719068328 -21.6076622623005 -46.67903056365385
4.883148133456647 -21.950146322114858 -46.82976042659181
4.867412099993028 -22.285630133424995 -46.97735242149983
4.852243070375627 -22.61404645188774 -47.12173517295157
4.837920535837369 -22.936062590828563 -47.26245384414528
4.825721029410879 -23.24991891248023 -47.4004611677228
4.814925323244209 -23.55685319576154 -47.53504376826133
4.805523540525719 -23.85683571878459 -47.66622029839985
4.797432094013283 -24.149844051659205 -47.79401529947441
4.790536105209806 -24.43586009871513 -47.91845553691129
4.787737665367204 -24.712034470959722 -48.04098606022236
4.780395861410157 -24.983735037208362 -48.15932522915987
4.776905896669988 -25.24767981756887 -48.27445061332188
4.774371984738217 -25.504459789481892 -48.38636971677751
4.772776592637931 -25.75407423320003 -48.495086928160255
4.772128436926307 -25.99652073449473 -48.60060461086005
4.772460483480927 -26.231795168741964 -48.70292338770982
4.773827988972791 -26.459891710953187 -48.802042418765815
4.775578611374341 -26.683438703572577 -48.8963322905507
4.7794613261766274 -26.89604698875375 -48.98970692830595
4.784584512142961 -27.101893462569684 -49.079611551348535
4.7909880514903636 -27.30092907287094 -49.16607335142126
4.7987100788858985 -27.493105955857157 -49.249118920675485
4.807778138477615 -27.678378116168336 -49.328774738996444
4.818199386311735 -27.85670223390033 -49.405067669425385
4.829950915365231 -28.028038519271465 -49.478025402205326
4.84297155587676 -28.1923515073871 -49.547676778786034
4.857156526393529 -28.349610675353038 -49.61405193191364
4.88406722525953 -28.495530695901362 -49.678078622400555
4.904742158133933 -28.636338061375287 -49.73896270915395
4.928483060701801 -28.767351185220626 -49.79834083433696
4.951983515753454 -28.893998810435182 -49.85257349320022
4.976410986898149 -29.01341105149255 -49.90366533737173
5.00141538310244 -29.12561130207227 -49.95163789657425
5.026627000600996 -29.230625599620456 -49.99651297496402
5.051672890876624 -29.328481399859218 -50.03831175207993
5.076191830920164 -29.419206385039995 -50.07705400652346
5.099846728121709 -29.502827406264796 -50.11275751823856
5.12233376962557 -29.579369627923477 -50.14543767687382
5.1433880965080165 -29.648855907909493 -50.17510729735513
5.162786178886625 -29.711306416370476 -50.20177662284577
5.180345352865099 -29.766738471731443 -50.22545348129093
5.195921146496984 -29.815166556882815 -50.246143554704474
5.209403082852298 -29.856602470392588 -50.26385071914747

VECTORS L float
0.05883035390177814 0.0 0.0
0.10637618345642558 0.0 0.0
0.1579490826206158 0.0 0.0
0.2152841339436812 0.0 0.0
0.2788764344225905 0.0 0.0
0.3488841754834363 0.0 0.0
0.42532662673801447 0.0 0.0
0.5081433024819042 0.0 0.0
0.5972138096771953 0.0 0.0
0.6923701947594805 0.0 0.0
0.7933970744070721 0.0 0.0
0.9000359478211978 0.0 0.0
1.0119888242331438 0.0 0.0
1.1289205121818997 0.0 0.0
1.250470059529802 0.0 0.0
1.3762635049313046 0.0 0.0
1.5059173821487586 0.0 0.0
1.6390477283785918 0.0 0.0
1.775287624243891 0.0 0.0
1.9142840758402362 0.0 0.0
2.055681268236444 0.0 0.0
2.19930198319923 0.0 0.0
2.3448072997427127 0.0 0.0
2.491935015226309 0.0 0.0
2.640474647368968 0.0 0.0
2.790193558510912 0.0 0.0
2.9408391103676808 0.0 0.0
3.0925489575136407 0.0 0.0
3.2448636048528994 0.0 0.0
3.3977339085218454 0.0 0.0
3.551007910485522 0.0 0.0
3.704527349317999 0.0 0.0
3.8581080579297993 0.0 0.0
4.011575494841745 0.0 0.0
4.164689517391358 0.0 0.0
4.3171435533012374 0.0 0.0
4.468566855548919 0.0 0.0
4.618409185618003 0.0 0.0
4.766039750273656 0.0 0.0
4.910673218729984 0.0 0.0
5.051201092959575 0.0 0.0
5.1865289048579335 0.0 0.0
5.315267976159406 0.0 0.0
5.435684449971614 0.0 0.0
5.5461920577382156 0.0 0.0
5.645349645891628 0.0 0.0
5.732476502579225 0.0 0.0
5.808761127006935 0.0 0.0
5.879781347411591 0.0 0.0
5.970469437711041 0.0 0.0
6.227517850743839 0.0 0.0
6.256657562166637 0.0 0.0
6.3024927560347095 0.0 0.0
6.339603903259473 0.0 0.0
6.3613550582465965 0.0 0.0
6.366106899223457 0.0 0.0
6.353654766219056 0.0 0.0
6.324866045921617 0.0 0.0
6.281013302679115 0.0 0.0
6.223445534266559 0.0 0.0
6.153445339141779 0.0 0.0
6.072178890725308 0.0 0.0
5.980547440084679 0.0 0.0
5.879333704718843 0.0 0.0
5.769194971641203 0.0 0.0
5.650686276779294 0.0 0.0
5.524390084977094 0.0 0.0
5.3903147077065645 0.0 0.0
5.249202088129647 0.0 0.0
5.101305725081361 0.0 0.0
4.946939318133583 0.0 0.0
4.786432778828481 0.0 0.0
4.6200710158259435 0.0 0.0
4.448185054608285 0.0 0.0
4.271209696659797 0.0 0.0
4.089569718761794 0.0 0.0
3.9036740074441285 0.0 0.0
3.7140023124670565 0.0 0.0
3.52109472249514 0.0 0.0
3.3255489384463637 0.0 0.0
3.1280259231108998 0.0 0.0
2.9292560191592183 0.0 0.0
2.730039640279877 0.0 0.0
2.5312567984071426 0.0 0.0
2.33393692524536 0.0 0.0
2.138705422514375 0.0 0.0
1.946625288654966 0.0 0.0
1.7586427144336276 0.0 0.0
1.5757420658443109 0.0 0.0
1.3988553242890145 0.0 0.0
1.2288728045129114 0.0 0.0
1.0666182779364675 0.0 0.0
0.9128402330023967 0.0 0.0
0.7681991539449227 0.0 0.0
0.6332573836088031 0.0 0.0
0.5084590449417007 0.0 0.0
0.39407682692247364 0.0 0.0
0.2901033257657123 0.0 0.0
0.19587642115831966 0.0 0.0
0.10836877095524189 0.0 0.0
0.05883035390177814 0.0 0.0
0.10637618345642558 0.0 0.0
0.1579490826206158 0.0 0.0
0.2152841339436812 0.0 0.0
0.2788764344225905 0.0 0.0
0.3488841754834363 0.0 0.0
0.42532662673801447 0.0 0.0
0.5081433024819042 0.0 0.0
0.5972138096771953 0.0 0.0
0.6923701947594805 0.0 0.0
0.7933970744070721 0.0 0.0
0.9000359478211978 0.0 0.0
1.0119888242331438 0.0 0.0
1.1289205121818997 0.0 0.0
1.250470059529802 0.0 0.0
1.3762635049313046 0.0 0.0
1.5059173821487586 0.0 0.0
1.6390477283785918 0.0 0.0
1.775287624243891 0.0 0.0
1.9142840758402362 0.0 0.0
2.055681268236444 0.0 0.0
2.19930198319923 0.0 0.0
2.3448072997427127 0.0 0.0
2.491935015226309 0.0 0.0
2.640474647368968 0.0 0.0
2.790193558510912 0.0 0.0
2.9408391103676808 0.0 0.0
3.0925489575136407 0.0 0.0
3.2448636048528994 0.0 0.0
3.3977339085218454 0.0 0.0
3.551007910485522 0.0 0.0
3.704527349317999 0.0 0.0
3.8581080579297993 0.0 0.0
4.011575494841745 0.0 0.0
4.164689517391358 0.0 0.0
4.3171435533012374 0.0 0.0
4.468566855548919 0.0 0.0
4.618409185618003 0.0 0.0
4.766039750273656 0.0 0.0
4.910673218729984 0.0 0.0
5.051201092959575 0.0 0.0
5.1865289048579335 0.0 0.0
5.315267976159406 0.0 0.0
5.435684449971614 0.0 0.0
5.5461920577382156 0.0 0.0
5.645349645891628 0.0 0.0
5.732476502579225 0.0 0.0
5.808761127006935 0.0 0.0
5.879781347411591 0.0 0.0
5.970469437711041 0.0 0.0
6.227517850743839 0.0 0.0
6.256657562166637 0.0 0.0
6.3024927560347095 0.0 0.0
6.339603903259473 0.0 0.0
6.3613550582465965 0.0 0.0
6.366106899223457 0.0 0.0
6.353654766219056 0.0 0.0
6.324866045921617 0.0 0.0
6.281013302679115 0.0 0.0
6.223445534266559 0.0 0.0
6.153445339141779 0.0 0.0
6.072178890725308 0.0 0.0
5.980547440084679 0.0 0.0
5.879333704718843 0.0 0.0
5.769194971641203 0.0 0.0
5.650686276779294 0.0 0.0
5.524390084977094 0.0 0.0
5.3903147077065645 0.0 0.0
5.249202088129647 0.0 0.0
5.101305725081361 0.0 0.0
4.946939318133583 0.0 0.0
4.786432778828481 0.0 0.0
4.6200710158259435 0.0 0.0
4.448185054608285 0.0 0.0
4.271209696659797 0.0 0.0
4.089569718761794 0.0 0.0
3.9036740074441285 0.0 0.0
3.7140023124670565 0.0 0.0
3.52109472249514 0.0 0.0
3.3255489384463637 0.0 0.0
3.1280259231108998 0.0 0.0
2.9292560191592183 0.0 0.0
2.730039640279877 0.0 0.0
2.5312567984071426 0.0 0.0
2.33393692524536 0.0 0.0
2.138705422514375 0.0 0.0
1.946625288654966 0.0 0.0
1.7586427144336276 0.0 0.0
1.5757420658443109 0.0 0.0
1.3988553242890145 0.0 0.0
1.2288728045129114 0.0 0.0
1.0666182779364675 0.0 0.0
0.9128402330023967 0.0 0.0
0.7681991539449227 0.0 0.0
0.6332573836088031 0.0 0.0
0.5084590449417007 0.0 0.0
0.39407682692247364 0.0 0.0
0.2901033257657123 0.0 0.0
0.19587642115831966 0.0 0.0
0.10836877095524189 0.0 0.0

SCALARS Gamma float
LOOKUP_TABLE default
0.425082646180033
0.6533656425055439
0.8402031084121486
1.0083210624312589
1.1653556425112856
1.3146546604448557
1.4578673216227596
1.595827109868227
1.7289217018968082
1.8572868721464966
1.9808948881807453
2.0996201571846784
2.2132807902989224
2.321664254939706
2.4245621917146662
2.521796386954952
2.61322128827401
2.69873437626976
2.778295576122536
2.85191093065438
2.919604357408468
2.981647324209823
3.0380835853059565
3.089062873254401
3.1347906480321064
3.1754366349232273
3.211249976807636
3.242446371217663
3.269237569925377
3.2918272285221466
3.3104051372626055
3.325144789034471
3.336189337107002
3.3436846666712303
3.3477192903289845
3.3483330065179078
3.3455260395984294
3.3391847487764674
3.3291684403691693
3.315265618156629
3.2971273977724915
3.2744023965801055
3.2466433061627655
3.213375807422345
3.1741845636637582
3.1288336482387935
3.077522319919074
3.0213297479171715
2.9630201095319944
2.909784704010092
2.904026838088832
2.9452357586994395
2.9909679965619658
3.0343851100865566
3.07281252882167
3.105482236204141
3.1321936198918587
3.1532186564295683
3.169014177777999
3.180074403930667
3.186864842171259
3.1897978807451906
3.1891538530749166
3.1851514350701997
3.1779414594802278
3.1676157757003454
3.154276224767417
3.137692210508284
3.118031837584681
3.095177491136399
3.0690265036235704
3.03946712124187
3.0063381779370553
2.9694824471766177
2.928786256878442
2.884106727317186
2.835262789042382
2.782093103645237
2.7244516218797106
2.662208091831676
2.5952557002711316
2.5235211056457065
2.4469723803669376
2.3656374209368836
2.2796851147517243
2.1889042040037645
2.0934945584748164
1.9935675044411767
1.8893008679731578
1.7808491561977302
1.668351528332562
1.551892896040866
1.4314711025248312
1.3069402138241024
1.1779256495596533
1.0436645802911722
0.902656281147299
0.751883706721318
0.5845034031618611
0.3801799374483549
0.425082646180033
0.6533656425055439
0.8402031084121486
1.0083210624312589
1.1653556425112856
1.3146546604448557
1.4578673216227596
1.595827109868227
1.7289217018968082
1.8572868721464966
1.9808948881807453
2.0996201571846784
2.2132807902989224
2.321664254939706
2.4245621917146662
2.521796386954952
2.61322128827401
2.69873437626976
2.778295576122536
2.85191093065438
2.919604357408468
2.981647324209823
3.0380835853059565
3.089062873254401
3.1347906480321064
3.1754366349232273
3.211249976807636
3.242446371217663
3.269237569925377
3.2918272285221466
3.3104051372626055
3.325144789034471
3.336189337107002
3.3436846666712303
3.3477192903289845
3.3483330065179078
3.3455260395984294
3.3391847487764674
3.3291684403691693
3.315265618156629
3.2971273977724915
3.2744023965801055
3.2466433061627655
3.213375807422345
3.1741845636637582
3.1288336482387935
3.077522319919074
3.0213297479171715
2.9630201095319944
2.909784704010092
2.904026838088832
2.9452357586994395
2.9909679965619658
3.0343851100865566
3.07281252882167
3.105482236204141
3.1321936198918587
3.1532186564295683
3.169014177777999
3.180074403930667
3.186864842171259
3.1897978807451906
3.1891538530749166
3.1851514350701997
3.1779414594802278
3.1676157757003454
3.154276224767417
3.137692210508284
3.118031837584681
3.095177491136399
3.0690265036235704
3.03946712124187
3.0063381779370553
2.9694824471766177