# vtk DataFile Version 4.0
[MyVLM domain - lattices] 
ASCII
DATASET UNSTRUCTURED_GRID
POINTS 302 float
0.034182456231286386 -5.180338269122876 3.4461695148867943
0.03405815639044535 -5.186351541979779 3.443982147340189
0.033911025966592685 -5.193469293524686 3.4413930184074726
0.0337410649597284 -5.201691523757594 3.438402128088645
0.033548273369852506 -5.211018232678507 3.4350094763837054
0.033332651196964984 -5.221449420287421 3.431215063292655
0.03309419844106584 -5.232985086584338 3.427018888815493
0.03283291510215508 -5.245625231569258 3.4224209529522205
0.032548801180232706 -5.259369855242181 3.417421255702836
0.032241856675298705 -5.2742189576031056 3.4120197970673405
0.031912081587353085 -5.290172538652034 3.4062165770457344
0.03155947591639584 -5.307230598388965 3.400011595638017
0.03118403966242699 -5.325393136813897 3.3934048528441885
0.030785772825446502 -5.344660153926834 3.386396348664248
0.030364675405454407 -5.365031649727773 3.3789860830981966
0.02992074740245069 -5.386507624216715 3.371174056146034
0.02945398881643534 -5.409088077393658 3.3629602678077606
0.028964399647408386 -5.4327730092586055 3.354344718083375
0.028451979895369805 -5.4575624198115555 3.3453274069728787
0.027916729560319604 -5.483456309052508 3.335908334476271
0.027358648642257788 -5.510454676981463 3.326087500593553
0.02677773714118434 -5.538557523598421 3.315864905324723
0.026173995057099293 -5.567764848903382 3.305240548669782
0.02554742239000261 -5.598076652896344 3.294214430628729
0.024898019139894315 -5.629492935577311 3.282786551201566
0.0242257853067744 -5.662013696946278 3.2709569103882914
0.02353072089064286 -5.695638937003251 3.2587255081889053
0.022812825891499702 -5.730368655748224 3.246092344603408
0.022072100309344925 -5.766202853181201 3.2330574196317996
0.02130854414417853 -5.803141529302181 3.21962073327408
0.02052215739600051 -5.8411846841111625 3.2057822855302494
0.01971294006481087 -5.880332317608148 3.191542076400307
0.01888089215060962 -5.920584429793135 3.176900105884254
0.01802601365339674 -5.961941020666125 3.1618563739820895
0.017148304573172242 -6.004402090227119 3.146410880693814
0.016247764909936124 -6.0479676384761145 3.130563626019427
0.015324394663688387 -6.092637665413113 3.1143146099589285
0.014378193834429035 -6.138412171038114 3.0976638325123194
0.01340916242215806 -6.185291155351118 3.0806112936795986
0.012417300426875466 -6.233274618352124 3.0631569934607668
0.01140260784858125 -6.2823625600411335 3.0453009318558237
0.010365084687275414 -6.332554980418145 3.0270431088647696
0.00930473094295796 -6.38385187948316 3.0083835244876043
0.00822154661562888 -6.436253257236178 2.9893221787243274
0.007115531705288185 -6.489759113677198 2.9698590715749393
0.005986686211935868 -6.54436944880622 2.9499942030394406
0.004835010135571933 -6.6000842626232465 2.92972757311783
0.0036605034761963773 -6.656903555128274 2.9090591818101084
0.0024631662338092082 -6.714827326321305 2.8879890291162758
0.001242998408410414 -6.773855576202338 2.866517115036332
0.0 -6.833988304771375 2.8446434395702767
0.001242998408410408 -6.855884670090864 2.904767909708043
0.002463166233809196 -6.877378857271833 2.963788052843279
0.0036605034761963647 -6.89847086631428 3.0217038689759845
0.004835010135571914 -6.919160697218206 3.0785153581061597
0.005986686211935843 -6.939448349983611 3.1342225202338043
0.007115531705288151 -6.9593338246104945 3.1888253553589188
0.008221546615628841 -6.9788171210988565 3.2423238634815026
0.009304730942957909 -6.997898239448698 3.2947180446015563
0.01036508468727536 -7.016577179660017 3.3460078987190793
0.01140260784858119 -7.034853941732816 3.3961934258340722
0.012417300426875402 -7.052728525667093 3.4452746259465346
0.01340916242215799 -7.070200931462849 3.493251499056466
0.014378193834428963 -7.087271159120084 3.540124045163868
0.015324394663688314 -7.1039392086387965 3.585892264268739
0.01624776490993604 -7.12020508001899 3.63055615637108
0.017148304573172155 -7.13606877326066 3.6741157214708897
0.01802601365339665 -7.151530288363812 3.71657095956817
0.01888089215060952 -7.16658962532844 3.757921870662919
0.019712940064810777 -7.181246784154546 3.7981684547551384
0.02052215739600041 -7.195501764842133 3.837310711844827
0.021308544144178418 -7.209354567391198 3.875348641931986
0.022072100309344814 -7.222805191801742 3.9122822450166135
0.02281282589149958 -7.235853638073765 3.9481115210987108
0.02353072089064274 -7.248499906207265 3.9828364701782784
0.024225785306774272 -7.260743996202245 4.016457092255315
0.02489801913989419 -7.272585908058702 4.048973387329822
0.02554742239000248 -7.284025641776642 4.080385355401797
0.026173995057099164 -7.295063197356057 4.110692996471243
0.02677773714118422 -7.305698574796952 4.139896310538157
0.027358648642257653 -7.315931774099326 4.167995297602543
0.027916729560319466 -7.325762795263179 4.194989957664397
0.02845197989536966 -7.33519163828851 4.22088029072372
0.02896439964740824 -7.344218303175318 4.245666296780514
0.029453988816435194 -7.352842789923609 4.269347975834776
0.02992074740245053 -7.361065098533376 4.29192532788651
0.030364675405454247 -7.368885229004623 4.313398352935712
0.030785772825446346 -7.376303181337346 4.333767050982384
0.031184039662426825 -7.383318955531552 4.353031422026525
0.031559475916395685 -7.389932551587234 4.371191466068137
0.031912081587352925 -7.396143969504395 4.388247183107217
0.03224185667529854 -7.401953209283035 4.404198573143767
0.03254880118023254 -7.407360270923154 4.4190456361777875
0.032832915102154914 -7.4123651544247515 4.432788372209277
0.033094198441065675 -7.416967859787829 4.445426781238236
0.03333265119696481 -7.421168387012382 4.456960863264664
0.03354827336985233 -7.424966736098417 4.4673906182885625
0.033741064959728236 -7.42836290704593 4.476716046309931
0.03391102596659251 -7.431356899854922 4.484937147328768
0.03405815639044518 -7.433948714525392 4.492053921345075
0.03418245623128622 -7.436138351057342 4.4980663683588515
0.047855438723800915 -4.970038271250369 3.8971593157078135
0.04773113888295987 -4.976051544107273 3.8949719481612073
0.047584008459107215 -4.9831692956521785 3.8923828192284913
0.047414047452242924 -4.991391525885088 3.8893919289096623
0.04722125586236703 -5.0007182348059995 3.8859992772047236
0.047005633689479506 -5.011149422414914 3.8822048641136733
0.04676718093358037 -5.022685088711831 3.8780086896365114
0.04650589759466961 -5.035325233696751 3.8734107537732396
0.04622178367274723 -5.049069857369673 3.868411056523855
0.04591483916781323 -5.063918959730599 3.8630095978883596
0.04558506407986761 -5.079872540779527 3.857206377866753
0.04523245840891037 -5.096930600516457 3.851001396459036
0.04485702215494151 -5.115093138941391 3.8443946536652067
0.04445875531796103 -5.134360156054328 3.837386149485267
0.04403765789796893 -5.154731651855267 3.8299758839192157
0.04359372989496521 -5.176207626344207 3.822163856967053
0.04312697130894987 -5.198788079521152 3.813950068628779
0.04263738213992291 -5.222473011386099 3.805334518904394
0.042124962387884324 -5.247262421939048 3.796317207793898
0.041589712052834134 -5.273156311180001 3.78689813529729
0.04103163113477232 -5.300154679108956 3.777077301414572
0.040450719633698874 -5.328257525725914 3.7668547061457414
0.03984697754961382 -5.357464851030874 3.7562303494908007
0.039220404882517136 -5.3877766550238375 3.745204231449748
0.03857100163240884 -5.419192937704803 3.733776352022585
0.03789876779928892 -5.451713699073772 3.72194671120931
0.03720370338315739 -5.485338939130743 3.7097153090099244
0.036485808384014225 -5.520068657875718 3.697082145424427
0.03574508280185945 -5.555902855308695 3.6840472204528183
0.03498152663669306 -5.5928415314296736 3.670610534095099
0.03419513988851503 -5.630884686238656 3.6567720863512676
0.0333859225573254 -5.670032319735641 3.6425318772213253
0.03255387464312414 -5.710284431920629 3.6278899067052723
0.03169899614591127 -5.751641022793619 3.6128461748031087
0.03082128706568676 -5.794102092354612 3.5974006815148325
0.029920747402450647 -5.837667640603607 3.581553426840445
0.028997377156202916 -5.882337667540606 3.565304410779947
0.028051176326943553 -5.928112173165607 3.5486536333333376
0.027082144914672583 -5.974991157478611 3.5316010945006173
0.026090282919389994 -6.0229746204796175 3.5141467942817854
0.025075590341095775 -6.072062562168626 3.4962907326768433
0.02403806717978994 -6.1222549825456385 3.478032909685788
0.022977713435472485 -6.173551881610653 3.4593733253086225
0.021894529108143403 -6.225953259363671 3.4403119795453456
0.02078851419780271 -6.279459115804691 3.4208488723959585
0.019659668704450392 -6.334069450933714 3.4009840038604584
0.01850799262808646 -6.389784264750739 3.3807173739388485
0.017333485968710902 -6.446603557255767 3.360048982631127
0.016136148726323733 -6.504527328448798 3.3389788299372944
0.014915980900924938 -6.563555578329833 3.3175069158573502
0.013672982492514528 -6.623688306898869 3.2956332403912953
0.014915980900924932 -6.645584672218358 3.355757710529062
0.01613614872632372 -6.667078859399326 3.4147778536642974
0.01733348596871089 -6.688170868441774 3.4726936697970037
0.018507992628086438 -6.708860699345699 3.529505158927179
0.019659668704450368 -6.729148352111103 3.5852123210548235
0.020788514197802675 -6.749033826737988 3.6398151561799374
0.021894529108143365 -6.768517123226349 3.6933136643025213
0.022977713435472433 -6.787598241576191 3.745707845422575
0.024038067179789884 -6.806277181787511 3.7969976995400985
0.02507559034109572 -6.824553943860308 3.8471832266550914
0.026090282919389925 -6.842428527794587 3.8962644267675537
0.02708214491467251 -6.859900933590342 3.944241299877485
0.028051176326943487 -6.876971161247577 3.991113845984887
0.02899737715620284 -6.893639210766292 4.036882065089758
0.02992074740245057 -6.909905082146483 4.081545957192098
0.030821287065686685 -6.925768775388155 4.125105522291909
0.03169899614591117 -6.941230290491304 4.167560760389189
0.03255387464312405 -6.9562896274559325 4.208911671483938
[...]
CELL_DATA 200

VECTORS Vinf float
5.152558272717508 26.81325273165594 32.705883859768406
5.138675428847839 26.798319977075003 32.751856596598
5.122690404468265 26.780897924058916 32.805506556731395
5.10472896915009 26.76099660878339 32.86680545239803
5.084945070405383 26.73862699988304 32.93571993446102
5.063522689728176 26.713800699502922 33.01221159982617
5.040676568191993 26.68652956533769 33.09623723682571
5.016651402190423 26.656825254240115 33.18774936654401
4.991719170396699 26.62469869701794 33.28669712106127
4.966174374014296 26.590159525129994 33.39302747186096
4.940327157153518 26.553215482075814 33.50668678365138
4.913933644969151 26.513659369620083 33.62776440393166
4.8884351285013725 26.472002363743496 33.755883346637134
4.863492215781065 26.427934581950357 33.89120356307887
4.83943621722307 26.381449420688348 34.0336795524634
4.81730479464145 26.332499267872528 34.18323163300055
4.795811925700888 26.28112691672754 34.33993566149228
4.775812331183145 26.227320387338583 34.50372433730041
4.757412544473862 26.171064499741583 34.67459491042674
4.740675230945844 26.112342978592928 34.8525521152364
4.725624440370589 26.051139243046713 35.037606671962
4.712252755106288 25.987437124362888 35.22977356641494
4.700529343888378 25.921221442232365 35.42907031532003
4.687961424150693 25.852176603107434 35.63619450162279
4.681492235126598 25.78167564857277 35.84886987053673
4.6756880467852575 25.70825390051545 36.069153656527284
4.670558221536073 25.63184918214966 36.297094240232404
4.666102298239362 25.552398069419006 36.53274223382679
4.661970181569943 25.47047723023071 36.77554229414763
4.660418639945425 25.38636269735449 37.025193902007544
4.660202073971436 25.299661545571322 37.28207751507613
4.661887687937116 25.205948398216606 37.549741968742566
4.663747588132566 25.11494642308913 37.82042123791001
4.6671014188101685 25.02112214537565 38.09850118492615
4.6721430512890025 24.924433094067005 38.38398815102209
4.6790494926698205 24.824835250339174 38.67689298117869
4.687977374989163 24.722283671716202 38.97723125488901
4.699051542895653 24.6167331041146 39.28502449071072
4.711987319432489 24.51073959424508 39.598160322442624
4.726377339566707 24.400653102296506 39.91987337621288
4.742509926747241 24.28778193863812 40.24895647420072
4.759980169408689 24.17210855320141 40.5854798815666
4.778131325433186 24.05362023575769 40.92953879864937
4.795563239087906 23.933422592017497 41.28044370713561
4.812245509043336 23.810159140778453 41.63917986969482
4.8264473651234 23.68477437534971 42.005688556052164
4.837315831111423 23.55613253063912 42.38015219139693
4.84457389927202 23.424967902408614 42.762418623745184
4.848491882440992 23.291317311888303 43.1524303493433
4.849913131803158 23.155205996680152 43.55007207802879
4.851392323393268 23.286693657439503 43.819077218550014
4.8532991071692875 23.683306880243077 43.95448545713393
4.852007784470923 24.072816859849897 44.08737562886436
4.848493286471525 24.45493414076559 44.21833450648114
4.841132574902799 24.83005919023519 44.34699793002474
4.8303067280124425 25.198201298614155 44.47332140204127
4.816993001252278 25.55931244483082 44.597221878450696
4.801733409389159 25.913078186093475 44.71901871321794
4.7865571271116965 26.259817087499997 44.837862657955725
4.772463855535126 26.59887224867328 44.954190692223605
4.758935394853217 26.930822219983053 45.06790404521242
4.746866995292713 27.25537712360118 45.178950236952446
4.736204167745503 27.573248627126784 45.286959075240155
4.727143252017157 27.882672407390686 45.39290830092701
4.719563290893865 28.184890010972232 45.49602878247669
4.713335370601642 28.479887892257562 45.59635005375757
4.708337955244081 28.767653454577335 45.693900362334524
4.7044684830074575 29.048173761544028 45.78870585689374
4.70164624171179 29.32143497958217 45.88079043533788
4.699170690980445 29.586138754248356 45.9711809120645
4.6979221628650984 29.843476962284242 46.05900216062438
4.697687634434957 30.093596458583868 46.1440713999992
4.698447602696768 30.336480061781195 46.22640709942752
4.700203354988014 30.572109273409847 46.306026018048286
4.70297325793083 30.80046448274645 46.38294355218801
4.706788530153997 31.021525239705273 46.45717407796416
4.711688292386556 31.23527060879301 46.5287312934927
4.718803595963836 31.441722293362567 46.597372507893155
4.727913848887356 31.63902543580077 46.66480161607047
4.736469892745117 31.82957235167954 46.72931016219579
4.748038300001998 32.013012282046645 46.79074325592859
4.761439487202264 32.188944003938246 46.849574664951504
4.776715257686824 32.35735834612226 46.90580769934564
4.793856491066818 32.518249890395346 46.959448339010756
4.812793834840281 32.671617924548514 47.010505506335086
4.83339268325936 32.81746709036845 47.05899110676097
4.855453399171158 32.95580762633938 47.10491981043726
4.878716954505202 33.086655164279506 47.14830858707449
4.902875366060899 33.210030104693914 47.18917604267598
4.9267824145958725 33.32618364240389 47.22744475168785
4.951838428289119 33.434728334774036 47.26328046325039
4.9766928265030455 33.53587878681283 47.29665622925426
5.0009926563761375 33.62966321784853 47.32758933233996
5.024409610656757 33.7161087869643 47.35609512371626
5.046648636962513 33.79524075817507 47.38218672757416
5.067453201368256 33.867081908597214 47.40587492424154
5.086607377262654 33.93165218067663 47.42716819277791
5.103935208045764 33.98896855501198 47.44607288215974
5.119297953477002 34.0390451043807 47.462593474739094
5.132589887571342 34.08189318176297 47.476732905230364
5.152558272717508 26.81325273165594 32.705883859768406
5.138675428847839 26.798319977075003 32.751856596598
5.122690404468265 26.780897924058916 32.805506556731395
5.10472896915009 26.76099660878339 32.86680545239803
5.084945070405383 26.73862699988304 32.93571993446102
5.063522689728176 26.713800699502922 33.01221159982617
5.040676568191993 26.68652956533769 33.09623723682571
5.016651402190423 26.656825254240115 33.18774936654401
4.991719170396699 26.62469869701794 33.28669712106127
4.966174374014296 26.590159525129994 33.39302747186096
4.940327157153518 26.553215482075814 33.50668678365138
4.913933644969151 26.513659369620083 33.62776440393166
4.8884351285013725 26.472002363743496 33.755883346637134
4.863492215781065 26.427934581950357 33.89120356307887
4.83943621722307 26.381449420688348 34.0336795524634
4.81730479464145 26.332499267872528 34.18323163300055
4.795811925700888 26.28112691672754 34.33993566149228
4.775812331183145 26.227320387338583 34.50372433730041
4.757412544473862 26.171064499741583 34.67459491042674
4.740675230945844 26.112342978592928 34.8525521152364
4.725624440370589 26.051139243046713 35.037606671962
4.712252755106288 25.987437124362888 35.22977356641494
4.700529343888378 25.921221442232365 35.42907031532003
4.687961424150693 25.852176603107434 35.63619450162279
4.681492235126598 25.78167564857277 35.84886987053673
4.6756880467852575 25.70825390051545 36.069153656527284
4.670558221536073 25.63184918214966 36.297094240232404
4.666102298239362 25.552398069419006 36.53274223382679
4.661970181569943 25.47047723023071 36.77554229414763
4.660418639945425 25.38636269735449 37.025193902007544
4.660202073971436 25.299661545571322 37.28207751507613
4.661887687937116 25.205948398216606 37.549741968742566
4.663747588132566 25.11494642308913 37.82042123791001
4.6671014188101685 25.02112214537565 38.09850118492615
4.6721430512890025 24.924433094067005 38.38398815102209
4.6790494926698205 24.824835250339174 38.67689298117869
4.687977374989163 24.722283671716202 38.97723125488901
4.699051542895653 24.6167331041146 39.28502449071072
4.711987319432489 24.51073959424508 39.598160322442624
4.726377339566707 24.400653102296506 39.91987337621288
4.742509926747241 24.28778193863812 40.24895647420072
4.759980169408689 24.17210855320141 40.5854798815666
4.778131325433186 24.05362023575769 40.92953879864937
4.795563239087906 23.933422592017497 41.28044370713561
4.812245509043336 23.810159140778453 41.63917986969482
4.8264473651234 23.68477437534971 42.005688556052164
4.837315831111423 23.55613253063912 42.38015219139693
4.84457389927202 23.424967902408614 42.762418623745184
4.848491882440992 23.291317311888303 43.1524303493433
4.849913131803158 23.155205996680152 43.55007207802879
4.851392323393268 23.286693657439503 43.819077218550014
4.8532991071692875 23.683306880243077 43.95448545713393
4.852007784470923 24.072816859849897 44.08737562886436
4.848493286471525 24.45493414076559 44.21833450648114
4.841132574902799 24.83005919023519 44.34699793002474
4.8303067280124425 25.198201298614155 44.47332140204127
4.816993001252278 25.55931244483082 44.597221878450696
4.801733409389159 25.913078186093475 44.71901871321794
4.7865571271116965 26.259817087499997 44.837862657955725
4.772463855535126 26.59887224867328 44.954190692223605
4.758935394853217 26.930822219983053 45.06790404521242
4.746866995292713 27.25537712360118 45.178950236952446
4.736204167745503 27.573248627126784 45.286959075240155
4.727143252017157 27.882672407390686 45.39290830092701
4.719563290893865 28.184890010972232 45.49602878247669
4.713335370601642 28.479887892257562 45.59635005375757
4.708337955244081 28.767653454577335 45.693900362334524
4.7044684830074575 29.048173761544028 45.78870585689374
4.70164624171179 29.32143497958217 45.88079043533788
4.699170690980445 29.586138754248356 45.9711809120645
4.6979221628650984 29.843476962284242 46.05900216062438
4.697687634434957 30.093596458583868 46.1440713999992
4.698447602696768 30.336480061781195 46.22640709942752
4.700203354988014 30.572109273409847 46.306026018048286
4.70297325793083 30.80046448274645 46.38294355218801
4.706788530153997 31.021525239705273 46.45717407796416
4.711688292386556 31.23527060879301 46.5287312934927
4.718803595963836 31.441722293362567 46.597372507893155
4.727913848887356 31.63902543580077 46.66480161607047
4.736469892745117 31.82957235167954 46.72931016219579
4.748038300001998 32.013012282046645 46.79074325592859
4.761439487202264 32.188944003938246 46.849574664951504
4.776715257686824 32.35735834612226 46.90580769934564
4.793856491066818 32.518249890395346 46.959448339010756
4.812793834840281 32.671617924548514 47.010505506335086
4.83339268325936 32.81746709036845 47.05899110676097
4.855453399171158 32.95580762633938 47.10491981043726
4.878716954505202 33.086655164279506 47.14830858707449
4.902875366060899 33.210030104693914 47.18917604267598
4.9267824145958725 33.32618364240389 47.22744475168785
4.951838428289119 33.434728334774036 47.26328046325039
4.9766928265030455 33.53587878681283 47.29665622925426
5.0009926563761375 33.62966321784853 47.32758933233996
5.024409610656757 33.7161087869643 47.35609512371626
5.046648636962513 33.79524075817507 47.38218672757416
5.067453201368256 33.867081908597214 47.40587492424154
5.086607377262654 33.93165218067663 47.42716819277791
5.103935208045764 33.98896855501198 47.44607288215974
5.119297953477002 34.0390451043807 47.462593474739094
5.132589887571342 34.08189318176297 47.476732905230364

VECTORS L float
0.057455337812722655 0.0 0.0
0.10388803533078216 0.0 0.0
0.15425127868920377 0.0 0.0
0.2102398076033811 0.0 0.0
0.27233663761477134 0.0 0.0
0.34069726225690283 0.0 0.0
0.41534067813936953 0.0 0.0
0.4962076550490795 0.0 0.0
0.583181034525741 0.0 0.0
0.6760946577630966 0.0 0.0
0.7747371130435007 0.0 0.0
0.8788529962659393 0.0 0.0
0.9881562779855405 0.0 0.0
1.1023198391367217 0.0 0.0
1.2209930427740172 0.0 0.0
1.3438124581203958 0.0 0.0
1.470392421362935 0.0 0.0
1.6003619403471085 0.0 0.0
1.7333659827312755 0.0 0.0
1.8690555101289101 0.0 0.0
2.0071472612061343 0.0 0.0
2.1473324642122686 0.0 0.0
2.2893378126704116 0.0 0.0
2.432899162359796 0.0 0.0
2.5779157541601974 0.0 0.0
2.724112365488587 0.0 0.0
2.8712808564973873 0.0 0.0
3.0192501710526414 0.0 0.0
3.168150719193592 0.0 0.0
3.317278813450131 0.0 0.0
3.4668207479311577 0.0 0.0
3.61664097031736 0.0 0.0
3.7665254909768255 0.0 0.0
3.915864526406082 0.0 0.0
4.065184745024726 0.0 0.0
4.2138730713042625 0.0 0.0
4.361541339872698 0.0 0.0
4.5077193208979995 0.0 0.0
4.651778229380078 0.0 0.0
4.792920488890908 0.0 0.0
4.930195460820189 0.0 0.0
5.062418448104411 0.0 0.0
5.188165547678935 0.0 0.0
5.305831228628645 0.0 0.0
5.4138341002012815 0.0 0.0
5.510738458217534 0.0 0.0
5.595874371024796 0.0 0.0
5.670382872158922 0.0 0.0
5.739686050942231 0.0 0.0
5.8277964393646995 0.0 0.0
6.0750669776589685 0.0 0.0
6.1036285445643905 0.0 0.0
6.148168999344727 0.0 0.0
6.184336707850652 0.0 0.0
6.205839184482369 0.0 0.0
6.2106443557004996 0.0 0.0
6.198673825708754 0.0 0.0
6.170760543713355 0.0 0.0
6.12816247705589 0.0 0.0
6.0722374183310475 0.0 0.0
6.004158173070888 0.0 0.0
5.925045126011978 0.0 0.0
5.835811236021444 0.0 0.0
5.737261394173846 0.0 0.0
5.630025986167956 0.0 0.0
5.514637009095425 0.0 0.0
5.391557258894469 0.0 0.0
5.261174774403419 0.0 0.0
5.123859191101337 0.0 0.0
4.979907569405426 0.0 0.0
4.829583657852924 0.0 0.0
4.673205892361521 0.0 0.0
4.511088582838432 0.0 0.0
4.343624267916418 0.0 0.0
4.1711502020422815 0.0 0.0
3.994056617324417 0.0 0.0
3.812781389459808 0.0 0.0
3.6278252787959397 0.0 0.0
3.439700296385402 0.0 0.0
3.2489288574493775 0.0 0.0
3.0562327182216293 0.0 0.0
2.862292067645555 0.0 0.0
2.667864308080043 0.0 0.0
2.4737678764442377 0.0 0.0
2.280875417433502 0.0 0.0
2.090103575794406 0.0 0.0
1.9023986517273712 0.0 0.0
1.71872081404117 0.0 0.0
1.5400177521864038 0.0 0.0
1.3671706862951165 0.0 0.0
1.2010707894002426 0.0 0.0
1.0425161387220487 0.0 0.0
0.8922373438694706 0.0 0.0
0.7508818911332537 0.0 0.0
0.6190004824483843 0.0 0.0
0.4970256367783876 0.0 0.0
0.38522707149850044 0.0 0.0
0.2835980926101239 0.0 0.0
0.19149201927310508 0.0 0.0
0.10594998432767716 0.0 0.0
0.057455337812722655 0.0 0.0
0.10388803533078216 0.0 0.0
0.15425127868920377 0.0 0.0
0.2102398076033811 0.0 0.0
0.27233663761477134 0.0 0.0
0.34069726225690283 0.0 0.0
0.41534067813936953 0.0 0.0
0.4962076550490795 0.0 0.0
0.583181034525741 0.0 0.0
0.6760946577630966 0.0 0.0
0.7747371130435007 0.0 0.0
0.8788529962659393 0.0 0.0
0.9881562779855405 0.0 0.0
1.1023198391367217 0.0 0.0
1.2209930427740172 0.0 0.0
1.3438124581203958 0.0 0.0
1.470392421362935 0.0 0.0
1.6003619403471085 0.0 0.0
1.7333659827312755 0.0 0.0
1.8690555101289101 0.0 0.0
2.0071472612061343 0.0 0.0
2.1473324642122686 0.0 0.0
2.2893378126704116 0.0 0.0
2.432899162359796 0.0 0.0
2.5779157541601974 0.0 0.0
2.724112365488587 0.0 0.0
2.8712808564973873 0.0 0.0
3.0192501710526414 0.0 0.0
3.168150719193592 0.0 0.0
3.317278813450131 0.0 0.0
3.4668207479311577 0.0 0.0
3.61664097031736 0.0 0.0
3.7665254909768255 0.0 0.0
3.915864526406082 0.0 0.0
4.065184745024726 0.0 0.0
4.2138730713042625 0.0 0.0
4.361541339872698 0.0 0.0
4.5077193208979995 0.0 0.0
4.651778229380078 0.0 0.0
4.792920488890908 0.0 0.0
4.930195460820189 0.0 0.0
5.062418448104411 0.0 0.0
5.188165547678935 0.0 0.0
5.305831228628645 0.0 0.0
5.4138341002012815 0.0 0.0
5.510738458217534 0.0 0.0
5.595874371024796 0.0 0.0
5.670382872158922 0.0 0.0
5.739686050942231 0.0 0.0
5.8277964393646995 0.0 0.0
6.0750669776589685 0.0 0.0
6.1036285445643905 0.0 0.0
6.148168999344727 0.0 0.0
6.184336707850652 0.0 0.0
6.205839184482369 0.0 0.0
6.2106443557004996 0.0 0.0
6.198673825708754 0.0 0.0
6.170760543713355 0.0 0.0
6.12816247705589 0.0 0.0
6.0722374183310475 0.0 0.0
6.004158173070888 0.0 0.0
5.925045126011978 0.0 0.0
5.835811236021444 0.0 0.0
5.737261394173846 0.0 0.0
5.630025986167956 0.0 0.0
5.514637009095425 0.0 0.0
5.391557258894469 0.0 0.0
5.261174774403419 0.0 0.0
5.123859191101337 0.0 0.0
4.979907569405426 0.0 0.0
4.829583657852924 0.0 0.0
4.673205892361521 0.0 0.0
4.511088582838432 0.0 0.0
4.343624267916418 0.0 0.0
4.1711502020422815 0.0 0.0
3.994056617324417 0.0 0.0
3.812781389459808 0.0 0.0
3.6278252787959397 0.0 0.0
3.439700296385402 0.0 0.0
3.2489288574493775 0.0 0.0
3.0562327182216293 0.0 0.0
2.862292067645555 0.0 0.0
2.667864308080043 0.0 0.0
2.4737678764442377 0.0 0.0
2.280875417433502 0.0 0.0
2.090103575794406 0.0 0.0
1.9023986517273712 0.0 0.0
1.71872081404117 0.0 0.0
1.5400177521864038 0.0 0.0
1.3671706862951165 0.0 0.0
1.2010707894002426 0.0 0.0
1.0425161387220487 0.0 0.0
0.8922373438694706 0.0 0.0
0.7508818911332537 0.0 0.0
0.6190004824483843 0.0 0.0
0.4970256367783876 0.0 0.0
0.38522707149850044 0.0 0.0
0.2835980926101239 0.0 0.0
0.19149201927310508 0.0 0.0
0.10594998432767716 0.0 0.0

SCALARS Gamma float
LOOKUP_TABLE default
0.41548666900433284
0.6386136053832157
0.8212287322527968
0.9855434734888586
1.1390199096003633
1.2849350782937825
1.4249013261125851
1.5597325337868782
1.6898085285123057
1.8152560459402771
1.9360461460544496
2.0520507764184233
2.1631048001856383
2.2690007502204956
2.3695381534897226
2.464544806499264
2.5538586777195125
2.637387912028741
2.715099085943856
2.7869928801723916
2.8531789494980755
2.913734519800225
2.9687886519103617
3.0184826301955234
3.0631408820622665
3.10286349508291
3.1378258412879436
3.168233853874533
3.1943090949311634
3.216276743365272
3.2343203647883967
3.2486206603504724
3.2592822689387075
3.2664617352298686
3.2702596103007036
3.2707322345615015
3.2678596906365853
3.2615791027816954
3.251739923638197
3.2381126335792643
3.220413066053036
3.1982632599354375
3.171206380986112
3.1387565170227276
3.100521838624022
3.0562563175777004
3.0061540372085105
2.951263856146666
2.894288571966814
2.8422125975141066
2.8364978645103482
2.8766189911292894
2.9211373588636236
2.9634748127109205
3.0010968332818964
3.033046365220273
3.059183409489817
3.0797674014308773
3.095252873198702
3.106144137309224
3.112857106760942
3.115785160035141
3.1152191725357348
3.111395055607073
3.104455578525858
3.0944861854260957
3.0815278764972227
3.065570955568755
3.046573822305793
3.024479804629329
2.9991296904456335
2.970424161724353
2.9382261806789196
2.9024279106164657
2.8628632562979672
2.819374357604197
2.7718092917068144
2.720034140633458
2.663896609579563
2.603222162704397
2.537964429309498
2.468026524657334
2.3933550502359413
2.3139357496630133
2.229796608262424
2.1410087521006775
2.0476835271128584
1.9499672671623627
1.8480219629126808
1.7419642766371284
1.6319542950303083
1.5180661580872656
1.4002952088312473
1.2785001598067065
1.1523150459452711
1.0209889384922497
0.8830576404428131
0.735569061166453
0.5718276395868842
0.3719391125550157
0.41548666900433284
0.6386136053832157
0.8212287322527968
0.9855434734888586
1.1390199096003633
1.2849350782937825
1.4249013261125851
1.5597325337868782
1.6898085285123057
1.8152560459402771
1.9360461460544496
2.0520507764184233
2.1631048001856383
2.2690007502204956
2.3695381534897226
2.464544806499264
2.5538586777195125
2.637387912028741
2.715099085943856
2.7869928801723916
2.8531789494980755
2.913734519800225
2.9687886519103617
3.0184826301955234
3.0631408820622665
3.10286349508291
3.1378258412879436
3.168233853874533
3.1943090949311634
3.216276743365272
3.2343203647883967
3.2486206603504724
3.2592822689387075
3.2664617352298686
3.2702596103007036
3.2707322345615015
3.2678596906365853
3.2615791027816954
3.251739923638197
3.2381126335792643
3.220413066053036
3.1982632599354375
3.171206380986112
3.1387565170227276
3.100521838624022
3.0562563175777004
3.0061540372085105
2.951263856146666
2.894288571966814
2.8422125975141066
2.8364978645103482
2.8766189911292894
2.9211373588636236
2.9634748127109205
3.0010968332818964
3.033046365220273
3.059183409489817
3.0797674014308773
3.095252873198702
3.106144137309224
3.112857106760942
3.115785160035141
3.1152191725357348
3.111395055607073
3.104455578525858
3.0944861854260957
3.0815278764972227
3.065570955568755
3.046573822305793
3.024479804629329
2.9991296904456335
2.970424161724353
2.9382261806789196
2.9024279106164657
2.8628632562979672
2.819374357604197
2.7718092917068144
2.720034140633458
2.663896609579563
2.603222162704397
2.537964429309498
2.468026524657334
2.3933550502359413
2.3139357496630133
2.229796608262424
2.1410087521006775
2.0476835271128584
1.9499672671623627
1.8480219629126808
1.7419642766371284
1.6319542950303083
1.5180661580872656
1.4002952088312473
1.2785001598067065
1.1523150459452711