# vtk DataFile Version 4.0
[MyVLM domain - lattices] 
ASCII
DATASET UNSTRUCTURED_GRID
POINTS 302 float
0.034182456231286296 -6.261367303915769 0.645822178045773
0.03405815639044525 -6.26569112815142 0.6411053389331133
0.033911025966592595 -6.270809124185455 0.6355221416160871
0.03374106495972831 -6.276721292017875 0.629072586094695
0.03354827336985241 -6.28342763164868 0.6217566723689366
0.03333265119696489 -6.29092814307787 0.6135744004388121
0.03309419844106575 -6.299222826305444 0.6045257703043218
0.03283291510215499 -6.3083116813314035 0.594610781965465
0.032548801180232616 -6.3181947081557475 0.5838294354222421
0.032241856675298615 -6.328871906778476 0.5721817306746532
0.031912081587352994 -6.340343277199589 0.559667667722698
0.031559475916395754 -6.352608819419087 0.5462872465663772
0.031184039662426898 -6.3656685334369705 0.5320404672056901
0.03078577282544642 -6.379522419253238 0.5169273296406366
0.03036467540545432 -6.394170476867891 0.5009478338712171
0.0299207474024506 -6.409612706280928 0.48410197989743164
0.029453988816435264 -6.4258491074923505 0.46638976771927976
0.0289643996474083 -6.442879680502157 0.44781119733676195
0.02845197989536973 -6.460704425310349 0.42836626874987804
0.027916729560319525 -6.479323341916926 0.408054981958628
0.027358648642257708 -6.4987364303218875 0.38687733696301174
0.02677773714118427 -6.5189436905252345 0.3648333337630295
0.02617399505709922 -6.539945122526965 0.3419229723586813
0.02554742239000254 -6.561740726327081 0.31814625274996655
0.02489801913989425 -6.584330501925582 0.29350317493688605
0.02422578530677433 -6.607714449322466 0.26799373891943934
0.023530720890642794 -6.631892568517736 0.24161794469762654
0.02281282589149964 -6.656864859511391 0.21437579227144754
0.022072100309344866 -6.682631322303431 0.18626728164090256
0.02130854414417847 -6.7091919568938545 0.15729241280599127
0.020522157396000454 -6.736546763282664 0.12745118576671388
0.019712940064810818 -6.7646957414698585 0.0967436005230704
0.018880892150609563 -6.793638891455436 0.06516965707506095
0.018026013653396688 -6.823376213239399 0.03272935542268529
0.017148304573172197 -6.853907706821748 -0.0005773044340564581
0.01624776490993608 -6.885233372202482 -0.03475032249516441
0.015324394663688345 -6.917353209381599 -0.06978969876063845
0.014378193834428992 -6.950267218359102 -0.10569543323047847
0.013409162422158024 -6.983975399134989 -0.1424675259046847
0.012417300426875432 -7.018477751709262 -0.18010597678325696
0.011402607848581218 -7.053774276081919 -0.2186107858661954
0.010365084687275386 -7.08986497225296 -0.2579819531535
0.009304730942957933 -7.126749840222387 -0.2982194786451707
0.008221546615628857 -7.164428879990198 -0.3393233623412077
0.007115531705288165 -7.202902091556394 -0.3812936042416106
0.005986686211935851 -7.242169474920975 -0.4241302043463797
0.00483501013557192 -7.282231030083941 -0.4678331626555149
0.003660503476196367 -7.323086757045291 -0.5124024791690162
0.0024631662338092017 -7.364736655805027 -0.5578381538868834
0.0012429984084104107 -7.407180726363146 -0.6041401868091169
0.0 -7.450418968719651 -0.6513085779357165
0.0012429984084104092 -7.497603672672863 -0.608088137905571
0.0024631662338091983 -7.543921718798365 -0.5656615426923058
0.003660503476196368 -7.589373107096153 -0.5240287922959208
0.004835010135571918 -7.633957837566231 -0.48318988671641605
0.005986686211935849 -7.6776759102085945 -0.4431448259537916
0.007115531705288158 -7.720527325023246 -0.40389361000804724
0.00822154661562885 -7.762512082010187 -0.36543623887918314
0.009304730942957919 -7.803630181169417 -0.32777271256719925
0.010365084687275369 -7.843881622500932 -0.29090303107209564
0.011402607848581202 -7.8832664060047355 -0.2548271943938722
0.012417300426875413 -7.921784531680828 -0.21954520253252896
0.013409162422158004 -7.95943599952921 -0.185057055488066
0.014378193834428976 -7.996220809549877 -0.15136275326048326
0.015324394663688328 -8.032138961742833 -0.11846229584978073
0.01624776490993606 -8.067190456108076 -0.08635568325595844
0.017148304573172173 -8.101375292645608 -0.0550429154790163
0.018026013653396667 -8.134693471355428 -0.02452399251895443
0.018880892150609545 -8.167144992237535 0.005201085624227275
0.019712940064810794 -8.198729855291932 0.03413231895052882
0.02052215739600043 -8.229448060518616 0.062269707459949974
0.021308544144178442 -8.259299607917587 0.08961325115249086
0.02207210030934484 -8.288284497488846 0.11616295002815182
0.02281282589149961 -8.316402729232392 0.14191880408693203
0.023530720890642766 -8.343654303148227 0.16688081332883253
0.0242257853067743 -8.37003921923635 0.19104897775385254
0.024898019139894215 -8.395557477496762 0.21442329736199253
0.025547422390002506 -8.420209077929462 0.2370037721532522
0.026173995057099185 -8.443994020534447 0.2587904021276316
0.02677773714118424 -8.466912305311723 0.27978318728513085
0.02735864864225768 -8.488963932261285 0.29998212762574983
0.027916729560319493 -8.510148901383136 0.31938722314948853
0.028451979895369687 -8.530467212677275 0.33799847385634707
0.028964399647408268 -8.5499188661437 0.35581587974632545
0.029453988816435222 -8.568503861782416 0.37283944081942344
0.029920747402450563 -8.586222199593418 0.3890691570756416
0.030364675405454275 -8.603073879576709 0.40450502851497927
0.030785772825446374 -8.619058901732286 0.41914705513743644
0.031184039662426857 -8.634177266060153 0.4329952369430138
0.03155947591639571 -8.648428972560307 0.44604957393171063
0.03191208158735296 -8.661814021232749 0.45831006610352765
0.03224185667529857 -8.67433241207748 0.46977671345846417
0.032548801180232574 -8.685984145094496 0.48044951599652047
0.03283291510215495 -8.696769220283802 0.4903284737176964
0.03309419844106571 -8.706687637645397 0.49941358662199226
0.03333265119696484 -8.715739397179277 0.5077048547094077
0.03354827336985237 -8.723924498885447 0.5152022779799433
0.03374106495972827 -8.731242942763906 0.5219058564335987
0.033911025966592546 -8.73769472881465 0.5278155900703735
0.03405815639044521 -8.743279857037685 0.5329314788902685
0.034182456231286254 -8.747998327433006 0.537253522893283
0.047855438723800804 -6.283072842697663 1.1429607494078708
0.04773113888295977 -6.287396666933314 1.1382439102952113
0.04758400845910711 -6.292514662967349 1.132660712978185
0.04741404745224282 -6.2984268307997695 1.126211157456793
0.047221255862366925 -6.305133170430574 1.1188952437310347
0.0470056336894794 -6.312633681859764 1.1107129718009099
0.04676718093358027 -6.3209283650873385 1.1016643416664196
0.046505897594669506 -6.330017220113298 1.0917493533275628
0.046221783672747124 -6.339900246937642 1.0809680067843401
0.04591483916781312 -6.35057744556037 1.0693203020367514
0.0455850640798675 -6.362048815981484 1.0568062390847963
0.04523245840891027 -6.374314358200982 1.0434258179284752
0.04485702215494141 -6.387374072218865 1.0291790385677881
0.04445875531796093 -6.401227958035133 1.0140659010027346
0.04403765789796883 -6.415876015649785 0.998086405233315
0.043593729894965114 -6.431318245062823 0.9812405512595296
0.04312697130894978 -6.447554646274245 0.9635283390813777
0.04263738213992282 -6.464585219284052 0.9449497686988597
0.04212496238788424 -6.482409964092244 0.9255048401119761
0.041589712052834044 -6.50102888069882 0.9051935533207262
0.04103163113477223 -6.520441969103782 0.8840159083251098
0.040450719633698784 -6.540649229307129 0.8619719051251276
0.03984697754961373 -6.561650661308858 0.839061543720779
0.03922040488251705 -6.583446265108973 0.8152848241120646
0.03857100163240876 -6.606036040707476 0.7906417462989842
0.037898767799288836 -6.6294199881043605 0.7651323102815372
0.03720370338315731 -6.65359810729963 0.7387565160597246
0.03648580838401415 -6.678570398293285 0.7115143636335456
0.035745082801859375 -6.7043368610853245 0.6834058530030004
0.03498152663669298 -6.730897495675749 0.6544309841680894
0.03419513988851496 -6.758252302064559 0.6245897571288118
0.03338592255732534 -6.786401280251753 0.5938821718851685
0.03255387464312408 -6.815344430237331 0.5623082284371589
0.03169899614591121 -6.845081752021294 0.5298679267847833
0.030821287065686705 -6.875613245603643 0.49656126692804137
0.029920747402450598 -6.906938910984376 0.46238824886693364
0.02899737715620286 -6.939058748163493 0.4273488726014597
0.028051176326943504 -6.971972757140996 0.39144313813161935
0.027082144914672535 -7.005680937916884 0.35467104545741324
0.026090282919389942 -7.040183290491155 0.31703259457884103
0.02507559034109573 -7.075479814863813 0.2785277854959025
0.024038067179789898 -7.111570511034855 0.23915661820859802
0.022977713435472447 -7.148455379004281 0.19891909271692731
0.021894529108143372 -7.186134418772093 0.1578152090208902
0.020788514197802678 -7.224607630338289 0.1158449671204873
0.019659668704450364 -7.26387501370287 0.07300836701571833
0.01850799262808643 -7.303936568865835 0.02930540870658305
0.01733348596871088 -7.344792295827186 -0.01526390780691822
0.016136148726323712 -7.386442194586921 -0.060699582524785474
0.014915980900924922 -7.4288862651450405 -0.10700161544701892
0.013672982492514512 -7.472124507501546 -0.15417000657361857
0.014915980900924922 -7.5193092114547575 -0.11094956654347309
0.016136148726323712 -7.5656272575802594 -0.0685229713302079
0.01733348596871088 -7.611078645878048 -0.026890220933822984
0.01850799262808643 -7.655663376348126 0.013948684645681886
0.01965966870445036 -7.699381448990489 0.05399374540830637
0.02078851419780267 -7.742232863805142 0.09324496135405069
0.02189452910814336 -7.784217620792082 0.13170233248291485
0.02297771343547243 -7.82533571995131 0.16936585879489863
0.02403806717978988 -7.865587161282827 0.20623554029000235
0.025075590341095716 -7.90497194478663 0.24231137696822594
0.026090282919389925 -7.9434900704627225 0.277593368829569
0.027082144914672517 -7.981141538311104 0.3120815158740319
0.028051176326943487 -8.017926348331772 0.3457758181016146
0.02899737715620284 -8.053844500524727 0.3786762755123173
0.029920747402450574 -8.08889599488997 0.4107828881061396
[...]
CELL_DATA 200

VECTORS Vinf float
5.172452528875578 8.68889116232123 41.38710224994066
5.158496061842692 8.654429647993577 41.421011879119135
5.142426337389799 8.61421751073618 41.46058576138416
5.12436981855135 8.568276869181458 41.5058031818713
5.104481293811471 8.516633017295506 41.55663933133265
5.082945739928944 8.459314151405852 41.6130651765558
5.059979047606858 8.396350916680706 41.67504750627936
5.035827208499142 8.327775746733495 41.74254920444714
5.0115826688436425 8.253052178273789 41.8156249918812
4.985904337869606 8.17354164322283 41.89398072560293
4.95984830914501 8.088472547849138 41.977746843685125
4.933765139315497 7.997866187815475 42.066876615643395
4.908016130790289 7.90174011637296 42.161322881963144
4.882962964472086 7.800106896831569 42.261039551171585
4.858381833572352 7.693233387073804 42.36604153848591
4.835426211789259 7.580788858424036 42.47619108202115
4.813816923736064 7.46292373794541 42.59151585084773
4.793707419944779 7.339631160540217 42.7119994901521
4.777089601553554 7.20996371155717 42.83755454083499
4.759953456838744 7.07595704982219 42.96831923315807
4.743862813042809 6.93664505792218 43.10427362672209
4.729796595787808 6.7927742609081045 43.24519887748679
4.718490186749135 6.6417484649453815 43.391446388457325
4.708398111993578 6.485232983928045 43.54290406561184
4.699662453517213 6.3232183390310635 43.69955711740939
4.692403498957625 6.155692765932711 43.86139365084859
4.686726148605841 5.9826433815802 44.028403657896476
4.68272733445007 5.804057190778047 44.20057792417903
4.6805034239650976 5.6199218276613125 44.37790700711818
4.680156762138574 5.430225983902395 44.56038039957813
4.679769707259872 5.234756855270755 44.74832401882945
4.680317441894993 5.035629247179145 44.94118249656299
4.682236049206009 4.828336604297515 45.13966792657896
4.685774229068443 4.61559793936467 45.34330834119553
4.691067180991847 4.397413994327108 45.5520881422441
4.698256481694963 4.173785548065549 45.76599191877251
4.707481959359805 3.9447129570285133 45.98500566543762
4.718865128971793 3.7101954729982745 46.20911878189656
4.732482226040908 3.4702303184987513 46.43832691977994
4.742996989287691 3.2218225670681226 46.67382445948432
4.761009413378448 2.9698938248355535 46.91358101867304
4.77805088884582 2.712007492226097 47.158793459979954
4.795991168469368 2.448446079091379 47.40930043602389
4.813872241690294 2.1791627720075315 47.6652044632941
4.830537684679081 1.9041122040455303 47.9266250216558
4.844808760393981 1.6232611839292337 48.193680672985664
4.855470864547758 1.3360369124080915 48.46660800220876
4.863015020341186 1.0430143128059823 48.74551301347486
4.866872206128535 0.7445887349943145 49.0297147755526
4.868262617458216 0.4404471823762161 49.31956419771598
4.869804447282812 0.43314701830102553 49.61885773096584
4.871917858525734 0.7228919520335321 49.92201712003346
4.8718979506280125 1.0073830159223045 50.21974282674893
4.868683625483911 1.2866839490639743 50.51214293368524
4.859005536866639 1.558002438537512 50.79990734794086
4.848476687994254 1.8261341894928695 51.081851394610496
4.835101078043124 2.0891607609653486 51.358431593622825
4.820143035951401 2.347049713986856 51.62952302222892
4.804815041195979 2.5997551568604043 51.89500547426233
4.790073160675568 2.8472294628695725 52.154784148517294
4.775823015735111 3.089868336805567 52.4088274409382
4.7636099467885735 3.326557596659802 52.65715742750624
4.752383366793375 3.557991692119621 52.899693328254635
4.7437698210578585 3.783927521493273 53.13641528259251
4.73642178302299 4.004431916513411 53.36738431419842
4.73023132053915 4.219502022134116 53.59261328329959
4.725096804220905 4.429135785050415 53.81211479730278
4.720932862732831 4.63333134167171 54.02590003806804
4.716991482653955 4.833430634609808 54.23385978640791
4.714742473140711 5.027243719084788 54.43613992760361
4.713426088615084 5.215686946750682 54.63270080486533
4.7123210053817255 5.398356574183674 54.82370904080096
4.7135746132353935 5.57629166044481 55.00878216279577
4.715537120173871 5.748709007235487 55.18817252832339
4.718264605539358 5.915610204361539 55.36187753676018
4.721807997375444 6.076996488924595 55.529894877490904
4.726202591845073 6.232869281692998 55.69222341620255
4.731457509256793 6.383230811653502 55.848864056756256
4.741832612279491 6.529283560781899 55.99905291343001
4.751631419495972 6.669116761956139 56.14399134009801
4.763192393132998 6.803499916186931 56.283159725136805
4.776596666274456 6.932422055346865 56.41655357293236
4.791886350879887 7.055873526693533 56.54417158809686
4.809052400280709 7.173846784120596 56.666016594302945
4.8280639720148715 7.286508178508032 56.78203576783487
4.84843578604267 7.393555774253222 56.89237967036466
4.8704274891628545 7.495105030988142 56.99697708553765
4.8937373688513714 7.591165485632511 57.095853879403734
4.918021705557173 7.681749752312716 57.18903895806988
4.942908346018368 7.7668730331887605 57.276563162858615
4.9680120434468265 7.846552457919869 57.3584580423098
4.9929498566143256 7.920806333085698 57.434754636491256
5.01735510685817 7.989653382383996 57.50548239094824
5.04088878180766 8.053112046445737 57.57066828547572
5.063247745445451 8.1111998921081 57.6303362248905
5.0841695738863475 8.163933159463637 57.684506702391666
5.10287846311925 8.211187304862769 57.73333151847673
5.1202506112881805 8.253267104781498 57.776559674382234
5.1356597839096 8.290029034363327 57.81433034587537
5.148997105259866 8.32148213674841 57.84665161803039
5.172452528875578 8.68889116232123 41.38710224994066
5.158496061842692 8.654429647993577 41.421011879119135
5.142426337389799 8.61421751073618 41.46058576138416
5.12436981855135 8.568276869181458 41.5058031818713
5.104481293811471 8.516633017295506 41.55663933133265
5.082945739928944 8.459314151405852 41.6130651765558
5.059979047606858 8.396350916680706 41.67504750627936
5.035827208499142 8.327775746733495 41.74254920444714
5.0115826688436425 8.253052178273789 41.8156249918812
4.985904337869606 8.17354164322283 41.89398072560293
4.95984830914501 8.088472547849138 41.977746843685125
4.933765139315497 7.997866187815475 42.066876615643395
4.908016130790289 7.90174011637296 42.161322881963144
4.882962964472086 7.800106896831569 42.261039551171585
4.858381833572352 7.693233387073804 42.36604153848591
4.835426211789259 7.580788858424036 42.47619108202115
4.813816923736064 7.46292373794541 42.59151585084773
4.793707419944779 7.339631160540217 42.7119994901521
4.777089601553554 7.20996371155717 42.83755454083499
4.759953456838744 7.07595704982219 42.96831923315807
4.743862813042809 6.93664505792218 43.10427362672209
4.729796595787808 6.7927742609081045 43.24519887748679
4.718490186749135 6.6417484649453815 43.391446388457325
4.708398111993578 6.485232983928045 43.54290406561184
4.699662453517213 6.3232183390310635 43.69955711740939
4.692403498957625 6.155692765932711 43.86139365084859
4.686726148605841 5.9826433815802 44.028403657896476
4.68272733445007 5.804057190778047 44.20057792417903
4.6805034239650976 5.6199218276613125 44.37790700711818
4.680156762138574 5.430225983902395 44.56038039957813
4.679769707259872 5.234756855270755 44.74832401882945
4.680317441894993 5.035629247179145 44.94118249656299
4.682236049206009 4.828336604297515 45.13966792657896
4.685774229068443 4.61559793936467 45.34330834119553
4.691067180991847 4.397413994327108 45.5520881422441
4.698256481694963 4.173785548065549 45.76599191877251
4.707481959359805 3.9447129570285133 45.98500566543762
4.718865128971793 3.7101954729982745 46.20911878189656
4.732482226040908 3.4702303184987513 46.43832691977994
4.742996989287691 3.2218225670681226 46.67382445948432
4.761009413378448 2.9698938248355535 46.91358101867304
4.77805088884582 2.712007492226097 47.158793459979954
4.795991168469368 2.448446079091379 47.40930043602389
4.813872241690294 2.1791627720075315 47.6652044632941
4.830537684679081 1.9041122040455303 47.9266250216558
4.844808760393981 1.6232611839292337 48.193680672985664
4.855470864547758 1.3360369124080915 48.46660800220876
4.863015020341186 1.0430143128059823 48.74551301347486
4.866872206128535 0.7445887349943145 49.0297147755526
4.868262617458216 0.4404471823762161 49.31956419771598
4.869804447282812 0.43314701830102553 49.61885773096584
4.871917858525734 0.7228919520335321 49.92201712003346
4.8718979506280125 1.0073830159223045 50.21974282674893
4.868683625483911 1.2866839490639743 50.51214293368524
4.859005536866639 1.558002438537512 50.79990734794086
4.848476687994254 1.8261341894928695 51.081851394610496
4.835101078043124 2.0891607609653486 51.358431593622825
4.820143035951401 2.347049713986856 51.62952302222892
4.804815041195979 2.5997551568604043 51.89500547426233
4.790073160675568 2.8472294628695725 52.154784148517294
4.775823015735111 3.089868336805567 52.4088274409382
4.7636099467885735 3.326557596659802 52.65715742750624
4.752383366793375 3.557991692119621 52.899693328254635
4.7437698210578585 3.783927521493273 53.13641528259251
4.73642178302299 4.004431916513411 53.36738431419842
4.73023132053915 4.219502022134116 53.59261328329959
4.725096804220905 4.429135785050415 53.81211479730278
4.720932862732831 4.63333134167171 54.02590003806804
4.716991482653955 4.833430634609808 54.23385978640791
4.714742473140711 5.027243719084788 54.43613992760361
4.713426088615084 5.215686946750682 54.63270080486533
4.7123210053817255 5.398356574183674 54.82370904080096
4.7135746132353935 5.57629166044481 55.00878216279577
4.715537120173871 5.748709007235487 55.18817252832339
4.718264605539358 5.915610204361539 55.36187753676018
4.721807997375444 6.076996488924595 55.529894877490904
4.726202591845073 6.232869281692998 55.69222341620255
4.731457509256793 6.383230811653502 55.848864056756256
4.741832612279491 6.529283560781899 55.99905291343001
4.751631419495972 6.669116761956139 56.14399134009801
4.763192393132998 6.803499916186931 56.283159725136805
4.776596666274456 6.932422055346865 56.41655357293236
4.791886350879887 7.055873526693533 56.54417158809686
4.809052400280709 7.173846784120596 56.666016594302945
4.8280639720148715 7.286508178508032 56.78203576783487
4.84843578604267 7.393555774253222 56.89237967036466
4.8704274891628545 7.495105030988142 56.99697708553765
4.8937373688513714 7.591165485632511 57.095853879403734
4.918021705557173 7.681749752312716 57.18903895806988
4.942908346018368 7.7668730331887605 57.276563162858615
4.9680120434468265 7.846552457919869 57.3584580423098
4.9929498566143256 7.920806333085698 57.434754636491256
5.01735510685817 7.989653382383996 57.50548239094824
5.04088878180766 8.053112046445737 57.57066828547572
5.063247745445451 8.1111998921081 57.6303362248905
5.0841695738863475 8.163933159463637 57.684506702391666
5.10287846311925 8.211187304862769 57.73333151847673
5.1202506112881805 8.253267104781498 57.776559674382234
5.1356597839096 8.290029034363327 57.81433034587537
5.148997105259866 8.32148213674841 57.84665161803039

VECTORS L float
0.05772781002221288 0.0 0.0
0.10438099020138206 0.0 0.0
0.15498406940238316 0.0 0.0
0.21123998238164018 0.0 0.0
0.2736341876125671 0.0 0.0
0.3423232228969534 0.0 0.0
0.41732700729014766 0.0 0.0
0.49858523068676674 0.0 0.0
0.5859831086242221 0.0 0.0
0.6793486533556269 0.0 0.0
0.7784711889588449 0.0 0.0
0.8830971509268729 0.0 0.0
0.9929377274516069 0.0 0.0
1.1076487566414388 0.0 0.0
1.2268927745419478 0.0 0.0
1.350303155426953 0.0 0.0
1.4775016554627898 0.0 0.0
1.6081189335274204 0.0 0.0
1.7418450429974521 0.0 0.0
1.8782290149998235 0.0 0.0
2.016997378982207 0.0 0.0
2.157824351588828 0.0 0.0
2.3004787509481375 0.0 0.0
2.444787440437483 0.0 0.0
2.590486805455073 0.0 0.0
2.737373699147073 0.0 0.0
2.8852781608859424 0.0 0.0
3.0340423771756617 0.0 0.0
3.1835167780814793 0.0 0.0
3.3335455150305418 0.0 0.0
3.483916309238523 0.0 0.0
3.634329957253806 0.0 0.0
3.784896035319407 0.0 0.0
3.935594553560046 0.0 0.0
4.085725153057957 0.0 0.0
4.235207557119799 0.0 0.0
4.383662795086647 0.0 0.0
4.530597807199602 0.0 0.0
4.675361506327656 0.0 0.0
4.817003749629726 0.0 0.0
4.954918604783313 0.0 0.0
5.087701084268422 0.0 0.0
5.214002707291539 0.0 0.0
5.332238190009074 0.0 0.0
5.440769690770295 0.0 0.0
5.538167145610675 0.0 0.0
5.623739502014716 0.0 0.0
5.698705764596949 0.0 0.0
5.7683795531506 0.0 0.0
5.857033936669841 0.0 0.0
6.108355570868494 0.0 0.0
6.137064421717608 0.0 0.0
6.181973014091716 0.0 0.0
6.2183399225116105 0.0 0.0
6.239712369050744 0.0 0.0
6.244454295245449 0.0 0.0
6.232328607204185 0.0 0.0
6.20418075467719 0.0 0.0
6.161262100463091 0.0 0.0
6.104901087432871 0.0 0.0
6.036031609962461 0.0 0.0
5.956349247358003 0.0 0.0
5.866517474150103 0.0 0.0
5.767396728627045 0.0 0.0
5.659556204974308 0.0 0.0
5.543509780384905 0.0 0.0
5.419698690537413 0.0 0.0
5.2885075340609315 0.0 0.0
5.150266557934241 0.0 0.0
5.00535463185901 0.0 0.0
4.854115333204734 0.0 0.0
4.696816564634043 0.0 0.0
4.533850192079598 0.0 0.0
4.3654817562560675 0.0 0.0
4.192066463161342 0.0 0.0
4.013995848018241 0.0 0.0
3.831712559611242 0.0 0.0
3.645725199214765 0.0 0.0
3.4566637868861574 0.0 0.0
3.264981962360876 0.0 0.0
3.071323176045423 0.0 0.0
2.8764134086149222 0.0 0.0
2.6810184544996156 0.0 0.0
2.485966368023287 0.0 0.0
2.292123685397886 0.0 0.0
2.100410738501825 0.0 0.0
1.91178036012097 0.0 0.0
1.7271926239212083 0.0 0.0
1.5475868520537475 0.0 0.0
1.3738914776453246 0.0 0.0
1.206970795339347 0.0 0.0
1.0476341803621039 0.0 0.0
0.8966150782926607 0.0 0.0
0.7545638109487485 0.0 0.0
0.6220335158724786 0.0 0.0
0.49945850650554247 0.0 0.0
0.3871088599113758 0.0 0.0
0.28498110768425444 0.0 0.0
0.19242406604296985 0.0 0.0
0.10646412774643556 0.0 0.0
0.05772781002221288 0.0 0.0
0.10438099020138206 0.0 0.0
0.15498406940238316 0.0 0.0
0.21123998238164018 0.0 0.0
0.2736341876125671 0.0 0.0
0.3423232228969534 0.0 0.0
0.41732700729014766 0.0 0.0
0.49858523068676674 0.0 0.0
0.5859831086242221 0.0 0.0
0.6793486533556269 0.0 0.0
0.7784711889588449 0.0 0.0
0.8830971509268729 0.0 0.0
0.9929377274516069 0.0 0.0
1.1076487566414388 0.0 0.0
1.2268927745419478 0.0 0.0
1.350303155426953 0.0 0.0
1.4775016554627898 0.0 0.0
1.6081189335274204 0.0 0.0
1.7418450429974521 0.0 0.0
1.8782290149998235 0.0 0.0
2.016997378982207 0.0 0.0
2.157824351588828 0.0 0.0
2.3004787509481375 0.0 0.0
2.444787440437483 0.0 0.0
2.590486805455073 0.0 0.0
2.737373699147073 0.0 0.0
2.8852781608859424 0.0 0.0
3.0340423771756617 0.0 0.0
3.1835167780814793 0.0 0.0
3.3335455150305418 0.0 0.0
3.483916309238523 0.0 0.0
3.634329957253806 0.0 0.0
3.784896035319407 0.0 0.0
3.935594553560046 0.0 0.0
4.085725153057957 0.0 0.0
4.235207557119799 0.0 0.0
4.383662795086647 0.0 0.0
4.530597807199602 0.0 0.0
4.675361506327656 0.0 0.0
4.817003749629726 0.0 0.0
4.954918604783313 0.0 0.0
5.087701084268422 0.0 0.0
5.214002707291539 0.0 0.0
5.332238190009074 0.0 0.0
5.440769690770295 0.0 0.0
5.538167145610675 0.0 0.0
5.623739502014716 0.0 0.0
5.698705764596949 0.0 0.0
5.7683795531506 0.0 0.0
5.857033936669841 0.0 0.0
6.108355570868494 0.0 0.0
6.137064421717608 0.0 0.0
6.181973014091716 0.0 0.0
6.2183399225116105 0.0 0.0
6.239712369050744 0.0 0.0
6.244454295245449 0.0 0.0
6.232328607204185 0.0 0.0
6.20418075467719 0.0 0.0
6.161262100463091 0.0 0.0
6.104901087432871 0.0 0.0
6.036031609962461 0.0 0.0
5.956349247358003 0.0 0.0
5.866517474150103 0.0 0.0
5.767396728627045 0.0 0.0
5.659556204974308 0.0 0.0
5.543509780384905 0.0 0.0
5.419698690537413 0.0 0.0
5.2885075340609315 0.0 0.0
5.150266557934241 0.0 0.0
5.00535463185901 0.0 0.0
4.854115333204734 0.0 0.0
4.696816564634043 0.0 0.0
4.533850192079598 0.0 0.0
4.3654817562560675 0.0 0.0
4.192066463161342 0.0 0.0
4.013995848018241 0.0 0.0
3.831712559611242 0.0 0.0
3.645725199214765 0.0 0.0
3.4566637868861574 0.0 0.0
3.264981962360876 0.0 0.0
3.071323176045423 0.0 0.0
2.8764134086149222 0.0 0.0
2.6810184544996156 0.0 0.0
2.485966368023287 0.0 0.0
2.292123685397886 0.0 0.0
2.100410738501825 0.0 0.0
1.91178036012097 0.0 0.0
1.7271926239212083 0.0 0.0
1.5475868520537475 0.0 0.0
1.3738914776453246 0.0 0.0
1.206970795339347 0.0 0.0
1.0476341803621039 0.0 0.0
0.8966150782926607 0.0 0.0
0.7545638109487485 0.0 0.0
0.6220335158724786 0.0 0.0
0.49945850650554247 0.0 0.0
0.3871088599113758 0.0 0.0
0.28498110768425444 0.0 0.0
0.19242406604296985 0.0 0.0
0.10646412774643556 0.0 0.0

SCALARS Gamma float
LOOKUP_TABLE default
0.4176137541469839
0.6418841930846848
0.8254359629479635
0.9905954231479739
1.1448629493412612
1.2915328804045942
1.4322277712416998
1.5677621316075108
1.6985253530819804
1.8246298421060905
1.9460520150136498
2.062670020426917
2.17431316593799
2.2807423594530567
2.3817888692522122
2.4772768530203613
2.5670590230400085
2.6510461838294277
2.7292173014083563
2.8015159018767752
2.868031774123051
2.9288308431762444
2.9841865474710536
3.034189977567755
3.079043913557173
3.118941466200801
3.1541004768553798
3.184736809755984
3.211060057925031
3.233259937946209
3.2514647220026003
3.265839735164117
3.2766141460099423
3.2838855686315616
3.287742950587363
3.2882439681610816
3.2853778965311204
3.27906713268831
3.2691482004307697
3.255275753182744
3.237463395843206
3.215124183865067
3.187872983361939
3.155235808810149
3.1167880751934014
3.0722889005356464
3.0219228401114764
2.966769478738931
2.909513254067731
2.857185204615226
2.851469753054119
2.891844440351405
2.9366688068578277
2.9792343896217037
3.016934016079996
3.0489995781921575
3.0752169046946314
3.095850921304552
3.1113524136728055
3.122210061409129
3.1288461601178494
3.1317132830209355
3.131079557659792
3.1272098334168597
3.120214436371882
3.1101676397629823
3.097096594576815
3.0809870364413925
3.061781286805565
3.0394358084786135
3.0138720221930018
2.984946978807309
2.9525734454017813
2.9165630165506857
2.8767575669615857
2.832997056380622
2.785129530869165
2.733023338732356
2.676612625690808
2.6156744026129917
2.5500981162695444
2.4798180811242267
2.4047848084380843
2.3249895161421854
2.240451483316463
2.151241198255639
2.0574722839682478
1.9592864381630364
1.856830166403541
1.7502703990369297
1.6397322774431482
1.525299015553534
1.4069651874701399
1.2845884543998947
1.1578007317555319
1.0258468592394987
0.8872532655172126
0.7390609580352717
0.5745404624160295
0.37370273557545725
0.4176137541469839
0.6418841930846848
0.8254359629479635
0.9905954231479739
1.1448629493412612
1.2915328804045942
1.4322277712416998
1.5677621316075108
1.6985253530819804
1.8246298421060905
1.9460520150136498
2.062670020426917
2.17431316593799
2.2807423594530567
2.3817888692522122
2.4772768530203613
2.5670590230400085
2.6510461838294277
2.7292173014083563
2.8015159018767752
2.868031774123051
2.9288308431762444
2.9841865474710536
3.034189977567755
3.079043913557173
3.118941466200801
3.1541004768553798
3.184736809755984
3.211060057925031
3.233259937946209
3.2514647220026003
3.265839735164117
3.2766141460099423
3.2838855686315616
3.287742950587363
3.2882439681610816
3.2853778965311204
3.27906713268831
3.2691482004307697
3.255275753182744
3.237463395843206
3.215124183865067
3.187872983361939
3.155235808810149
3.1167880751934014
3.0722889005356464
3.0219228401114764
2.966769478738931
2.909513254067731
2.857185204615226
2.851469753054119
2.891844440351405
2.9366688068578277
2.9792343896217037
3.016934016079996
3.0489995781921575
3.0752169046946314
3.095850921304552
3.1113524136728055
3.122210061409129
3.1288461601178494
3.1317132830209355
3.131079557659792
3.1272098334168597
3.120214436371882
3.1101676397629823
3.097096594576815
3.0809870364413925
3.061781286805565
3.0394358084786135
3.0138720221930018
2.984946978807309
2.9525734454017813
2.9165630165506857
2.8767575669615857
2.832997056380622
2.785129530869165
2.733023338732356
2.676612625690808
2.6156744026129917
2.5500981162695444
2.4798180811242267
2.4047848084380843
2.3249895161421854
2.240451483316463
2.151241198255639
2.0574722839682478
1.9592864381630364
1.856830166403541
1.7502703990369297
1.6397322774431482
1.525299015553534
1.4069651874701399
1.2845884543998947
1.1578007317555319
1.0258468592394987
0.8872532655172126
0.7390609580352717
0.5745404624160295
0.37370273557545725

VECTORS Vvpm float