# vtk DataFile Version 4.0
[MyVLM domain - lattices] 
ASCII
DATASET UNSTRUCTURED_GRID
POINTS 302 float
0.03418245623128624 -5.71512670511191 -2.8456981105693573
0.0340581563904452 -5.716239025677589 -2.8519994413966256
0.03391102596659254 -5.717555650020637 -2.8594581595186987
0.033741064959728256 -5.719076578141056 -2.868074264935576
0.03354827336985236 -5.720801810038845 -2.877847757647258
0.033332651196964845 -5.722731345714003 -2.8887786376537443
0.0330941984410657 -5.7248651851665295 -2.9008669049550346
0.03283291510215494 -5.727203328396427 -2.9141125595511297
0.03254880118023257 -5.729745775403694 -2.928515601442029
0.032241856675298566 -5.73249252618833 -2.944076030627733
0.031912081587352946 -5.735443580750337 -2.960793847108241
0.031559475916395706 -5.738598939089712 -2.978669050883554
0.031184039662426853 -5.741958601206457 -2.997701641953671
0.030785772825446374 -5.745522567100573 -3.0178916203185926
0.030364675405454275 -5.749290836772057 -3.039238985978318
0.029920747402450557 -5.753263410220912 -3.0617437389328486
0.02945398881643522 -5.757440287447136 -3.0854058791821837
0.028964399647408254 -5.76182146845073 -3.1102254067263226
0.028451979895369683 -5.766406953231693 -3.1362023215652663
0.027916729560319486 -5.7711967417900265 -3.1633366236990144
0.02735864864225767 -5.776190834125729 -3.191628313127567
0.02677773714118423 -5.781389230238801 -3.2210773898509237
0.02617399505709918 -5.786791930129243 -3.251683853869085
0.025547422390002496 -5.792398933797054 -3.2834477051820503
0.024898019139894208 -5.798210241242236 -3.3163689437898203
0.024225785306774297 -5.804225852464787 -3.350447569692396
0.02353072089064276 -5.810445767464707 -3.3856835828897736
0.0228128258914996 -5.816869986241998 -3.4220769833819578
0.022072100309344832 -5.823498508796658 -3.459627771168946
0.021308544144178435 -5.830331335128688 -3.4983359462507377
0.020522157396000423 -5.837368465238087 -3.5382015086273344
0.019712940064810787 -5.844609899124856 -3.579224458298736
0.018880892150609535 -5.852055636788994 -3.621404795264941
0.018026013653396664 -5.859705678230503 -3.66474251952595
0.01714830457317217 -5.86756002344938 -3.709237631081765
0.016247764909936055 -5.875618672445628 -3.7548901299323836
0.01532439466368832 -5.883881625219245 -3.8017000160778074
0.01437819383442897 -5.892348881770232 -3.8496672895180346
0.013409162422158002 -5.901020442098589 -3.8987919502530666
0.012417300426875413 -5.909896306204315 -3.949073998282903
0.0114026078485812 -5.91897647408741 -4.000513433607543
0.010365084687275369 -5.928260945747875 -4.053110256226988
0.00930473094295792 -5.937749721185711 -4.106864466141238
0.008221546615628844 -5.947442800400916 -4.161776063350293
0.007115531705288154 -5.95734018339349 -4.217845047854151
0.005986686211935843 -5.967441870163435 -4.275071419652814
0.004835010135571912 -5.977747860710748 -4.333455178746282
0.003660503476196362 -5.988258155035432 -4.392996325134553
0.002463166233809198 -5.998972753137484 -4.453694858817629
0.0012429984084104087 -6.009891655016907 -4.515550779795509
0.0 -6.0210148606736995 -4.578564088068195
0.0012429984084104133 -6.084032361861826 -4.56746466161652
0.0024631662338092065 -6.145892398742417 -4.556569102181304
0.0036605034761963812 -6.20659497131547 -4.545877409762548
0.004835010135571935 -6.266140079580985 -4.535389584360251
0.005986686211935868 -6.3245277235389645 -4.525105625974414
0.007115531705288182 -6.381757903189406 -4.515025534605035
0.008221546615628876 -6.4378306185323115 -4.505149310252117
0.009304730942957948 -6.492745869567679 -4.495476952915657
0.010365084687275405 -6.54650365629551 -4.486008462595657
0.01140260784858124 -6.599103978715804 -4.476743839292116
0.012417300426875456 -6.6505468368285605 -4.467683083005034
0.013409162422158049 -6.700832230633781 -4.458826193734412
0.014378193834429023 -6.749960160131463 -4.450173171480249
0.015324394663688378 -6.79793062532161 -4.441724016242546
0.01624776490993611 -6.844743626204217 -4.433478728021301
0.017148304573172228 -6.890399162779289 -4.425437306816517
0.018026013653396726 -6.934897235046823 -4.417599752628191
0.018880892150609604 -6.978237843006821 -4.409966065456325
0.01971294006481086 -7.020420986659281 -4.402536245300918
0.020522157396000495 -7.061446666004206 -4.3953102921619704
0.02130854414417851 -7.101314881041592 -4.388288206039482
0.022072100309344908 -7.140025631771442 -4.381469986933453
0.02281282589149968 -7.1775789181937535 -4.374855634843883
0.023530720890642842 -7.2139747403085295 -4.368445149770773
0.024225785306774376 -7.249213098115768 -4.362238531714123
0.024898019139894298 -7.28329399161547 -4.356235780673931
0.025547422390002593 -7.316217420807634 -4.350436896650199
0.026173995057099272 -7.347983385692261 -4.344841879642926
0.02677773714118433 -7.378591886269351 -4.339450729652112
0.02735864864225777 -7.408042922538905 -4.334263446677758
0.027916729560319584 -7.436336494500921 -4.329280030719863
0.028451979895369784 -7.4634726021554005 -4.324500481778427
0.02896439964740836 -7.489451245502343 -4.319924799853451
0.02945398881643532 -7.514272424541747 -4.315552984944935
0.02992074740245066 -7.537936139273615 -4.311385037052877
0.03036467540545438 -7.560442389697946 -4.307420956177279
0.030785772825446475 -7.581791175814741 -4.30366074231814
0.03118403966242696 -7.6019824976239985 -4.3001043954754605
0.03155947591639582 -7.621016355125717 -4.29675191564924
0.031912081587353064 -7.638892748319901 -4.29360330283948
0.03224185667529868 -7.655611677206548 -4.290658557046179
0.03254880118023268 -7.671173141785656 -4.287917678269336
0.03283291510215505 -7.685577142057228 -4.285380666508953
0.033094198441065814 -7.698823678021263 -4.283047521765029
0.03333265119696495 -7.71091274967776 -4.280918244037566
0.03354827336985248 -7.721844357026721 -4.27899283332656
0.03374106495972838 -7.731618500068144 -4.277271289632015
0.03391102596659266 -7.740235178802032 -4.275753612953929
0.03405815639044533 -7.747694393228382 -4.274439803292302
0.034182456231286365 -7.7539961433471944 -4.273329860647134
0.04785543872380077 -6.00054533053425 -2.438078069585378
0.047731138882959726 -6.001657651099929 -2.4443794004126462
0.04758400845910707 -6.002974275442979 -2.451838118534719
0.04741404745224278 -6.004495203563398 -2.4604542239515967
0.04722125586236688 -6.006220435461185 -2.4702277166632784
0.04700563368947937 -6.008149971136343 -2.4811585966697645
0.04676718093358023 -6.010283810588871 -2.4932468639710548
0.04650589759466947 -6.012621953818768 -2.5064925185671503
0.04622178367274709 -6.015164400826035 -2.520895560458049
0.04591483916781309 -6.017911151610671 -2.5364559896437533
0.04558506407986747 -6.020862206172677 -2.5531738061242617
0.045232458408910235 -6.024017564512054 -2.571049009899574
0.044857022154941376 -6.027377226628799 -2.5900816009696914
0.044458755317960896 -6.0309411925229135 -2.6102715793346127
0.0440376578979688 -6.034709462194399 -2.631618944994339
0.04359372989496508 -6.038682035643253 -2.654123697948869
0.04312697130894974 -6.042858912869477 -2.677785838198204
0.04263738213992278 -6.047240093873071 -2.7026053657423432
0.042124962387884206 -6.051825578654034 -2.728582280581287
0.041589712052834016 -6.056615367212367 -2.755716582715035
0.0410316311347722 -6.06160945954807 -2.7840082721435873
0.040450719633698756 -6.066807855661143 -2.8134573488669443
0.0398469775496137 -6.072210555551584 -2.8440638128851052
0.039220404882517025 -6.077817559219396 -2.8758276641980713
0.03857100163240874 -6.0836288666645775 -2.9087489028058413
0.037898767799288816 -6.089644477887128 -2.942827528708416
0.03720370338315729 -6.095864392887049 -2.9780635419057946
0.03648580838401413 -6.102288611664339 -3.014456942397978
0.035745082801859354 -6.1089171342189985 -3.052007730184966
0.03498152663669297 -6.115749960551029 -3.090715905266758
0.03419513988851495 -6.122787090660427 -3.130581467643355
0.033385922557325316 -6.130028524547197 -3.1716044173147555
0.03255387464312406 -6.137474262211335 -3.2137847542809617
0.031698996145911186 -6.145124303652843 -3.2571224785419717
0.030821287065686688 -6.152978648871722 -3.3016175900977855
0.02992074740245058 -6.161037297867969 -3.347270088948404
0.02899737715620285 -6.169300250641586 -3.3940799750938275
0.02805117632694349 -6.177767507192573 -3.442047248534055
0.027082144914672528 -6.186439067520929 -3.491171909269087
0.026090282919389935 -6.195314931626656 -3.5414539572989234
0.025075590341095726 -6.204395099509751 -3.592893392623564
0.024038067179789895 -6.213679571170217 -3.645490215243009
0.022977713435472443 -6.223168346608052 -3.699244425157259
0.02189452910814337 -6.232861425823256 -3.7541560223663133
0.020788514197802678 -6.2427588088158315 -3.810225006870171
0.019659668704450368 -6.252860495585775 -3.867451378668835
0.018507992628086438 -6.263166486133089 -3.9258351377623018
0.017333485968710885 -6.273676780457772 -3.9853762841505738
0.016136148726323723 -6.2843913785598255 -4.04607481783365
0.014915980900924936 -6.2953102804392485 -4.10793073881153
0.013672982492514528 -6.306433486096041 -4.170944047084215
0.014915980900924938 -6.369450987284168 -4.159844620632541
0.01613614872632373 -6.431311024164757 -4.1489490611973245
0.017333485968710906 -6.492013596737811 -4.138257368778568
0.01850799262808646 -6.551558705003327 -4.127769543376271
0.019659668704450392 -6.609946348961306 -4.117485584990434
0.020788514197802706 -6.667176528611749 -4.107405493621056
0.0218945291081434 -6.723249243954654 -4.097529269268136
0.022977713435472474 -6.778164494990022 -4.087856911931677
0.02403806717978993 -6.83192228171785 -4.078388421611677
0.025075590341095768 -6.884522604138146 -4.069123798308136
0.026090282919389977 -6.935965462250902 -4.060063042021055
0.027082144914672573 -6.986250856056121 -4.051206152750432
0.028051176326943542 -7.035378785553805 -4.04255313049627
0.028997377156202906 -7.08334925074395 -4.0341039752585655
0.029920747402450636 -7.130162251626559 -4.025858687037322
0.030821287065686757 -7.1758177882016305 -4.017817265832537
[...]
CELL_DATA 200

VECTORS Vinf float
5.234009251805135 -14.899806597622913 39.57157666266023
5.219967321757756 -14.947057750571068 39.58166387321995
5.203807501274283 -15.00220039593586 39.59343733574746
5.185664124995961 -15.065205850259812 39.60689036119196
5.165703240776879 -15.136040327384332 39.62201418396952
5.144125238102428 -15.214664978845917 39.638797643473474
5.121166343952449 -15.301036185889425 39.657226913541976
5.0970985537045825 -15.395106158660292 39.67728531159988
5.072227625585329 -15.49682387828019 39.6989532186973
5.0412638802620355 -15.61328858769881 39.72034311922731
5.016182609213152 -15.728807140865818 39.7456274683052
4.990818067597821 -15.851907734991045 39.77248402231109
4.965496566556277 -15.9825672563307 39.800881054415896
4.940549179517421 -16.120767525650198 39.83078449687778
4.916301133331218 -16.26649703881148 39.86215858830845
4.893061832388057 -16.41975234576636 39.89496656772281
4.871116613276583 -16.580538897389374 39.929171344629964
4.8507211308007445 -16.74887125463906 39.96473607592413
4.832098904367153 -16.924772644695416 40.001624593889524
4.815442070568938 -17.108273946879383 40.03980165341065
4.800914891406612 -17.29941227613197 40.07923299597366
4.785835818583163 -17.496834470741852 40.12082431730047
4.773963386189172 -17.702248628674262 40.163358604742776
4.763723292317596 -17.915097695928917 40.20729039454877
4.755059620547582 -18.135403907223708 40.2526188040465
4.747914846919222 -18.36318755369178 40.29934376590158
4.742235133312676 -18.59846642187099 40.3474655863413
4.7379746105818805 -18.841255506806778 40.39698453601888
4.735098925064638 -19.09156692505925 40.44790047731563
4.733588314934812 -19.349409961775756 40.50021253239362
4.733440378421918 -19.614791204017624 40.55391880077776
4.734672518283315 -19.887714734158546 40.609016141356406
4.737323806191039 -20.168182382294205 40.66550004076589
4.741455700384368 -20.456194069405598 40.723364600379675
4.7463151711808065 -20.747746730399943 40.78348710750981
4.7528622707432575 -21.05078822591655 40.84424643652851
4.761871762215132 -21.3667768979898 40.9049203531066
4.773596622968499 -21.684434128749054 40.96828019845875
4.787025580455351 -22.009709986051455 41.03299427287427
4.802084336838145 -22.3426396207458 41.09906199368039
4.818545507423072 -22.683272066448538 41.16649351344929
4.837305581332705 -23.03116411067175 41.23530795383619
4.855556764475685 -23.38727934001431 41.3055260438803
4.873669858670924 -23.751204266648717 41.37723264130596
4.890483991038968 -24.123047888196442 41.45050319834239
4.904814657522246 -24.502908408021554 41.52541873426492
4.9156342565458955 -24.89187891148625 41.601779439700536
4.922928855880737 -25.287816905133724 41.68007468399807
4.926896010295654 -25.69166916209244 41.76012329075131
4.928328459590634 -26.103323544156584 41.841896920936605
4.929626903892631 -26.269693790978977 42.09091569950767
4.931186544210016 -26.18778402926808 42.5025025323261
4.929614615136842 -26.107876797692317 42.90652597907006
4.925614534021114 -26.029101712208433 43.30340976770512
4.917665431168542 -25.952005051581626 43.693025529315
4.906164382912676 -25.876533101258705 44.075363148227524
4.892115906456659 -25.80262696886801 44.4503419039585
4.876973644632199 -25.730992905871744 44.81761821792064
4.859934651903858 -25.660198964804877 45.17768658285686
4.8438203202691685 -25.590590903804706 45.530167598359284
4.829232432834311 -25.522176562107813 45.874982769735574
4.816482193643145 -25.45497409636668 46.212082985173566
4.8056652583037325 -25.389008078733536 46.54144283916358
4.796742440973858 -25.324306120233658 46.8630532641366
4.7896056885363025 -25.260896408668852 47.176914835119874
4.784123734920527 -25.198806191852995 47.48303267704527
4.780169470242889 -25.13806104264512 47.78141306873637
4.777633376252003 -25.07868467430817 48.072061489867956
4.766844462500965 -25.02736385109291 48.352889950179225
4.7641316460040155 -24.97215872324363 48.62777256985715
4.762369272973954 -24.918431387824803 48.89493348009227
4.761565662119418 -24.86618495998766 49.15437292528848
4.761752993482018 -24.81542206653807 49.40608868383527
4.762985406197087 -24.76614509093896 49.65007624443663
4.765337195053382 -24.718356387832127 49.886328977891054
4.768900833886428 -24.672058473420314 50.1148383190777
4.7737843274572525 -24.62725419699128 50.33559400128461
4.7801072431768095 -24.583946894544738 50.54858440432857
4.787994767963477 -24.54214051942289 50.75379708275381
4.7975693402115205 -24.50183973879766 50.951219524293556
4.8091066920305146 -24.46087210152649 51.14138713226679
4.8226560271965875 -24.424137685272086 51.32301328259514
4.838062968924898 -24.388856523552693 51.496852532462874
4.8552913610205835 -24.35504227630614 51.66290400096596
4.874250291650723 -24.32270846463612 51.82117188788667
4.8940025713217326 -24.292001182154895 51.971728629568005
4.916138536308319 -24.262422538840223 52.114496212100214
4.939514367604179 -24.23440373386817 52.24949922831146
4.963816754323649 -24.207950233201817 52.37676539758631
4.988696722748401 -24.18306634847151 52.49632621659239
5.01378577928437 -24.15975511354595 52.60821549611649
5.038712214860213 -24.138018246719646 52.71246784754805
5.063116017774375 -24.117856194369974 52.80911726632639
5.086661231284824 -24.099268244399873 52.898195926375955
5.109045068055196 -24.082252693000402 52.97973325696973
5.130003562453421 -24.066807046370005 53.05375533029344
5.149313936061704 -24.052928239566285 53.12028455074901
5.166794135552566 -24.04061285696796 53.17933960940607
5.182300167784645 -24.02985734213664 53.23093565002408
5.195721917666205 -24.020658188473696 53.2750845858028
5.234009251805135 -14.899806597622913 39.57157666266023
5.219967321757756 -14.947057750571068 39.58166387321995
5.203807501274283 -15.00220039593586 39.59343733574746
5.185664124995961 -15.065205850259812 39.60689036119196
5.165703240776879 -15.136040327384332 39.62201418396952
5.144125238102428 -15.214664978845917 39.638797643473474
5.121166343952449 -15.301036185889425 39.657226913541976
5.0970985537045825 -15.395106158660292 39.67728531159988
5.072227625585329 -15.49682387828019 39.6989532186973
5.0412638802620355 -15.61328858769881 39.72034311922731
5.016182609213152 -15.728807140865818 39.7456274683052
4.990818067597821 -15.851907734991045 39.77248402231109
4.965496566556277 -15.9825672563307 39.800881054415896
4.940549179517421 -16.120767525650198 39.83078449687778
4.916301133331218 -16.26649703881148 39.86215858830845
4.893061832388057 -16.41975234576636 39.89496656772281
4.871116613276583 -16.580538897389374 39.929171344629964
4.8507211308007445 -16.74887125463906 39.96473607592413
4.832098904367153 -16.924772644695416 40.001624593889524
4.815442070568938 -17.108273946879383 40.03980165341065
4.800914891406612 -17.29941227613197 40.07923299597366
4.785835818583163 -17.496834470741852 40.12082431730047
4.773963386189172 -17.702248628674262 40.163358604742776
4.763723292317596 -17.915097695928917 40.20729039454877
4.755059620547582 -18.135403907223708 40.2526188040465
4.747914846919222 -18.36318755369178 40.29934376590158
4.742235133312676 -18.59846642187099 40.3474655863413
4.7379746105818805 -18.841255506806778 40.39698453601888
4.735098925064638 -19.09156692505925 40.44790047731563
4.733588314934812 -19.349409961775756 40.50021253239362
4.733440378421918 -19.614791204017624 40.55391880077776
4.734672518283315 -19.887714734158546 40.609016141356406
4.737323806191039 -20.168182382294205 40.66550004076589
4.741455700384368 -20.456194069405598 40.723364600379675
4.7463151711808065 -20.747746730399943 40.78348710750981
4.7528622707432575 -21.05078822591655 40.84424643652851
4.761871762215132 -21.3667768979898 40.9049203531066
4.773596622968499 -21.684434128749054 40.96828019845875
4.787025580455351 -22.009709986051455 41.03299427287427
4.802084336838145 -22.3426396207458 41.09906199368039
4.818545507423072 -22.683272066448538 41.16649351344929
4.837305581332705 -23.03116411067175 41.23530795383619
4.855556764475685 -23.38727934001431 41.3055260438803
4.873669858670924 -23.751204266648717 41.37723264130596
4.890483991038968 -24.123047888196442 41.45050319834239
4.904814657522246 -24.502908408021554 41.52541873426492
4.9156342565458955 -24.89187891148625 41.601779439700536
4.922928855880737 -25.287816905133724 41.68007468399807
4.926896010295654 -25.69166916209244 41.76012329075131
4.928328459590634 -26.103323544156584 41.841896920936605
4.929626903892631 -26.269693790978977 42.09091569950767
4.931186544210016 -26.18778402926808 42.5025025323261
4.929614615136842 -26.107876797692317 42.90652597907006
4.925614534021114 -26.029101712208433 43.30340976770512
4.917665431168542 -25.952005051581626 43.693025529315
4.906164382912676 -25.876533101258705 44.075363148227524
4.892115906456659 -25.80262696886801 44.4503419039585
4.876973644632199 -25.730992905871744 44.81761821792064
4.859934651903858 -25.660198964804877 45.17768658285686
4.8438203202691685 -25.590590903804706 45.530167598359284
4.829232432834311 -25.522176562107813 45.874982769735574
4.816482193643145 -25.45497409636668 46.212082985173566
4.8056652583037325 -25.389008078733536 46.54144283916358
4.796742440973858 -25.324306120233658 46.8630532641366
4.7896056885363025 -25.260896408668852 47.176914835119874
4.784123734920527 -25.198806191852995 47.48303267704527
4.780169470242889 -25.13806104264512 47.78141306873637
4.777633376252003 -25.07868467430817 48.072061489867956
4.766844462500965 -25.02736385109291 48.352889950179225
4.7641316460040155 -24.97215872324363 48.62777256985715
4.762369272973954 -24.918431387824803 48.89493348009227
4.761565662119418 -24.86618495998766 49.15437292528848
4.761752993482018 -24.81542206653807 49.40608868383527
4.762985406197087 -24.76614509093896 49.65007624443663
4.765337195053382 -24.718356387832127 49.886328977891054
4.768900833886428 -24.672058473420314 50.1148383190777
4.7737843274572525 -24.62725419699128 50.33559400128461
4.7801072431768095 -24.583946894544738 50.54858440432857
4.787994767963477 -24.54214051942289 50.75379708275381
4.7975693402115205 -24.50183973879766 50.951219524293556
4.8091066920305146 -24.46087210152649 51.14138713226679
4.8226560271965875 -24.424137685272086 51.32301328259514
4.838062968924898 -24.388856523552693 51.496852532462874
4.8552913610205835 -24.35504227630614 51.66290400096596
4.874250291650723 -24.32270846463612 51.82117188788667
4.8940025713217326 -24.292001182154895 51.971728629568005
4.916138536308319 -24.262422538840223 52.114496212100214
4.939514367604179 -24.23440373386817 52.24949922831146
4.963816754323649 -24.207950233201817 52.37676539758631
4.988696722748401 -24.18306634847151 52.49632621659239
5.01378577928437 -24.15975511354595 52.60821549611649
5.038712214860213 -24.138018246719646 52.71246784754805
5.063116017774375 -24.117856194369974 52.80911726632639
5.086661231284824 -24.099268244399873 52.898195926375955
5.109045068055196 -24.082252693000402 52.97973325696973
5.130003562453421 -24.066807046370005 53.05375533029344
5.149313936061704 -24.052928239566285 53.12028455074901
5.166794135552566 -24.04061285696796 53.17933960940607
5.182300167784645 -24.02985734213664 53.23093565002408
5.195721917666205 -24.020658188473696 53.2750845858028

VECTORS L float
0.05860271708722235 0.0 0.0
0.10596395780394705 0.0 0.0
0.15733699966335649 0.0 0.0
0.2144502323284355 0.0 0.0
0.27779646153571036 0.0 0.0
0.3475344963248332 0.0 0.0
0.4236837481349429 0.0 0.0
0.5061832195633972 0.0 0.0
0.5949242589261742 0.0 0.0
0.6897175776470367 0.0 0.0
0.7903947929023764 0.0 0.0
0.8966843582997007 0.0 0.0
1.0082878077732682 0.0 0.0
1.1246092898767899 0.0 0.0
1.245713465277785 0.0 0.0
1.3710423752047791 0.0 0.0
1.5002006679031354 0.0 0.0
1.6328649059525162 0.0 0.0
1.7686458493457085 0.0 0.0
1.9071907361329303 0.0 0.0
2.0481698383598053 0.0 0.0
2.191248394450593 0.0 0.0
2.3362094621847995 0.0 0.0
2.4827930774022526 0.0 0.0
2.6307789149454517 0.0 0.0
2.779973959696378 0.0 0.0
2.9302306154801503 0.0 0.0
3.081359403876637 0.0 0.0
3.233203315609882 0.0 0.0
3.385605383274056 0.0 0.0
3.538419827010833 0.0 0.0
3.6914900561986594 0.0 0.0
3.844662727613766 0.0 0.0
3.9976652424803962 0.0 0.0
4.15025571616601 0.0 0.0
4.302174349220712 0.0 0.0
4.453091958360786 0.0 0.0
4.602541092929693 0.0 0.0
4.749848843179974 0.0 0.0
4.894198436923708 0.0 0.0
5.0345958714454735 0.0 0.0
5.169880128474503 0.0 0.0
5.298483774821437 0.0 0.0
5.41883919530244 0.0 0.0
5.529277166512045 0.0 0.0
5.628342858375934 0.0 0.0
5.715342209210271 0.0 0.0
5.7914762898016745 0.0 0.0
5.862310585606443 0.0 0.0
5.952581790755077 0.0 0.0
6.2142903618315914 0.0 0.0
6.243013336195475 0.0 0.0
6.288264035405793 0.0 0.0
6.324926315765573 0.0 0.0
6.3465396057671475 0.0 0.0
6.351032727529685 0.0 0.0
6.338332778383869 0.0 0.0
6.30931861999472 0.0 0.0
6.265159352974511 0.0 0.0
6.2074557731231135 0.0 0.0
6.1372471417005805 0.0 0.0
6.055867133022673 0.0 0.0
5.964274014813008 0.0 0.0
5.863246871647005 0.0 0.0
5.753447278425385 0.0 0.0
5.635306241339673 0.0 0.0
5.509245662249701 0.0 0.0
5.375575128983338 0.0 0.0
5.234303752411871 0.0 0.0
5.086546316944511 0.0 0.0
4.932417073739402 0.0 0.0
4.772025367576214 0.0 0.0
4.606001252760665 0.0 0.0
4.434548636218124 0.0 0.0
4.258036247497081 0.0 0.0
4.076868553955562 0.0 0.0
3.891484165548986 0.0 0.0
3.7023701513922966 0.0 0.0
3.510068137288766 0.0 0.0
3.3151905217862283 0.0 0.0
3.118357996857094 0.0 0.0
2.920290046348418 0.0 0.0
2.721757203062248 0.0 0.0
2.523594012254704 0.0 0.0
2.32668221979511 0.0 0.0
2.131948887569489 0.0 0.0
1.9403822471774752 0.0 0.0
1.7529427402484594 0.0 0.0
1.5705880336043514 0.0 0.0
1.3942463447604931 0.0 0.0
1.2247981378960064 0.0 0.0
1.0630618361521167 0.0 0.0
0.9097808087405279 0.0 0.0
0.7656133432380553 0.0 0.0
0.6311188056388968 0.0 0.0
0.5067359847659876 0.0 0.0
0.39273781799347 0.0 0.0
0.28911558382468266 0.0 0.0
0.19520833351977368 0.0 0.0
0.10799829848482002 0.0 0.0
0.05860271708722235 0.0 0.0
0.10596395780394705 0.0 0.0
0.15733699966335649 0.0 0.0
0.2144502323284355 0.0 0.0
0.27779646153571036 0.0 0.0
0.3475344963248332 0.0 0.0
0.4236837481349429 0.0 0.0
0.5061832195633972 0.0 0.0
0.5949242589261742 0.0 0.0
0.6897175776470367 0.0 0.0
0.7903947929023764 0.0 0.0
0.8966843582997007 0.0 0.0
1.0082878077732682 0.0 0.0
1.1246092898767899 0.0 0.0
1.245713465277785 0.0 0.0
1.3710423752047791 0.0 0.0
1.5002006679031354 0.0 0.0
1.6328649059525162 0.0 0.0
1.7686458493457085 0.0 0.0
1.9071907361329303 0.0 0.0
2.0481698383598053 0.0 0.0
2.191248394450593 0.0 0.0
2.3362094621847995 0.0 0.0
2.4827930774022526 0.0 0.0
2.6307789149454517 0.0 0.0
2.779973959696378 0.0 0.0
2.9302306154801503 0.0 0.0
3.081359403876637 0.0 0.0
3.233203315609882 0.0 0.0
3.385605383274056 0.0 0.0
3.538419827010833 0.0 0.0
3.6914900561986594 0.0 0.0
3.844662727613766 0.0 0.0
3.9976652424803962 0.0 0.0
4.15025571616601 0.0 0.0
4.302174349220712 0.0 0.0
4.453091958360786 0.0 0.0
4.602541092929693 0.0 0.0
4.749848843179974 0.0 0.0
4.894198436923708 0.0 0.0
5.0345958714454735 0.0 0.0
5.169880128474503 0.0 0.0
5.298483774821437 0.0 0.0
5.41883919530244 0.0 0.0
5.529277166512045 0.0 0.0
5.628342858375934 0.0 0.0
5.715342209210271 0.0 0.0
5.7914762898016745 0.0 0.0
5.862310585606443 0.0 0.0
5.952581790755077 0.0 0.0
6.2142903618315914 0.0 0.0
6.243013336195475 0.0 0.0
6.288264035405793 0.0 0.0
6.324926315765573 0.0 0.0
6.3465396057671475 0.0 0.0
6.351032727529685 0.0 0.0
6.338332778383869 0.0 0.0
6.30931861999472 0.0 0.0
6.265159352974511 0.0 0.0
6.2074557731231135 0.0 0.0
6.1372471417005805 0.0 0.0
6.055867133022673 0.0 0.0
5.964274014813008 0.0 0.0
5.863246871647005 0.0 0.0
5.753447278425385 0.0 0.0
5.635306241339673 0.0 0.0
5.509245662249701 0.0 0.0
5.375575128983338 0.0 0.0
5.234303752411871 0.0 0.0
5.086546316944511 0.0 0.0
4.932417073739402 0.0 0.0
4.772025367576214 0.0 0.0
4.606001252760665 0.0 0.0
4.434548636218124 0.0 0.0
4.258036247497081 0.0 0.0
4.076868553955562 0.0 0.0
3.891484165548986 0.0 0.0
3.7023701513922966 0.0 0.0
3.510068137288766 0.0 0.0
3.3151905217862283 0.0 0.0
3.118357996857094 0.0 0.0
2.920290046348418 0.0 0.0
2.721757203062248 0.0 0.0
2.523594012254704 0.0 0.0
2.32668221979511 0.0 0.0
2.131948887569489 0.0 0.0
1.9403822471774752 0.0 0.0
1.7529427402484594 0.0 0.0
1.5705880336043514 0.0 0.0
1.3942463447604931 0.0 0.0
1.2247981378960064 0.0 0.0
1.0630618361521167 0.0 0.0
0.9097808087405279 0.0 0.0
0.7656133432380553 0.0 0.0
0.6311188056388968 0.0 0.0
0.5067359847659876 0.0 0.0
0.39273781799347 0.0 0.0
0.28911558382468266 0.0 0.0
0.19520833351977368 0.0 0.0
0.10799829848482002 0.0 0.0

SCALARS Gamma float
LOOKUP_TABLE default
0.4241047496152468
0.6518650454550232
0.8382767197068342
1.0060130147654882
1.1626906172685127
1.3116542594817377
1.4545488194548506
1.592202448662424
1.7249973279863717
1.8530212345704893
1.9763664691951068
2.094856245415216
2.2082953720488008
2.316470352557462
2.4191711498065205
2.5162109417542657
2.6074251610984094
2.692809365456437
2.77227752773613
2.8458306186905244
2.913520667431521
2.97540635604952
3.0317045421561875
3.0825655635858062
3.128181883786902
3.1687663687288534
3.204566122094037
3.235767073787102
3.2625775612219146
3.2851932259280336
3.3038085876532106
3.3185973323269256
3.3297262720778065
3.3372572334987853
3.3412825021949635
3.3418823096331622
3.3390882816964975
3.3328421790352216
3.3229653694515786
3.309220417094769
3.291301169975768
3.2688516775466265
3.2413346137127923
3.20829931088909
3.1693145143215484
3.124137444400911
3.0729623965489608
3.016879200926404
2.9586527591431118
2.905408220196205
2.899511736727429
2.9404198639011194
2.9857850029532047
3.028891673979964
3.0671480581465875
3.099581199255465
3.12605148263635
3.1468366427673473
3.162342109808101
3.1731210521313065
3.179684222902011
3.182419563038918
3.1816398821683167
3.1775662659542427
3.1703562861570127
3.1600380117436
3.146624048171221
3.1300522334842675
3.110068820469434
3.087048558341648
3.0607812122386706
3.0311454291265636
2.9979778838836824
2.9611424968318167
2.9204858522098407
2.8758523732186854
2.8270828440830034
2.774024327809883
2.71653589221986
2.654503514245944
2.587794262441891
2.5163294007662382
2.4400541564678155
2.3589551747716033
2.273054673409813
2.182418124292163
2.0871833358248906
1.9874825739778865
1.8834716932442432
1.7753062319532904
1.6631187716499902
1.5469921982067043
1.4269221274497856
1.3027645581956857
1.1741461677626293
1.0403011046276107
0.8997367786283198
0.7494446153463704
0.5826020521679341
0.37893888127702485
0.4241047496152468
0.6518650454550232
0.8382767197068342
1.0060130147654882
1.1626906172685127
1.3116542594817377
1.4545488194548506
1.592202448662424
1.7249973279863717
1.8530212345704893
1.9763664691951068
2.094856245415216
2.2082953720488008
2.316470352557462
2.4191711498065205
2.5162109417542657
2.6074251610984094
2.692809365456437
2.77227752773613
2.8458306186905244
2.913520667431521
2.97540635604952
3.0317045421561875
3.0825655635858062
3.128181883786902
3.1687663687288534
3.204566122094037
3.235767073787102
3.2625775612219146
3.2851932259280336
3.3038085876532106
3.3185973323269256
3.3297262720778065
3.3372572334987853
3.3412825021949635
3.3418823096331622
3.3390882816964975
3.3328421790352216
3.3229653694515786
3.309220417094769
3.291301169975768
3.2688516775466265
3.2413346137127923
3.20829931088909
3.1693145143215484
3.124137444400911
3.0729623965489608
3.016879200926404
2.9586527591431118
2.905408220196205
2.899511736727429
2.9404198639011194
2.9857850029532047
3.028891673979964
3.0671480581465875
3.099581199255465
3.12605148263635
3.1468366427673473
3.162342109808101
3.1731210521313065
3.179684222902011
3.182419563038918
3.1816398821683167
3.1775662659542427
3.1703562861570127
3.1600380117436
3.146624048171221
3.1300522334842675
3.110068820469434
3.087048558341648
3.0607812122386706
3.0311454291265636
2.9979778838836824
2.9611424968318167
2.9204858522098407
2.8758523732186854
2.8270828440830034
2.774024327809883
2.71653589221986
2.654503514245944
2.587794262441891
2.5163294007662382
2.4400541564678155
2.3589551747716033
2.273054673409813