# vtk DataFile Version 4.0
[MyVLM domain - lattices] 
ASCII
DATASET UNSTRUCTURED_GRID
POINTS 302 float
0.0341824562312864 6.104599694905897 -1.7821398143235927
0.034058156390445356 6.109502199274506 -1.7780277007367276
0.0339110259665927 6.115305163629187 -1.7731603009808465
0.033741064959728416 6.122008587969939 -1.7675376150559492
0.03354827336985251 6.129612472296762 -1.7611596429620362
0.03333265119696499 6.1381168166096565 -1.7540263846991064
0.033094198441065856 6.147521620908622 -1.7461378402671612
0.03283291510215509 6.157826885193659 -1.7374940096662004
0.03254880118023271 6.169032609464766 -1.7280948928962228
0.03224185667529871 6.181138793721946 -1.7179404899572295
0.031912081587353085 6.1941454379651955 -1.70703080084922
0.031559475916395845 6.208052542194517 -1.6953658255721942
0.031184039662426992 6.222860106409909 -1.682945564126153
0.030785772825446513 6.238568130611373 -1.6697700165110954
0.03036467540545441 6.255176614798907 -1.6558391827270218
0.029920747402450692 6.272685558972514 -1.6411530627739321
0.029453988816435354 6.29109496313219 -1.6257116566518268
0.02896439964740839 6.310404827277939 -1.6095149643607047
0.028451979895369812 6.330615151409758 -1.592562985900567
0.027916729560319615 6.351725935527649 -1.5748557212714132
0.027358648642257795 6.373737179631611 -1.5563931704732434
0.026777737141184355 6.396648883721644 -1.5371753335060574
0.0261739950570993 6.4204610477977475 -1.5172022103698555
0.02554742239000262 6.445173671859923 -1.4964738010646377
0.024898019139894322 6.470786755908169 -1.4749901055904038
0.024225785306774404 6.497300299942487 -1.4527511239471536
0.02353072089064287 6.5247143039628765 -1.4297568561348877
0.02281282589149971 6.5530287679693355 -1.4060073021536055
0.022072100309344932 6.582243691961867 -1.3815024620033074
0.021308544144178532 6.612359075940468 -1.3562423356839934
0.020522157396000516 6.643374919905141 -1.3302269231956632
0.01971294006481088 6.6752912238558855 -1.303456224538317
0.018880892150609622 6.708107987792703 -1.2759302397119545
0.018026013653396743 6.74182521171559 -1.2476489687165764
0.01714830457317225 6.776442895624547 -1.218612411552182
0.016247764909936128 6.811961039519577 -1.1888205682187716
0.015324394663688394 6.848379643400677 -1.1582734387163451
0.014378193834429037 6.885698707267848 -1.1269710230449026
0.013409162422158062 6.923918231121091 -1.0949133212044444
0.01241730042687547 6.963038214960404 -1.0621003331949699
0.011402607848581253 7.00305865878579 -1.0285320590164793
0.010365084687275419 7.043979562597245 -0.9942084986689727
0.009304730942957962 7.085800926394774 -0.95912965215245
0.008221546615628881 7.128522750178371 -0.9232955194669111
0.007115531705288186 7.172145033948041 -0.8867061006123564
0.0059866862119358705 7.2166677777037815 -0.8493613955887857
0.004835010135571935 7.262090981445593 -0.8112614043961988
0.003660503476196378 7.308414645173476 -0.772406127034596
0.002463166233809209 7.355638768887431 -0.7327955635039772
0.0012429984084104144 7.403763352587457 -0.6924297138043424
0.0 7.4527883962735535 -0.6513085779356914
0.001242998408410416 7.493928029080196 -0.7003181008479407
0.0024631662338092117 7.5343120359781475 -0.7484274488495568
0.0036605034761963886 7.573940416967403 -0.7956366219405397
0.004835010135571945 7.612813172047967 -0.8419456201208897
0.005986686211935881 7.650930301219836 -0.8873544433906063
0.007115531705288197 7.688291804483014 -0.9318630917496897
0.008221546615628895 7.724897681837497 -0.9754715651981402
0.00930473094295797 7.760747933283285 -1.0181798637359574
0.010365084687275426 7.795842558820382 -1.0599879873631415
0.011402607848581265 7.830181558448784 -1.1008959360796924
0.012417300426875482 7.8637649321684915 -1.14090370988561
0.013409162422158076 7.896592679979509 -1.1800113087808946
0.014378193834429055 7.928664801881831 -1.2182187327655463
0.015324394663688413 7.9599812978754585 -1.2555259818395643
0.01624776490993615 7.9905421679603945 -1.2919330560029496
0.017148304573172266 8.020347412136635 -1.3274399552557017
0.018026013653396764 8.049397030404185 -1.3620466795978206
0.018880892150609646 8.07769102276304 -1.3957532290293064
0.019712940064810905 8.1052293892132 -1.4285596035501589
0.02052215739600054 8.132012129754669 -1.4604658031603783
0.02130854414417856 8.158039244387442 -1.4914718278599646
0.02207210030934496 8.183310733111524 -1.5215776776489176
0.022812825891499734 8.207826595926912 -1.5507833525272376
0.023530720890642894 8.231586832833607 -1.5790888524949245
0.024225785306774432 8.254591443831606 -1.606494177551978
0.02489801913989435 8.276840428920913 -1.6329993276983987
0.02554742239000265 8.298333788101527 -1.6586043029341861
0.026173995057099327 8.319071521373449 -1.6833091032593404
0.026777737141184386 8.339053628736675 -1.7071137286738614
0.027358648642257833 8.358280110191208 -1.7300181791777496
0.02791672956031965 8.376750965737047 -1.7520224547710044
0.028451979895369846 8.394466195374195 -1.773126555453626
0.028964399647408424 8.411425799102647 -1.7933304812256141
0.029453988816435385 8.427629776922407 -1.8126342320869693
0.029920747402450733 8.443078128833474 -1.8310378080376915
0.030364675405454452 8.457770854835847 -1.848541209077781
0.03078577282544654 8.471707954929524 -1.8651444352072362
0.031184039662427034 8.48488942911451 -1.8808474864260598
0.031559475916395886 8.497315277390804 -1.8956503627342487
0.03191208158735313 8.508985499758403 -1.9095530641318055
0.032241856675298754 8.519900096217308 -1.9225555906187286
0.032548801180232755 8.53005906676752 -1.9346579421950187
0.03283291510215513 8.539462411409039 -1.9458601188606757
0.0330941984410659 8.548110130141863 -1.9561621206156996
0.033332651196965025 8.556002222965994 -1.9655639474600897
0.03354827336985255 8.563138689881432 -1.9740655993938474
0.03374106495972846 8.569519530888178 -1.981667076416972
0.033911025966592734 8.575144745986229 -1.988368378529463
0.0340581563904454 8.580014335175587 -1.9941695057313213
0.03418245623128644 8.584128298456251 -1.9990704580225462
0.04785543872380097 6.061229935068905 -2.277858437618544
0.047731138882959934 6.0661324394375145 -2.273746324031679
0.04758400845910727 6.071935403792195 -2.2688789242757976
0.04741404745224299 6.078638828132947 -2.2632562383509005
0.047221255862367084 6.08624271245977 -2.2568782662569875
0.04700563368947956 6.094747056772665 -2.2497450079940577
0.04676718093358043 6.10415186107163 -2.2418564635621125
0.04650589759466966 6.114457125356667 -2.2332126329611515
0.046221783672747284 6.1256628496277745 -2.223813516191174
0.04591483916781328 6.137769033884954 -2.213659113252181
0.04558506407986766 6.150775678128204 -2.202749424144171
0.04523245840891042 6.164682782357525 -2.1910844488671457
0.04485702215494156 6.179490346572917 -2.1786641874211043
0.044458755317961084 6.195198370774381 -2.1654886398060467
0.044037657897968985 6.211806854961916 -2.151557806021973
0.04359372989496526 6.229315799135522 -2.1368716860688832
0.04312697130894993 6.247725203295198 -2.121430279946778
0.042637382139922964 6.267035067440947 -2.105233587655656
0.042124962387884386 6.287245391572767 -2.0882816091955183
0.04158971205283419 6.308356175690657 -2.0705743445663645
0.04103163113477237 6.330367419794619 -2.0521117937681947
0.04045071963369893 6.3532791238846515 -2.0328939568010087
0.039846977549613874 6.377091287960756 -2.012920833664807
0.03922040488251719 6.401803912022931 -1.992192424359589
0.0385710016324089 6.427416996071178 -1.9707087288853553
0.037898767799288975 6.453930540105495 -1.9484697472421049
0.03720370338315744 6.481344544125884 -1.9254754794298388
0.03648580838401428 6.509659008132344 -1.9017259254485566
0.0357450828018595 6.538873932124874 -1.877221085298259
0.03498152663669311 6.568989316103477 -1.8519609589789447
0.03419513988851508 6.60000516006815 -1.8259455464906145
0.03338592255732545 6.631921464018895 -1.7991748478332685
0.03255387464312419 6.664738227955711 -1.7716488630069058
0.03169899614591132 6.698455451878598 -1.743367592011528
0.03082128706568682 6.7330731357875555 -1.714331034847133
0.029920747402450706 6.768591279682584 -1.6845391915137227
0.02899737715620296 6.8050098835636845 -1.6539920620112964
0.028051176326943608 6.8423289474308575 -1.622689646339854
0.027082144914672635 6.8805484712841 -1.5906319444993957
0.026090282919390043 6.919668455123412 -1.5578189564899212
0.025075590341095823 6.959688898948798 -1.5242506823114306
0.024038067179789988 7.000609802760254 -1.489927121963924
0.022977713435472533 7.042431166557781 -1.4548482754474015
0.021894529108143455 7.0851529903413795 -1.4190141427618626
0.02078851419780276 7.128775274111049 -1.3824247239073078
0.01965966870445044 7.173298017866791 -1.345080018883737
0.018507992628086504 7.218721221608602 -1.30698002769115
0.017333485968710947 7.2650448853364855 -1.2681247503295472
0.016136148726323782 7.31226900905044 -1.2285141867989287
0.014915980900924986 7.360393592750466 -1.1881483370992938
0.013672982492514573 7.409418636436562 -1.1470272012306428
0.014915980900924986 7.4505582692432055 -1.1960367241428922
0.016136148726323782 7.490942276141157 -1.2441460721445081
0.01733348596871096 7.530570657130412 -1.2913552452354913
0.018507992628086518 7.569443412210975 -1.337664243415841
0.01965966870445045 7.607560541382845 -1.3830730666855575
0.020788514197802768 7.64492204464602 -1.427581715044641
0.021894529108143466 7.681527922000504 -1.4711901884930914
0.022977713435472544 7.717378173446294 -1.5138984870309087
0.02403806717979 7.752472798983389 -1.5557066106580928
0.025075590341095837 7.786811798611793 -1.5966145593746437
0.026090282919390057 7.820395172331501 -1.6366223331805614
0.027082144914672646 7.853222920142516 -1.675729932075846
0.028051176326943622 7.885295042044838 -1.7139373560604971
0.028997377156202986 7.916611538038467 -1.751244605134516
0.02992074740245072 7.947172408123401 -1.787651679297901
0.030821287065686837 7.976977652299644 -1.823158578550653
0.031698996145911346 8.006027270567193 -1.8577653028927725
[...]
CELL_DATA 200

VECTORS Vinf float
5.225990823016229 -14.023788026571793 -39.947715513193664
5.210664222883989 -13.99955089229279 -39.98412883641689
5.194720936361852 -13.964297380944242 -40.02887404447283
5.176725664974767 -13.924055392190198 -40.07999779074376
5.156808673894672 -13.878861285140097 -40.13746980036118
5.135132850964236 -13.828756093721047 -40.20125400679363
5.111896157481737 -13.773785211209246 -40.271308379773956
5.0873325473957305 -13.713997883246812 -40.347585010162376
5.061710936650734 -13.649446497252029 -40.430030506307496
5.035331924304875 -13.580185677511935 -40.518586733835505
5.008522158764004 -13.506271221790264 -40.61319189759099
4.98162649757761 -13.427758944192282 -40.71378192279901
4.954998402405171 -13.344703515871801 -40.82029204715126
4.930435968324054 -13.257936564406872 -40.9321998906142
4.8994166524975435 -13.17823656668283 -41.04728679067694
4.878318945463108 -13.078714082739022 -41.171904103362166
4.857944698330573 -12.974634190795992 -41.30240166958643
4.838511264020392 -12.866036793319168 -41.438739723821904
4.820209538861238 -12.752959136469244 -41.58088267415912
4.803202570247982 -12.635436503933214 -41.728798987165284
4.787626938970052 -12.513503155766765 -41.88246065339011
4.773596449118437 -12.387193383445954 -42.04184233960864
4.761207382758933 -12.256542545988532 -42.206920367753455
4.750544465735305 -12.121587970948296 -42.377671665046485
4.7416867391235735 -11.982369641211 -42.554072808990824
4.734712682539399 -11.83893063213376 -42.73609925613691
4.730586702606766 -11.687526022360338 -42.92487689764055
4.728024740466516 -11.533004310261843 -43.118930950313825
4.725250971863322 -11.375506896704934 -43.31886876897746
4.720971281901549 -11.211964508857053 -43.52500084388588
4.718267540082154 -11.043528941278304 -43.73701403480957
4.717228470237026 -10.870185175597992 -43.95490177729588
4.71796119351758 -10.69191886634321 -44.178655376931275
4.720592963693201 -10.50871605158436 -44.40826406875092
4.725270565807081 -10.320562782697614 -44.64371536978604
4.734802591479051 -10.125898852593716 -44.884901187244715
4.743462011798179 -9.92739941193537 -45.13214318492453
4.754235137390134 -9.724141975223652 -45.385245976668195
4.766356109224879 -9.515893022419755 -45.64424352123319
4.7802990359359745 -9.302691130217156 -45.909115935793736
4.795884717034359 -9.084520888124251 -46.17988875964729
4.812732801141897 -8.861361802995233 -46.456608707044886
4.830153991529743 -8.633171830290644 -46.73937297755454
4.847154226761164 -8.399959409853675 -47.02824377787305
4.862782351615825 -8.161655188743772 -47.32334343558475
4.876660643664471 -7.918317060677053 -47.62471406942362
4.886693316847116 -7.669868359120917 -47.93256265791507
4.893001380979865 -7.416371820752959 -48.24685941418824
4.896593860506121 -7.157993926453736 -48.56779477581178
4.896685559177919 -6.894549984163795 -48.89471908130624
4.897985145282822 -6.926735493893871 -49.1921408902448
4.900795571677242 -7.254042873322676 -49.45451362520447
4.9013214792480655 -7.575431817638881 -49.71217280833263
4.898486930016127 -7.890981533078036 -49.9652218056126
4.889870673352211 -8.199005773366197 -50.21409523516645
4.880517188769576 -8.501449340569263 -50.458323158012206
4.866736979109927 -8.798795986279512 -50.69781225265038
4.851616555707728 -9.090277901030534 -50.93251113815443
4.836378415907089 -9.375837268654104 -51.1623038481978
4.821980625515419 -9.65541687649726 -51.38710006297407
4.806538857413276 -9.927737473758597 -51.60755212119208
4.794637976334842 -10.195886112088626 -51.82211580790517
4.784116751637128 -10.457867512446967 -52.03167412497722
4.777174857280013 -10.712801572342308 -52.23617194316686
4.769658737239032 -10.962057465901434 -52.43580675237206
4.763425230900685 -11.205233747499546 -52.63042086639731
4.7583527975304065 -11.442329690068025 -52.820030532774794
4.754340383333822 -11.673345085573542 -53.00465006896635
4.751897834149838 -11.898647793905113 -53.18422625494824
4.7496330964435085 -12.117926026627725 -53.35877298678355
4.7483764936394675 -12.330902019564887 -53.528420011986114
4.748061188717067 -12.537593046113217 -53.69317184389751
4.7486475549015035 -12.738014583110152 -53.85303047123315
4.750316390119616 -12.931667807344969 -54.00802965965635
4.753160795637265 -13.120058965367779 -54.15789296072947
4.757192111334464 -13.302338768752461 -54.302788961424994
4.762519322757299 -13.478497744596032 -54.44271240561706
4.769263035049566 -13.648525190942282 -54.57765726632493
4.777458790016304 -13.81390509579262 -54.70716565459119
4.78749087573098 -13.97165648734718 -54.832105521267
4.799335126663637 -14.123117697694935 -54.95208809283776
4.81303630979575 -14.268293783162129 -55.06710900776645
4.828605508553702 -14.407190685447723 -55.17716661850818
4.846007863620191 -14.539816136403944 -55.282262810179915
4.86515310309161 -14.666180463728304 -55.382403596428944
4.8858903925037085 -14.786297185939395 -55.477599390527374
4.908008445888963 -14.90018331213101 -55.56786489417702
4.931241049701727 -15.007859305596273 -55.65321860382936
4.956330389044275 -15.11136135356231 -55.7329707972895
4.98141607365923 -15.207262135694386 -55.808324853759245
5.006696382967045 -15.297028640027994 -55.87882715619515
5.031800015729544 -15.380681634311344 -55.944505536199216
5.056367327325025 -15.458242479755947 -56.00538650814292
5.078185111655483 -15.53166008815668 -56.06097437965131
5.1008550040477605 -15.597074329973886 -56.11230546533812
5.1220658532967835 -15.656458579388856 -56.15890676135183
5.141597108673351 -15.709829461756028 -56.20079331056628
5.1592687062831395 -15.757201492753127 -56.23797710212679
5.174938398482997 -15.798587026373976 -56.27046733411027
5.188497572608771 -15.833996313851562 -56.29827077865852
5.225990823016229 -14.023788026571793 -39.947715513193664
5.210664222883989 -13.99955089229279 -39.98412883641689
5.194720936361852 -13.964297380944242 -40.02887404447283
5.176725664974767 -13.924055392190198 -40.07999779074376
5.156808673894672 -13.878861285140097 -40.13746980036118
5.135132850964236 -13.828756093721047 -40.20125400679363
5.111896157481737 -13.773785211209246 -40.271308379773956
5.0873325473957305 -13.713997883246812 -40.347585010162376
5.061710936650734 -13.649446497252029 -40.430030506307496
5.035331924304875 -13.580185677511935 -40.518586733835505
5.008522158764004 -13.506271221790264 -40.61319189759099
4.98162649757761 -13.427758944192282 -40.71378192279901
4.954998402405171 -13.344703515871801 -40.82029204715126
4.930435968324054 -13.257936564406872 -40.9321998906142
4.8994166524975435 -13.17823656668283 -41.04728679067694
4.878318945463108 -13.078714082739022 -41.171904103362166
4.857944698330573 -12.974634190795992 -41.30240166958643
4.838511264020392 -12.866036793319168 -41.438739723821904
4.820209538861238 -12.752959136469244 -41.58088267415912
4.803202570247982 -12.635436503933214 -41.728798987165284
4.787626938970052 -12.513503155766765 -41.88246065339011
4.773596449118437 -12.387193383445954 -42.04184233960864
4.761207382758933 -12.256542545988532 -42.206920367753455
4.750544465735305 -12.121587970948296 -42.377671665046485
4.7416867391235735 -11.982369641211 -42.554072808990824
4.734712682539399 -11.83893063213376 -42.73609925613691
4.730586702606766 -11.687526022360338 -42.92487689764055
4.728024740466516 -11.533004310261843 -43.118930950313825
4.725250971863322 -11.375506896704934 -43.31886876897746
4.720971281901549 -11.211964508857053 -43.52500084388588
4.718267540082154 -11.043528941278304 -43.73701403480957
4.717228470237026 -10.870185175597992 -43.95490177729588
4.71796119351758 -10.69191886634321 -44.178655376931275
4.720592963693201 -10.50871605158436 -44.40826406875092
4.725270565807081 -10.320562782697614 -44.64371536978604
4.734802591479051 -10.125898852593716 -44.884901187244715
4.743462011798179 -9.92739941193537 -45.13214318492453
4.754235137390134 -9.724141975223652 -45.385245976668195
4.766356109224879 -9.515893022419755 -45.64424352123319
4.7802990359359745 -9.302691130217156 -45.909115935793736
4.795884717034359 -9.084520888124251 -46.17988875964729
4.812732801141897 -8.861361802995233 -46.456608707044886
4.830153991529743 -8.633171830290644 -46.73937297755454
4.847154226761164 -8.399959409853675 -47.02824377787305
4.862782351615825 -8.161655188743772 -47.32334343558475
4.876660643664471 -7.918317060677053 -47.62471406942362
4.886693316847116 -7.669868359120917 -47.93256265791507
4.893001380979865 -7.416371820752959 -48.24685941418824
4.896593860506121 -7.157993926453736 -48.56779477581178
4.896685559177919 -6.894549984163795 -48.89471908130624
4.897985145282822 -6.926735493893871 -49.1921408902448
4.900795571677242 -7.254042873322676 -49.45451362520447
4.9013214792480655 -7.575431817638881 -49.71217280833263
4.898486930016127 -7.890981533078036 -49.9652218056126
4.889870673352211 -8.199005773366197 -50.21409523516645
4.880517188769576 -8.501449340569263 -50.458323158012206
4.866736979109927 -8.798795986279512 -50.69781225265038
4.851616555707728 -9.090277901030534 -50.93251113815443
4.836378415907089 -9.375837268654104 -51.1623038481978
4.821980625515419 -9.65541687649726 -51.38710006297407
4.806538857413276 -9.927737473758597 -51.60755212119208
4.794637976334842 -10.195886112088626 -51.82211580790517
4.784116751637128 -10.457867512446967 -52.03167412497722
4.777174857280013 -10.712801572342308 -52.23617194316686
4.769658737239032 -10.962057465901434 -52.43580675237206
4.763425230900685 -11.205233747499546 -52.63042086639731
4.7583527975304065 -11.442329690068025 -52.820030532774794
4.754340383333822 -11.673345085573542 -53.00465006896635
4.751897834149838 -11.898647793905113 -53.18422625494824
4.7496330964435085 -12.117926026627725 -53.35877298678355
4.7483764936394675 -12.330902019564887 -53.528420011986114
4.748061188717067 -12.537593046113217 -53.69317184389751
4.7486475549015035 -12.738014583110152 -53.85303047123315
4.750316390119616 -12.931667807344969 -54.00802965965635
4.753160795637265 -13.120058965367779 -54.15789296072947
4.757192111334464 -13.302338768752461 -54.302788961424994
4.762519322757299 -13.478497744596032 -54.44271240561706
4.769263035049566 -13.648525190942282 -54.57765726632493
4.777458790016304 -13.81390509579262 -54.70716565459119
4.78749087573098 -13.97165648734718 -54.832105521267
4.799335126663637 -14.123117697694935 -54.95208809283776
4.81303630979575 -14.268293783162129 -55.06710900776645
4.828605508553702 -14.407190685447723 -55.17716661850818
4.846007863620191 -14.539816136403944 -55.282262810179915
4.86515310309161 -14.666180463728304 -55.382403596428944
4.8858903925037085 -14.786297185939395 -55.477599390527374
4.908008445888963 -14.90018331213101 -55.56786489417702
4.931241049701727 -15.007859305596273 -55.65321860382936
4.956330389044275 -15.11136135356231 -55.7329707972895
4.98141607365923 -15.207262135694386 -55.808324853759245
5.006696382967045 -15.297028640027994 -55.87882715619515
5.031800015729544 -15.380681634311344 -55.944505536199216
5.056367327325025 -15.458242479755947 -56.00538650814292
5.078185111655483 -15.53166008815668 -56.06097437965131
5.1008550040477605 -15.597074329973886 -56.11230546533812
5.1220658532967835 -15.656458579388856 -56.15890676135183
5.141597108673351 -15.709829461756028 -56.20079331056628
5.1592687062831395 -15.757201492753127 -56.23797710212679
5.174938398482997 -15.798587026373976 -56.27046733411027
5.188497572608771 -15.833996313851562 -56.29827077865852

VECTORS L float
0.05854673767346218 0.0 0.0
0.1058609212357813 0.0 0.0
0.15718117048862057 0.0 0.0
0.21423295834682993 0.0 0.0
0.27750727661698293 0.0 0.0
0.3471611466209821 0.0 0.0
0.4232123937333431 0.0 0.0
0.5055986188017965 0.0 0.0
0.5941985894059738 0.0 0.0
0.68884149986061 0.0 0.0
0.7893096843027125 0.0 0.0
0.8953488517187017 0.0 0.0
1.0067238437122188 0.0 0.0
1.1229782313442864 0.0 0.0
1.2437562182039414 0.0 0.0
1.3689536631404342 0.0 0.0
1.497848940884896 0.0 0.0
1.6301848968344987 0.0 0.0
1.7655684909143445 0.0 0.0
1.903715246504673 0.0 0.0
2.044272220494449 0.0 0.0
2.186936608524874 0.0 0.0
2.3314338935704244 0.0 0.0
2.4775361518599555 0.0 0.0
2.6250204705302567 0.0 0.0
2.773689805155233 0.0 0.0
2.923369300418103 0.0 0.0
3.0738406361277253 0.0 0.0
3.22482579012164 0.0 0.0
3.3761996627399995 0.0 0.0
3.5278887214909003 0.0 0.0
3.679764988401457 0.0 0.0
3.8316897726285406 0.0 0.0
3.9834889582294033 0.0 0.0
4.135080182178566 0.0 0.0
4.2859784589759355 0.0 0.0
4.435692852165103 0.0 0.0
4.583761033558493 0.0 0.0
4.72963876360197 0.0 0.0
4.872446275961946 0.0 0.0
5.011245535890636 0.0 0.0
5.144843834596567 0.0 0.0
5.271817033474386 0.0 0.0
5.390555979475733 0.0 0.0
5.4994263480046595 0.0 0.0
5.59705068402722 0.0 0.0
5.6827106142975765 0.0 0.0
5.757623041303596 0.0 0.0
5.827422446487544 0.0 0.0
5.916511142582811 0.0 0.0
6.173574425694486 0.0 0.0
6.202594595224937 0.0 0.0
6.248234139242061 0.0 0.0
6.285367050460025 0.0 0.0
6.307500212338911 0.0 0.0
6.312863580371737 0.0 0.0
6.3010499887911875 0.0 0.0
6.273024133267165 0.0 0.0
6.230052537119635 0.0 0.0
6.1734727549633766 0.0 0.0
6.1041221948557345 0.0 0.0
6.023967979401593 0.0 0.0
5.9335686272518915 0.0 0.0
5.8338606526275125 0.0 0.0
5.725203004981717 0.0 0.0
5.608222645010935 0.0 0.0
5.483347048655553 0.0 0.0
5.350960653591173 0.0 0.0
5.211472764509202 0.0 0.0
5.065172745785535 0.0 0.0
4.912384797339862 0.0 0.0
4.753444111829879 0.0 0.0
4.58867789387372 0.0 0.0
4.418428410160987 0.0 0.0
4.243075884230724 0.0 0.0
4.0630401040457755 0.0 0.0
3.8787087692312383 0.0 0.0
3.6905871692171495 0.0 0.0
3.499226125209754 0.0 0.0
3.3052239783836295 0.0 0.0
3.1092310871155875 0.0 0.0
2.9119605114834575 0.0 0.0
2.714188363928962 0.0 0.0
2.5167580373104252 0.0 0.0
2.320536081931576 0.0 0.0
2.126461936909569 0.0 0.0
1.9354986619013823 0.0 0.0
1.7486237590732598 0.0 0.0
1.5668054847215305 0.0 0.0
1.390956031826938 0.0 0.0
1.2219605895745895 0.0 0.0
1.0606387652032918 0.0 0.0
0.9077347751877731 0.0 0.0
0.7639026514495652 0.0 0.0
0.629723752909485 0.0 0.0
0.505628470061472 0.0 0.0
0.39188893952021236 0.0 0.0
0.28849733703520186 0.0 0.0
0.19479528495357717 0.0 0.0
0.10777266868616975 0.0 0.0
0.05854673767346218 0.0 0.0
0.1058609212357813 0.0 0.0
0.15718117048862057 0.0 0.0
0.21423295834682993 0.0 0.0
0.27750727661698293 0.0 0.0
0.3471611466209821 0.0 0.0
0.4232123937333431 0.0 0.0
0.5055986188017965 0.0 0.0
0.5941985894059738 0.0 0.0
0.68884149986061 0.0 0.0
0.7893096843027125 0.0 0.0
0.8953488517187017 0.0 0.0
1.0067238437122188 0.0 0.0
1.1229782313442864 0.0 0.0
1.2437562182039414 0.0 0.0
1.3689536631404342 0.0 0.0
1.497848940884896 0.0 0.0
1.6301848968344987 0.0 0.0
1.7655684909143445 0.0 0.0
1.903715246504673 0.0 0.0
2.044272220494449 0.0 0.0
2.186936608524874 0.0 0.0
2.3314338935704244 0.0 0.0
2.4775361518599555 0.0 0.0
2.6250204705302567 0.0 0.0
2.773689805155233 0.0 0.0
2.923369300418103 0.0 0.0
3.0738406361277253 0.0 0.0
3.22482579012164 0.0 0.0
3.3761996627399995 0.0 0.0
3.5278887214909003 0.0 0.0
3.679764988401457 0.0 0.0
3.8316897726285406 0.0 0.0
3.9834889582294033 0.0 0.0
4.135080182178566 0.0 0.0
4.2859784589759355 0.0 0.0
4.435692852165103 0.0 0.0
4.583761033558493 0.0 0.0
4.72963876360197 0.0 0.0
4.872446275961946 0.0 0.0
5.011245535890636 0.0 0.0
5.144843834596567 0.0 0.0
5.271817033474386 0.0 0.0
5.390555979475733 0.0 0.0
5.4994263480046595 0.0 0.0
5.59705068402722 0.0 0.0
5.6827106142975765 0.0 0.0
5.757623041303596 0.0 0.0
5.827422446487544 0.0 0.0
5.916511142582811 0.0 0.0
6.173574425694486 0.0 0.0
6.202594595224937 0.0 0.0
6.248234139242061 0.0 0.0
6.285367050460025 0.0 0.0
6.307500212338911 0.0 0.0
6.312863580371737 0.0 0.0
6.3010499887911875 0.0 0.0
6.273024133267165 0.0 0.0
6.230052537119635 0.0 0.0
6.1734727549633766 0.0 0.0
6.1041221948557345 0.0 0.0
6.023967979401593 0.0 0.0
5.9335686272518915 0.0 0.0
5.8338606526275125 0.0 0.0
5.725203004981717 0.0 0.0
5.608222645010935 0.0 0.0
5.483347048655553 0.0 0.0
5.350960653591173 0.0 0.0
5.211472764509202 0.0 0.0
5.065172745785535 0.0 0.0
4.912384797339862 0.0 0.0
4.753444111829879 0.0 0.0
4.58867789387372 0.0 0.0
4.418428410160987 0.0 0.0
4.243075884230724 0.0 0.0
4.0630401040457755 0.0 0.0
3.8787087692312383 0.0 0.0
3.6905871692171495 0.0 0.0
3.499226125209754 0.0 0.0
3.3052239783836295 0.0 0.0
3.1092310871155875 0.0 0.0
2.9119605114834575 0.0 0.0
2.714188363928962 0.0 0.0
2.5167580373104252 0.0 0.0
2.320536081931576 0.0 0.0
2.126461936909569 0.0 0.0
1.9354986619013823 0.0 0.0
1.7486237590732598 0.0 0.0
1.5668054847215305 0.0 0.0
1.390956031826938 0.0 0.0
1.2219605895745895 0.0 0.0
1.0606387652032918 0.0 0.0
0.9077347751877731 0.0 0.0
0.7639026514495652 0.0 0.0
0.629723752909485 0.0 0.0
0.505628470061472 0.0 0.0
0.39188893952021236 0.0 0.0
0.28849733703520186 0.0 0.0
0.19479528495357717 0.0 0.0
0.10777266868616975 0.0 0.0

SCALARS Gamma float
LOOKUP_TABLE default
0.42292034873586215
0.6500269077029808
0.8358974552028714
1.0031363775254314
1.1593363915153598
1.3078304280510735
1.4502576048797338
1.5874435608519342
1.719773708051735
1.847377289369468
1.9702236794118404
2.088199746328988
2.201120451581637
2.3087848262966832
2.4109014577311116
2.507499031219224
2.598332432873325
2.683274119379991
2.7622454260248546
2.835355646458642
2.9026205890114434
2.964139550292789
3.020051763934372
3.0705499869402724
3.1158221489066453
3.1560750530703823
3.191525702706277
3.2223320871275942
3.2485905027807305
3.270546571484722
3.2884745622484193
3.3025783946771927
3.3130396094636994
3.3200003515295267
3.3235661051382213
3.323832862264301
3.320611193548726
3.3138584653337952
3.3034942274391184
3.2892403089160327
3.270831171397207
3.24789286334686
3.219977097700388
3.186603640278114
3.1473583134717655
3.102035913661675
3.050809399646017
2.994770156507733
2.9366976165501684
2.883650119510662
2.877809330713741
2.918642061007207
2.964039579186152
3.00721496152536
3.045556053488013
3.078234665076105
3.104953888446196
3.1260333961179083
3.1419294028440374
3.1531327414017243
3.1600462250494052
3.1632029716110006
3.1628616700604155
3.1592834778919032
3.1524865506826942
3.1426017707130938
3.1296463094798836
3.113602540769431
3.0944553873015535
3.072106800283506
3.0464610763514104
3.0174108328202323
2.984823422857694
2.9485527741134283
2.908453045367671
2.8643797225900105
2.8161385857553745
2.7635879013490774
2.7065927380151016
2.645027478476725
2.5787813750716566
2.5077708087511104
2.431945635357184
2.351300875948782
2.265845503769551
2.175656699176436
2.080846775909935
1.981563760148973
1.8779755205405637
1.7702191638323161
1.6584313515485114
1.5426953043289073
1.4230064855718796
1.2992121274239805
1.170974905522129
1.0375187486605966
0.8973528654063117
0.7474761545650365
0.5810840573368713
0.3779599066350435
0.42292034873586215
0.6500269077029808
0.8358974552028714
1.0031363775254314
1.1593363915153598
1.3078304280510735
1.4502576048797338
1.5874435608519342
1.719773708051735
1.847377289369468
1.9702236794118404
2.088199746328988
2.201120451581637
2.3087848262966832
2.4109014577311116
2.507499031219224
2.598332432873325
2.683274119379991
2.7622454260248546
2.835355646458642
2.9026205890114434
2.964139550292789
3.020051763934372
3.0705499869402724
3.1158221489066453
3.1560750530703823
3.191525702706277
3.2223320871275942
3.2485905027807305
3.270546571484722
3.2884745622484193
3.3025783946771927
3.3130396094636994
3.3200003515295267
3.3235661051382213
3.323832862264301
3.320611193548726
3.3138584653337952
3.3034942274391184
3.2892403089160327
3.270831171397207
3.24789286334686
3.219977097700388
3.186603640278114
3.1473583134717655
3.102035913661675
3.050809399646017
2.994770156507733
2.9366976165501684
2.883650119510662
2.877809330713741
2.918642061007207
2.964039579186152
3.00721496152536
3.045556053488013
3.078234665076105
3.104953888446196
3.1260333961179083
3.1419294028440374
3.1531327414017243
3.1600462250494052
3.1632029716110006
3.1628616700604155
3.1592834778919032
3.1524865506826942
3.1426017707130938
3.1296463094798836
3.113602540769431
3.0944553873015535
3.072106800283506
3.0464610763514104
3.0174108328202323
2.984823422857694