# vtk DataFile Version 4.0
[MyVLM domain - lattices] 
ASCII
DATASET UNSTRUCTURED_GRID
POINTS 302 float
0.03418245623128645 -3.16960925622229 5.297833604046752
0.03405815639044541 -3.175983553708412 5.2983924947283105
0.03391102596659275 -3.1835286405287198 5.29905403880036
0.033741064959728465 -3.1922445166832136 5.299818236262899
0.03354827336985257 -3.2021311821718927 5.300685087115929
0.03333265119696504 -3.213188636994758 5.3016545913594495
0.033094198441065904 -3.2254168811518085 5.302726748993461
0.03283291510215514 -3.2388159146430455 5.3039015600179615
0.03254880118023276 -3.253385737468467 5.305179024432953
0.03224185667529876 -3.2691263496280754 5.306559142238435
0.03191208158735314 -3.286037751121869 5.3080419134344075
0.03155947591639589 -3.3041199419498484 5.30962733802087
0.031184039662427037 -3.323372922112014 5.311315415997823
0.030785772825446565 -3.3437966916083646 5.313106147365267
0.030364675405454455 -3.365391250438901 5.314999532123201
0.029920747402450737 -3.388156598603623 5.316995570271625
0.0294539888164354 -3.4120927361025313 5.319094261810539
0.028964399647408434 -3.437199662935625 5.321295606739945
0.02845197989536985 -3.463477379102904 5.32359960505984
0.027916729560319656 -3.4909258846043687 5.326006256770226
0.02735864864225784 -3.51954517944002 5.328515561871102
0.0267777371411844 -3.5493352636098563 5.331127520362469
0.026173995057099338 -3.580296137113878 5.333842132244326
0.025547422390002655 -3.6124277999520866 5.336659397516673
0.02489801913989436 -3.6457302521244803 5.3395793161795115
0.02422578530677444 -3.6802034936310597 5.342601888232839
0.0235307208906429 -3.7158475244718243 5.3457271136766575
0.022812825891499744 -3.752662344646775 5.348954992510967
0.022072100309344964 -3.790647954155912 5.352285524735766
0.021308544144178567 -3.829804352999234 5.355718710351056
0.020522157396000548 -3.8701315411767414 5.359254549356836
0.019712940064810905 -3.911629518688436 5.362893041753106
0.01888089215060965 -3.954298285534315 5.3666341875398675
0.018026013653396775 -3.99813784171438 5.370477986717119
0.017148304573172273 -4.04314818722863 5.37442443928486
0.016247764909936156 -4.0893293220770675 5.378473545243093
0.015324394663688417 -4.136681246259689 5.382625304591816
0.01437819383442906 -4.185203959776497 5.386879717331028
0.013409162422158083 -4.234897462627491 5.391236783460732
0.012417300426875489 -4.28576175481267 5.395696502980925
0.01140260784858127 -4.337796836332036 5.400258875891609
0.010365084687275433 -4.391002707185586 5.404923902192784
0.009304730942957976 -4.445379367373322 5.409691581884449
0.008221546615628895 -4.5009268168952445 5.414561914966604
0.007115531705288197 -4.557645055751353 5.419534901439249
0.005986686211935879 -4.615534083941647 5.4246105413023855
0.0048350101355719415 -4.6745939014661255 5.429788834556012
0.003660503476196384 -4.734824508324791 5.435069781200129
0.0024631662338092126 -4.796225904517641 5.440453381234736
0.001242998408410416 -4.858798090044678 5.445939634659833
0.0 -4.9225410649059 5.4515285414754215
0.0012429984084104126 -4.916976212245035 5.515273620802493
0.0024631662338092048 -4.911513571163654 5.577847872141923
0.0036605034761963773 -4.906153141661759 5.639251295493715
0.004835010135571931 -4.900894923739349 5.6994838908578656
0.005986686211935864 -4.895738917396425 5.758545658234377
0.007115531705288176 -4.890685122632986 5.816436597623247
0.008221546615628869 -4.885733539449032 5.873156709024478
0.009304730942957942 -4.880884167844563 5.9287059924380685
0.010365084687275395 -4.8761370078195805 5.983084447864019
0.01140260784858123 -4.8714920593740825 6.036292075302329
0.012417300426875446 -4.86694932250807 6.0883288747529996
0.013409162422158038 -4.862508797221542 6.13919484621603
0.014378193834429013 -4.8581704835145 6.18888998969142
0.015324394663688365 -4.853934381386943 6.23741430517917
0.0162477649099361 -4.849800490838872 6.28476779267928
0.017148304573172214 -4.845768811870285 6.33095045219175
0.018026013653396712 -4.841839344481184 6.37596228371658
0.01888089215060959 -4.838012088671569 6.41980328725377
0.019712940064810846 -4.834287044441438 6.462473462803319
0.02052215739600048 -4.830664211790793 6.50397281036523
0.021308544144178498 -4.827143590719634 6.544301329939499
0.022072100309344894 -4.8237251812279585 6.583459021526128
0.022812825891499664 -4.82040898331577 6.621445885125117
0.023530720890642825 -4.817194996983066 6.658261920736466
0.02422578530677436 -4.814083222229847 6.693907128360174
0.024898019139894277 -4.811073659056113 6.728381507996245
0.025547422390002576 -4.808166307461866 6.761685059644675
0.026173995057099254 -4.805361167447102 6.793817783305463
0.02677773714118431 -4.802658239011825 6.8247796789786115
0.02735864864225775 -4.800057522156033 6.854570746664121
0.027916729560319566 -4.797559016879726 6.883190986361989
0.02845197989536976 -4.795162723182904 6.910640398072219
0.02896439964740834 -4.792868641065567 6.936918981794806
0.029453988816435295 -4.790676770527717 6.962026737529755
0.029920747402450643 -4.788587111569351 6.9859636652770645
0.030364675405454362 -4.78659966419047 7.0087297650367315
0.03078577282544645 -4.784714428391075 7.03032503680876
0.031184039662426936 -4.782931404171165 7.050749480593147
0.031559475916395796 -4.78125059153074 7.070003096389894
0.031912081587353036 -4.779671990469801 7.088085884199004
0.03224185667529865 -4.778195600988346 7.104997844020472
0.03254880118023265 -4.7768214230863775 7.120738975854299
0.03283291510215503 -4.775549456763894 7.135309279700487
0.03309419844106579 -4.774379702020896 7.148708755559035
0.03333265119696492 -4.773312158857383 7.160937403429942
0.03354827336985245 -4.772346827273355 7.171995223313209
0.033741064959728354 -4.771483707268812 7.181882215208836
0.03391102596659263 -4.770722798843756 7.190598379116824
0.0340581563904453 -4.770064101998184 7.198143715037172
0.03418245623128634 -4.769507616732097 7.20451822296988
0.04785543872380101 -2.788416204850807 5.617692552859909
0.04773113888295997 -2.7947905023369293 5.618251443541468
0.04758400845910731 -2.802335589157237 5.618912987613517
0.04741404745224303 -2.811051465311731 5.619677185076057
0.047221255862367126 -2.82093813080041 5.620544035929087
0.0470056336894796 -2.8319955856232752 5.621513540172607
0.04676718093358047 -2.8442238297803257 5.622585697806618
0.0465058975946697 -2.8576228632715623 5.623760508831119
0.046221783672747326 -2.8721926860969846 5.625037973246111
0.045914839167813325 -2.8879332982565926 5.626418091051592
0.045585064079867704 -2.9048446997503863 5.627900862247565
0.04523245840891046 -2.9229268905783656 5.629486286834028
0.0448570221549416 -2.9421798707405307 5.631174364810981
0.04445875531796112 -2.9626036402368814 5.632965096178424
0.04403765789796902 -2.984198199067418 5.634858480936359
0.0435937298949653 -3.0069635472321403 5.636854519084783
0.04312697130894996 -3.030899684731048 5.638953210623697
0.042637382139923 -3.056006611564142 5.641154555553102
0.042124962387884414 -3.082284327731421 5.643458553872998
0.04158971205283422 -3.1097328332328864 5.645865205583384
0.041031631134772394 -3.138352128068537 5.64837451068426
0.04045071963369895 -3.1681422122383736 5.650986469175626
0.039846977549613895 -3.199103085742396 5.653701081057483
0.03922040488251722 -3.231234748580604 5.656518346329831
0.038571001632408924 -3.264537200752997 5.659438264992668
0.037898767799289 -3.2990104422595765 5.662460837045997
0.03720370338315747 -3.334654473100341 5.665586062489815
0.0364858083840143 -3.3714692932752923 5.6688139413241245
0.03574508280185952 -3.409454902784429 5.672144473548924
0.03498152663669313 -3.448611301627751 5.6755776591642135
0.03419513988851511 -3.488938489805259 5.679113498169993
0.033385922557325476 -3.5304364673169526 5.682751990566264
0.0325538746431242 -3.5731052341628327 5.686493136353025
0.03169899614591133 -3.6169447903428975 5.690336935530277
0.03082128706568683 -3.6619551358571476 5.694283388098018
0.029920747402450716 -3.7081362707055843 5.698332494056251
0.02899737715620298 -3.7554881948882066 5.702484253404973
0.028051176326943622 -3.8040109084050147 5.706738666144186
0.027082144914672642 -3.853704411256009 5.711095732273889
0.02609028291939005 -3.904568703441187 5.715555451794083
0.02507559034109583 -3.9566037849605524 5.720117824704767
0.024038067179789995 -4.009809655814103 5.7247828510059415
0.022977713435472537 -4.064186316001839 5.7295505306976064
0.021894529108143455 -4.119733765523762 5.734420863779762
0.020788514197802758 -4.17645200437987 5.739393850252407
0.01965966870445044 -4.234341032570164 5.744469490115543
0.0185079926280865 -4.293400850094643 5.749647783369169
0.017333485968710947 -4.353631456953308 5.754928730013286
0.016136148726323775 -4.415032853146158 5.760312330047894
0.014915980900924978 -4.477605038673195 5.765798583472991
0.01367298249251456 -4.541348013534417 5.771387490288579
0.014915980900924974 -4.535783160873552 5.83513256961565
0.016136148726323768 -4.530320519792172 5.897706820955081
0.017333485968710937 -4.524960090290277 5.959110244306872
0.018507992628086493 -4.519701872367866 6.019342839671023
0.019659668704450423 -4.5145458660249425 6.078404607047534
0.020788514197802737 -4.509492071261503 6.136295546436405
0.02189452910814343 -4.5045404880775495 6.193015657837636
0.022977713435472506 -4.49969111647308 6.248564941251226
0.024038067179789957 -4.494943956448098 6.302943396677176
0.025075590341095796 -4.4902990080026 6.356151024115487
0.026090282919390004 -4.485756271136587 6.408187823566157
0.027082144914672597 -4.481315745850059 6.459053795029187
0.02805117632694357 -4.476977432143017 6.508748938504578
0.02899737715620293 -4.47274133001546 6.557273253992328
0.02992074740245066 -4.468607439467389 6.604626741492438
0.030821287065686775 -4.464575760498803 6.650809401004907
0.031698996145911276 -4.4606462931097015 6.695821232529739
0.032553874643124155 -4.456819037300086 6.739662236066927
0.033385922557325406 -4.453093993069955 6.782332411616478
[...]
CELL_DATA 200

VECTORS Vinf float
5.2304564935400455 38.12264090577573 18.295200998110406
5.216305447460667 38.12847511907181 18.343516134994314
5.200024399896547 38.13527599929658 18.39992421307768
5.181749773022042 38.14303516534789 18.464407006809566
5.1619597966165625 38.15323664373478 18.53242180885032
5.140185958251505 38.163159983595264 18.612207383478566
5.116966098450768 38.17406185366359 18.69984692674507
5.092549363045499 38.18593285166141 18.79529127528236
5.06721269440289 38.19876147113635 18.898488428174694
5.041255983534507 38.21253409960826 19.009384930840472
5.014995061630448 38.22723514207253 19.127927566313865
4.988752741685875 38.24284728032961 19.254065270095207
4.962848397408694 38.259351865876575 19.387751137518674
4.937586834727066 38.27672942885785 19.528944353602675
4.913247418675045 38.29496026983032 19.677611854400133
4.890074510771532 38.31402508762148 19.833729534758
4.869644947596353 38.33052320773521 20.00402569893078
4.849649619000917 38.35197378211628 20.173336944625998
4.830953078912479 38.37412300818847 20.35036923060742
4.813731215815057 38.39693143949476 20.53516080259509
4.7981325204887 38.420359708641186 20.727756951422993
4.784282051450017 38.444368651774425 20.92820861207509
4.772286511461338 38.46891931910712 21.136570925643465
4.7591830611793995 38.49306153995294 21.355070727275223
4.7515636900180205 38.51962278356258 21.577033273365217
4.744894609536429 38.54684577123641 21.806901130364164
4.739302543616922 38.57469570561439 22.04471526081035
4.734891458167943 38.603137914536966 22.290522077683992
4.731746570910204 38.63213794551832 22.5443723161788
4.73174705447452 38.66169467527232 22.80508307610625
4.7316497875276555 38.692085514505756 23.074114132598826
4.732930218469125 38.72320449749024 23.35078073970507
4.735625425561133 38.75504709880535 23.635083999490817
4.739794945331987 38.78760735170209 23.927022811831662
4.745519626894564 38.82087786717632 24.22659448874088
4.752896883098497 38.85485012685847 24.533795751467235
4.762030275413476 38.889515181720085 24.84862425571574
4.773010862768406 38.92486490054298 25.17108079361602
4.785887527274447 38.96089389174997 25.50117229707291
4.800624117061335 38.99760214771786 25.83891567920552
4.817043796693454 39.03499830351373 26.184342310393514
4.834767020221142 39.073103127224265 26.53750238917316
4.853160093201313 39.11195244171081 26.898467532852745
4.871324433331753 39.15159816222301 27.26732878469846
4.88816432198235 39.192105748496715 27.64418676764954
4.902559121846096 39.233546609352295 28.029132353250027
4.913623511642379 39.27598545426542 28.422220923670917
4.920975412380791 39.3194653271291 28.823449654378642
4.924885988043591 39.36399586584099 29.232750567030138
4.926210691347896 39.40955083862096 29.650007287280918
4.927904458413433 39.64316168945647 29.837209385667627
4.929220304769614 40.06028361336818 29.791600895173207
4.928250354787928 40.46986520788989 29.74691204889786
4.923897124280462 40.872037116494944 29.703158891093302
4.915727892526931 41.266872573679485 29.660323612642436
4.9040878847272245 41.65436632110655 29.618362448553658
4.8899282537326405 42.03444429430833 29.57722021378762
4.874744466841991 42.40650546776056 29.53764010270546
4.858282855730417 42.77142022492882 29.4981800664659
4.842531584237581 43.12857798367618 29.45945627528084
4.828104516350787 43.47790711444091 29.42145994869164
4.815325921131126 43.81936442515536 29.384194162818098
4.8043051018421155 44.15292928172854 29.347669676416892
4.7950142154192035 44.47859644222376 29.311901381316694
4.7873485294834905 44.79637002435908 29.276905782495234
4.77963999524164 45.106767455223526 29.242047404083518
4.77359475698395 45.408532710862396 29.209422460947817
4.768664593271776 45.702727998280224 29.177095382782415
4.764749904757654 45.98934131477247 29.145114939440337
4.761760567103159 46.26836023151579 29.11352783445916
4.760685904950188 46.53944872114618 29.082464474965107
4.759783618278435 46.80205211545764 29.053839442223648
4.760115657059053 47.05715411153881 29.025385973961566
4.761649293950299 47.304726038968845 28.99716692104222
4.764354136546422 47.544739686108244 28.9692433198125
4.768192413461966 47.777168276836356 28.941674499274665
4.771689147671083 47.99906814765561 28.919808284973918
4.7780140956713595 48.215022518157475 28.895231023395592
4.7859010715234325 48.42309785228783 28.871469905693374
4.795472462075586 48.6232812126405 28.848528706914387
4.806837190528341 48.81556055557366 28.82641202456856
4.8200780136977315 48.99992591905461 28.805125361511642
4.835238177413853 49.17637070595082 28.78467514272575
4.852309091249561 49.34489291074021 28.76506864971904
4.87122082471489 49.50549611839708 28.746313865633567
4.891836982297217 49.65819012106354 28.728419236706632
4.913954926158684 49.80299104843762 28.711393368645076
4.937311521426287 49.93992097963424 28.69524468681117
4.961593766279238 50.069007080563686 28.67998109462179
4.986453012508912 50.1902803750227 28.66560966433727
5.011521098520277 50.30377429805691 28.652136388917533
5.036426643021876 50.40952319222953 28.639566014434326
5.0608099477218556 50.50756089365735 28.62790196172879
5.084335346353683 50.59791952220836 28.617146335617747
5.10670031278745 50.68062854831554 28.60730001151476
5.127641109472452 50.75571416607752 28.598362783684106
5.146935151488518 50.82319896523328 28.59033355664356
5.164400545041891 50.88310186691015 28.583210561120506
5.1798934248017625 50.93543827086467 28.57699157776845
5.193303775115103 50.980220354392 28.571674154809557
5.2304564935400455 38.12264090577573 18.295200998110406
5.216305447460667 38.12847511907181 18.343516134994314
5.200024399896547 38.13527599929658 18.39992421307768
5.181749773022042 38.14303516534789 18.464407006809566
5.1619597966165625 38.15323664373478 18.53242180885032
5.140185958251505 38.163159983595264 18.612207383478566
5.116966098450768 38.17406185366359 18.69984692674507
5.092549363045499 38.18593285166141 18.79529127528236
5.06721269440289 38.19876147113635 18.898488428174694
5.041255983534507 38.21253409960826 19.009384930840472
5.014995061630448 38.22723514207253 19.127927566313865
4.988752741685875 38.24284728032961 19.254065270095207
4.962848397408694 38.259351865876575 19.387751137518674
4.937586834727066 38.27672942885785 19.528944353602675
4.913247418675045 38.29496026983032 19.677611854400133
4.890074510771532 38.31402508762148 19.833729534758
4.869644947596353 38.33052320773521 20.00402569893078
4.849649619000917 38.35197378211628 20.173336944625998
4.830953078912479 38.37412300818847 20.35036923060742
4.813731215815057 38.39693143949476 20.53516080259509
4.7981325204887 38.420359708641186 20.727756951422993
4.784282051450017 38.444368651774425 20.92820861207509
4.772286511461338 38.46891931910712 21.136570925643465
4.7591830611793995 38.49306153995294 21.355070727275223
4.7515636900180205 38.51962278356258 21.577033273365217
4.744894609536429 38.54684577123641 21.806901130364164
4.739302543616922 38.57469570561439 22.04471526081035
4.734891458167943 38.603137914536966 22.290522077683992
4.731746570910204 38.63213794551832 22.5443723161788
4.73174705447452 38.66169467527232 22.80508307610625
4.7316497875276555 38.692085514505756 23.074114132598826
4.732930218469125 38.72320449749024 23.35078073970507
4.735625425561133 38.75504709880535 23.635083999490817
4.739794945331987 38.78760735170209 23.927022811831662
4.745519626894564 38.82087786717632 24.22659448874088
4.752896883098497 38.85485012685847 24.533795751467235
4.762030275413476 38.889515181720085 24.84862425571574
4.773010862768406 38.92486490054298 25.17108079361602
4.785887527274447 38.96089389174997 25.50117229707291
4.800624117061335 38.99760214771786 25.83891567920552
4.817043796693454 39.03499830351373 26.184342310393514
4.834767020221142 39.073103127224265 26.53750238917316
4.853160093201313 39.11195244171081 26.898467532852745
4.871324433331753 39.15159816222301 27.26732878469846
4.88816432198235 39.192105748496715 27.64418676764954
4.902559121846096 39.233546609352295 28.029132353250027
4.913623511642379 39.27598545426542 28.422220923670917
4.920975412380791 39.3194653271291 28.823449654378642
4.924885988043591 39.36399586584099 29.232750567030138
4.926210691347896 39.40955083862096 29.650007287280918
4.927904458413433 39.64316168945647 29.837209385667627
4.929220304769614 40.06028361336818 29.791600895173207
4.928250354787928 40.46986520788989 29.74691204889786
4.923897124280462 40.872037116494944 29.703158891093302
4.915727892526931 41.266872573679485 29.660323612642436
4.9040878847272245 41.65436632110655 29.618362448553658
4.8899282537326405 42.03444429430833 29.57722021378762
4.874744466841991 42.40650546776056 29.53764010270546
4.858282855730417 42.77142022492882 29.4981800664659
4.842531584237581 43.12857798367618 29.45945627528084
4.828104516350787 43.47790711444091 29.42145994869164
4.815325921131126 43.81936442515536 29.384194162818098
4.8043051018421155 44.15292928172854 29.347669676416892
4.7950142154192035 44.47859644222376 29.311901381316694
4.7873485294834905 44.79637002435908 29.276905782495234
4.77963999524164 45.106767455223526 29.242047404083518
4.77359475698395 45.408532710862396 29.209422460947817
4.768664593271776 45.702727998280224 29.177095382782415
4.764749904757654 45.98934131477247 29.145114939440337
4.761760567103159 46.26836023151579 29.11352783445916
4.760685904950188 46.53944872114618 29.082464474965107
4.759783618278435 46.80205211545764 29.053839442223648
4.760115657059053 47.05715411153881 29.025385973961566
4.761649293950299 47.304726038968845 28.99716692104222
4.764354136546422 47.544739686108244 28.9692433198125
4.768192413461966 47.777168276836356 28.941674499274665
4.771689147671083 47.99906814765561 28.919808284973918
4.7780140956713595 48.215022518157475 28.895231023395592
4.7859010715234325 48.42309785228783 28.871469905693374
4.795472462075586 48.6232812126405 28.848528706914387
4.806837190528341 48.81556055557366 28.82641202456856
4.8200780136977315 48.99992591905461 28.805125361511642
4.835238177413853 49.17637070595082 28.78467514272575
4.852309091249561 49.34489291074021 28.76506864971904
4.87122082471489 49.50549611839708 28.746313865633567
4.891836982297217 49.65819012106354 28.728419236706632
4.913954926158684 49.80299104843762 28.711393368645076
4.937311521426287 49.93992097963424 28.69524468681117
4.961593766279238 50.069007080563686 28.67998109462179
4.986453012508912 50.1902803750227 28.66560966433727
5.011521098520277 50.30377429805691 28.652136388917533
5.036426643021876 50.40952319222953 28.639566014434326
5.0608099477218556 50.50756089365735 28.62790196172879
5.084335346353683 50.59791952220836 28.617146335617747
5.10670031278745 50.68062854831554 28.60730001151476
5.127641109472452 50.75571416607752 28.598362783684106
5.146935151488518 50.82319896523328 28.59033355664356
5.164400545041891 50.88310186691015 28.583210561120506
5.1798934248017625 50.93543827086467 28.57699157776845
5.193303775115103 50.980220354392 28.571674154809557

VECTORS L float
0.05855666230777501 0.0 0.0
0.1058805879425877 0.0 0.0
0.15721321582639142 0.0 0.0
0.21428182464516318 0.0 0.0
0.2775795363425672 0.0 0.0
0.34726415377221537 0.0 0.0
0.4233551767534909 0.0 0.0
0.5057964669627995 0.0 0.0
0.5944679412778704 0.0 0.0
0.6892004829740034 0.0 0.0
0.789779130441263 0.0 0.0
0.895945927149763 0.0 0.0
1.0074032194323175 0.0 0.0
1.1238198187869088 0.0 0.0
1.2448373750750428 0.0 0.0
1.3700806079010968 0.0 0.0
1.4991731150112955 0.0 0.0
1.631690316156418 0.0 0.0
1.7673380606750662 0.0 0.0
1.9057578362823322 0.0 0.0
2.0466111320065106 0.0 0.0
2.189597050321316 0.0 0.0
2.33444153222484 0.0 0.0
2.4808675532906412 0.0 0.0
2.6287683727067233 0.0 0.0
2.7779047365278546 0.0 0.0
2.9280819149596664 0.0 0.0
3.0791243502734194 0.0 0.0
3.2308882247989894 0.0 0.0
3.383273942605336 0.0 0.0
3.536086664550852 0.0 0.0
3.689123872650672 0.0 0.0
3.8422290236731813 0.0 0.0
3.99520561965626 0.0 0.0
4.147813825895445 0.0 0.0
4.2997643930425165 0.0 0.0
4.450647765428777 0.0 0.0
4.599981523439683 0.0 0.0
4.7471427414235645 0.0 0.0
4.891338786449781 0.0 0.0
5.031577747555657 0.0 0.0
5.166653833488727 0.0 0.0
5.295129568725611 0.0 0.0
5.4153847561460635 0.0 0.0
5.525742320278259 0.0 0.0
5.624753485602042 0.0 0.0
5.711731404008824 0.0 0.0
5.787819005851544 0.0 0.0
5.858593471650759 0.0 0.0
5.948795311533942 0.0 0.0
6.210810081131948 0.0 0.0
6.239528622160664 0.0 0.0
6.284823922457424 0.0 0.0
6.321521928829376 0.0 0.0
6.343062398883674 0.0 0.0
6.3475018598269735 0.0 0.0
6.334775179991345 0.0 0.0
6.305777295859843 0.0 0.0
6.261695365811108 0.0 0.0
6.203960622166227 0.0 0.0
6.1338173303340415 0.0 0.0
6.052454740896494 0.0 0.0
5.9608091807249695 0.0 0.0
5.859658569009551 0.0 0.0
5.749616166371011 0.0 0.0
5.631184867495592 0.0 0.0
5.504911111113928 0.0 0.0
5.371185881266034 0.0 0.0
5.230370928542637 0.0 0.0
5.08274759041704 0.0 0.0
4.928800494202136 0.0 0.0
4.768735127455883 0.0 0.0
4.602903799431587 0.0 0.0
4.431640161738927 0.0 0.0
4.2553005096690315 0.0 0.0
4.074279482830023 0.0 0.0
3.888979164231655 0.0 0.0
3.6999807201653296 0.0 0.0
3.5077942500615436 0.0 0.0
3.3130120482938157 0.0 0.0
3.1162914106492146 0.0 0.0
2.918336017492439 0.0 0.0
2.719922674233112 0.0 0.0
2.5218845850630576 0.0 0.0
2.3251087860827147 0.0 0.0
2.1305251894070016 0.0 0.0
1.9390931652008765 0.0 0.0
1.7517821558113231 0.0 0.0
1.5695517109809896 0.0 0.0
1.3933287029852717 0.0 0.0
1.2239938093380682 0.0 0.0
1.0623649448680754 0.0 0.0
0.9091856108000904 0.0 0.0
0.7651138130860852 0.0 0.0
0.6307087899352688 0.0 0.0
0.5064101600321833 0.0 0.0
0.39248665349711326 0.0 0.0
0.2889314927770284 0.0 0.0
0.19508462529629442 0.0 0.0
0.10793061202458348 0.0 0.0
0.05855666230777501 0.0 0.0
0.1058805879425877 0.0 0.0
0.15721321582639142 0.0 0.0
0.21428182464516318 0.0 0.0
0.2775795363425672 0.0 0.0
0.34726415377221537 0.0 0.0
0.4233551767534909 0.0 0.0
0.5057964669627995 0.0 0.0
0.5944679412778704 0.0 0.0
0.6892004829740034 0.0 0.0
0.789779130441263 0.0 0.0
0.895945927149763 0.0 0.0
1.0074032194323175 0.0 0.0
1.1238198187869088 0.0 0.0
1.2448373750750428 0.0 0.0
1.3700806079010968 0.0 0.0
1.4991731150112955 0.0 0.0
1.631690316156418 0.0 0.0
1.7673380606750662 0.0 0.0
1.9057578362823322 0.0 0.0
2.0466111320065106 0.0 0.0
2.189597050321316 0.0 0.0
2.33444153222484 0.0 0.0
2.4808675532906412 0.0 0.0
2.6287683727067233 0.0 0.0
2.7779047365278546 0.0 0.0
2.9280819149596664 0.0 0.0
3.0791243502734194 0.0 0.0
3.2308882247989894 0.0 0.0
3.383273942605336 0.0 0.0
3.536086664550852 0.0 0.0
3.689123872650672 0.0 0.0
3.8422290236731813 0.0 0.0
3.99520561965626 0.0 0.0
4.147813825895445 0.0 0.0
4.2997643930425165 0.0 0.0
4.450647765428777 0.0 0.0
4.599981523439683 0.0 0.0
4.7471427414235645 0.0 0.0
4.891338786449781 0.0 0.0
5.031577747555657 0.0 0.0
5.166653833488727 0.0 0.0
5.295129568725611 0.0 0.0
5.4153847561460635 0.0 0.0
5.525742320278259 0.0 0.0
5.624753485602042 0.0 0.0
5.711731404008824 0.0 0.0
5.787819005851544 0.0 0.0
5.858593471650759 0.0 0.0
5.948795311533942 0.0 0.0
6.210810081131948 0.0 0.0
6.239528622160664 0.0 0.0
6.284823922457424 0.0 0.0
6.321521928829376 0.0 0.0
6.343062398883674 0.0 0.0
6.3475018598269735 0.0 0.0
6.334775179991345 0.0 0.0
6.305777295859843 0.0 0.0
6.261695365811108 0.0 0.0
6.203960622166227 0.0 0.0
6.1338173303340415 0.0 0.0
6.052454740896494 0.0 0.0
5.9608091807249695 0.0 0.0
5.859658569009551 0.0 0.0
5.749616166371011 0.0 0.0
5.631184867495592 0.0 0.0
5.504911111113928 0.0 0.0
5.371185881266034 0.0 0.0
5.230370928542637 0.0 0.0
5.08274759041704 0.0 0.0
4.928800494202136 0.0 0.0
4.768735127455883 0.0 0.0
4.602903799431587 0.0 0.0
4.431640161738927 0.0 0.0
4.2553005096690315 0.0 0.0
4.074279482830023 0.0 0.0
3.888979164231655 0.0 0.0
3.6999807201653296 0.0 0.0
3.5077942500615436 0.0 0.0
3.3130120482938157 0.0 0.0
3.1162914106492146 0.0 0.0
2.918336017492439 0.0 0.0
2.719922674233112 0.0 0.0
2.5218845850630576 0.0 0.0
2.3251087860827147 0.0 0.0
2.1305251894070016 0.0 0.0
1.9390931652008765 0.0 0.0
1.7517821558113231 0.0 0.0
1.5695517109809896 0.0 0.0
1.3933287029852717 0.0 0.0
1.2239938093380682 0.0 0.0
1.0623649448680754 0.0 0.0
0.9091856108000904 0.0 0.0
0.7651138130860852 0.0 0.0
0.6307087899352688 0.0 0.0
0.5064101600321833 0.0 0.0
0.39248665349711326 0.0 0.0
0.2889314927770284 0.0 0.0
0.19508462529629442 0.0 0.0
0.10793061202458348 0.0 0.0

SCALARS Gamma float
LOOKUP_TABLE default
0.4237737047359884
0.6513564593461643
0.8376236488566559
1.0052316610760723
1.1617935377832747
1.3106470923956826
1.4534367197652935
1.5910046110575191
1.7237327595877132
1.8517488987230837
1.9750230912223947
2.0934282513573925
2.2067809285302467
2.3148744975391926
2.417502342515904
2.51448072642816
2.6056727379226237
2.6909095468247872
2.770267553233876
2.8437347445248626
2.9113485990723733
2.973210140361949
3.0294577359214703
3.08022647514427
3.1258445877261196
3.166461909843317
3.202271818215629
3.2334773097699725
3.2603010350767265
3.282991356038554
3.3016907547329337
3.3165313815880197
3.327681339188395
3.335267813023171
3.3393807484038907
3.340073802461107
3.3373185842642736
3.3310518317360973
3.321135332111698
3.3073497028749275
3.289390202488904
3.2668736950667805
3.2393436064070493
3.2063136127979996
3.1673463208398784
3.1222011519903274
3.07107476473256
3.0150257100414772
2.95682678437653
2.903612126468997
2.8977387358198317
2.9386256145432195
2.9839980211914536
3.027076652375643
3.0652949028637186
3.097694046227552
3.1241387038907784
3.1449151507072726
3.1604388085417856
3.1712448325338998
3.1778028325382306
3.180500648003999
3.179653090747778
3.1754780499377797
3.168103975593908
3.157594149980254
3.144028983076224
3.127394946307849
3.1076493623858346
3.084694884120196
3.058519231434232
3.0289445817047116
2.9958533491733044
2.959094466902097
2.9185061893134114
2.873925467381264
2.825165686694296
2.772139228164791
2.7146839250400334
2.6526700076966954
2.585992802408207
2.514562043554294
2.438328750745548
2.357279478152841
2.271442680437332
2.180888829716857
2.0857282150504823
1.9861016322133982
1.8821673452234307
1.7740798127897992
1.6619722953366396
1.5459275296274546
1.4259419152488233
1.3018718133286344
1.1733446767798388
1.0395976892661578
0.8991313212444152
0.7489420988835451
0.5822128014953181
0.37868791208418556
0.4237737047359884
0.6513564593461643
0.8376236488566559
1.0052316610760723
1.1617935377832747
1.3106470923956826
1.4534367197652935
1.5910046110575191
1.7237327595877132
1.8517488987230837
1.9750230912223947
2.0934282513573925
2.2067809285302467
2.3148744975391926
2.417502342515904
2.51448072642816
2.6056727379226237
2.6909095468247872
2.770267553233876
2.8437347445248626
2.9113485990723733
2.973210140361949
3.0294577359214703
3.08022647514427
3.1258445877261196
3.166461909843317
3.202271818215629
3.2334773097699725
3.2603010350767265
3.282991356038554
3.3016907547329337
3.3165313815880197
3.327681339188395
3.335267813023171
3.3393807484038907
3.340073802461107
3.3373185842642736
3.3310518317360973
3.321135332111698
3.3073497028749275
3.289390202488904
3.2668736950667805
3.2393436064070493
3.2063136127979996
3.1673463208398784
3.1222011519903274
3.07107476473256
3.0150257100414772
2.95682678437653
2.903612126468997
2.8977387358198317
2.9386256145432195
2.9839980211914536
3.027076652375643
3.0652949028637186
3.097694046227552
3.1241387038907784
3.1449151507072726
3.1604388085417856
3.1712448325338998
3.1778028325382306
3.180500648003999
3.179653090747778
3.1754780499377797
3.168103975593908
3.157594149980254
3.144028983076224
3.127394946307849
3.1076493623858346
3.084694884120196
3.058519231434232
3.0289445817047116
2.9958533491733044
2.959094466902097
2.9185061893134114
2.873925467381264
2.825165686694296
2.772139228164791
2.7146839250400334
2.6526700076966954
2.585992802408207
2.514562043554294
2.438328750745548
2.357279478152841
2.271442680437332
2.180888829716857
2.0857282150504823
1.9861016322133982
1.8821673452234307
1.7740798127897992
1.6619722953366396
1.5459275296274546
1.4259419152488233
1.3018718133286344
1.1733446767798388