# vtk DataFile Version 4.0
[MyVLM domain - lattices] 
ASCII
DATASET UNSTRUCTURED_GRID
POINTS 302 float
0.03418245623128644 1.082310514476821 6.058410617165205
0.034058156390445404 1.077786767314065 6.062936071710658
0.03391102596659274 1.0724321278152926 6.068292732193033
0.03374106495972846 1.0662465959805039 6.074480598612328
0.03354827336985256 1.0592301718096986 6.081499670968543
0.03333265119696503 1.0513828553028768 6.0893499492616785
0.0330941984410659 1.042704646460039 6.098031433491734
0.032832915102155136 1.0331955452811843 6.10754412365871
0.032548801180232755 1.0228555517663136 6.1178880197626055
0.03224185667529875 1.0116846659154264 6.129063121803421
0.031912081587353126 0.9996828877285225 6.141069429781158
0.031559475916395886 0.9868502172056022 6.153906943695814
0.031184039662427034 0.9731866543466661 6.167575663547391
0.030785772825446554 0.9586921991517132 6.182075589335888
0.030364675405454452 0.9433668516207437 6.197406721061305
0.029920747402450733 0.927210611753758 6.2135690587236425
0.029453988816435392 0.9102234795507558 6.2305626023229
0.028964399647408424 0.8924054550117371 6.248387351859078
0.028451979895369846 0.8737565381367023 6.267043307332176
0.027916729560319656 0.854276728925651 6.2865304687421935
0.027358648642257826 0.833966027378583 6.306848836089132
0.026777737141184386 0.8128244334954988 6.327998409372991
0.02617399505709933 0.7908519472763983 6.349979188593769
0.025547422390002655 0.7680485687212811 6.372791173751469
0.024898019139894357 0.7444142978301479 6.396434364846088
0.024225785306774435 0.719949134602998 6.420908761877627
0.0235307208906429 0.6946530790398319 6.446214364846086
0.022812825891499737 0.6685261311406492 6.472351173751466
0.022072100309344964 0.6415682909054502 6.499319188593766
0.02130854414417856 0.6137795583342346 6.527118409372988
0.02052215739600054 0.5851599334270028 6.555748836089126
0.019712940064810905 0.5557094161837545 6.585210468742187
0.018880892150609643 0.5254280066044899 6.615503307332168
0.018026013653396768 0.4943157046892087 6.646627351859069
0.01714830457317227 0.46237251043791117 6.678582602322891
0.01624776490993615 0.42959842385059716 6.711369058723631
0.01532439466368841 0.39599344492726674 6.744986721061294
0.014378193834429055 0.3615575736679202 6.7794355893358755
0.01340916242215808 0.32629081007255706 6.814715663547377
0.012417300426875486 0.29019315414117763 6.8508269436957985
0.011402607848581268 0.25326460587378163 6.887769429781141
0.010365084687275431 0.21550516527036925 6.925543121803404
0.009304730942957974 0.17691483233094046 6.964148019762586
0.008221546615628893 0.13749360705549507 7.00358412365869
0.007115531705288196 0.09724148944403355 7.043851433491715
0.005986686211935878 0.05615847949655544 7.0849499492616586
0.004835010135571941 0.014244577213060994 7.1268796709685205
0.003660503476196383 -0.028500217406449865 7.169640598612306
0.002463166233809212 -0.07207590436197693 7.213232732193008
0.0012429984084104159 -0.11648248365352057 7.257656071710634
0.0 -0.16171995528108063 7.302910617165177
0.0012429984084104102 -0.11648248365352247 7.348165162619724
0.0024631662338092 -0.07207590436198068 7.39258850213735
0.0036605034761963704 -0.028500217406455253 7.436180635718056
0.004835010135571922 0.014244577213053803 7.478941563361843
0.005986686211935852 0.056158479496546426 7.520871285068708
0.007115531705288163 0.09724148944402272 7.561969800838653
0.008221546615628853 0.13749360705548264 7.602237110671678
0.009304730942957926 0.17691483233092614 7.641673214567784
0.010365084687275376 0.21550516527035335 7.680278112526967
0.011402607848581211 0.25326460587376415 7.718051804549232
0.012417300426875421 0.2901931541411586 7.754994290634576
0.013409162422158012 0.3262908100725366 7.791105570782999
0.014378193834428983 0.3615575736678982 7.826385644994502
0.01532439466368834 0.39599344492724353 7.860834513269086
0.016247764909936072 0.4295984238505723 7.894452175606751
0.017148304573172183 0.46237251043788485 7.927238632007493
0.018026013653396677 0.4943157046891811 7.959193882471314
0.018880892150609556 0.5254280066044611 7.990317926998218
0.01971294006481081 0.5557094161837246 8.0206107655882
0.020522157396000447 0.5851599334269716 8.050072398241262
0.021308544144178456 0.6137795583342022 8.078702824957404
0.022072100309344853 0.6415682909054164 8.106502045736624
0.022812825891499623 0.6685261311406142 8.133470060578926
0.02353072089064278 0.6946530790397958 8.159606869484307
0.024225785306774314 0.7199491346029611 8.184912472452767
0.024898019139894232 0.7444142978301099 8.209386869484307
0.025547422390002524 0.7680485687212424 8.233030060578928
0.02617399505709921 0.7908519472763583 8.255842045736628
0.026777737141184265 0.8128244334954582 8.277822824957408
0.027358648642257705 0.8339660273785414 8.298972398241267
0.027916729560319514 0.8542767289256085 8.319290765588207
0.02845197989536971 0.8737565381366587 8.338777926998226
0.028964399647408285 0.8924054550116931 8.357433882471325
0.02945398881643524 0.9102234795507107 8.375258632007503
0.029920747402450588 0.9272106117537122 8.39225217560676
0.030364675405454303 0.9433668516206974 8.408414513269099
0.030785772825446395 0.958692199151666 8.423745644994517
0.03118403966242688 0.9731866543466186 8.438245570783014
0.031559475916395734 0.9868502172055542 8.451914290634592
0.03191208158735298 0.9996828877284739 8.464751804549248
0.032241856675298594 1.011684665915377 8.476758112526985
0.0325488011802326 1.0228555517662639 8.487933214567802
0.03283291510215497 1.033195545281134 8.4982771106717
0.03309419844106573 1.0427046464599883 8.507789800838674
0.033332651196964866 1.051382855302826 8.51647128506873
0.03354827336985239 1.0592301718096473 8.524321563361866
0.03374106495972829 1.0662465959804523 8.531340635718081
0.03391102596659257 1.0724321278152409 8.537528502137377
0.03405815639044524 1.0777867673140131 8.542885162619752
0.034182456231286275 1.082310514476769 8.547410617165205
0.04785543872380099 1.5799227023799713 6.058410617165215
0.04773113888295995 1.5753989552172154 6.06293607171067
0.04758400845910729 1.570044315718443 6.068292732193044
0.04741404745224301 1.5638587838836542 6.07448059861234
0.047221255862367105 1.556842359712849 6.0814996709685545
0.04700563368947958 1.548995043206027 6.08934994926169
0.04676718093358045 1.5403168343631892 6.0980314334917445
0.046505897594669686 1.5308077331843348 6.1075441236587205
0.0462217836727473 1.520467739669464 6.117888019762616
0.0459148391678133 1.5092968538185767 6.129063121803433
0.045585064079867677 1.497295075631673 6.141069429781169
0.04523245840891044 1.4844624051087527 6.153906943695826
0.044857022154941584 1.4707988422498164 6.167575663547402
0.0444587553179611 1.4563043870548635 6.182075589335899
0.044037657897969 1.440979039523894 6.197406721061316
0.04359372989496528 1.4248227996569085 6.213569058723653
0.043126971308949935 1.407835667453906 6.230562602322911
0.04263738213992297 1.3900176429148874 6.248387351859089
0.04212496238788439 1.3713687260398526 6.2670433073321865
0.041589712052834196 1.3518889168288013 6.286530468742205
0.04103163113477238 1.3315782152817335 6.306848836089143
0.04045071963369894 1.3104366213986491 6.327998409373002
0.03984697754961388 1.2884641351795487 6.349979188593781
0.0392204048825172 1.2656607566244316 6.372791173751479
0.038571001632408904 1.2420264857332983 6.396434364846098
0.03789876779928898 1.2175613225061483 6.420908761877638
0.03720370338315744 1.1922652669429823 6.446214364846098
0.03648580838401429 1.1661383190437995 6.472351173751477
0.03574508280185951 1.1391804788086004 6.499319188593776
0.034981526636693114 1.111391746237385 6.5271184093729975
0.03419513988851509 1.0827721213301529 6.555748836089138
0.033385922557325455 1.053321604086905 6.585210468742199
0.03255387464312419 1.0230401945076402 6.61550330733218
0.03169899614591132 0.9919278925923591 6.64662735185908
0.030821287065686813 0.9599846983410615 6.678582602322902
0.029920747402450692 0.9272106117537475 6.711369058723642
0.02899737715620296 0.8936056328304175 6.744986721061306
0.028051176326943598 0.8591697615710702 6.779435589335886
0.027082144914672625 0.8239029979757074 6.814715663547388
0.026090282919390032 0.787805342044328 6.85082694369581
0.025075590341095817 0.750876793776932 6.8877694297811525
0.024038067179789978 0.7131173531735195 6.925543121803416
0.022977713435472523 0.6745270202340908 6.964148019762598
0.02189452910814344 0.6351057949586454 7.003584123658701
0.020788514197802744 0.5948536773471839 7.043851433491724
0.019659668704450423 0.5537706673997058 7.084949949261668
0.018507992628086486 0.5118567651162114 7.126879670968531
0.017333485968710934 0.46911197049670056 7.1696405986123155
0.01613614872632376 0.4255362835411734 7.21323273219302
0.014915980900924964 0.3811297042496299 7.257656071710645
0.013672982492514547 0.33589223262206974 7.302910617165189
0.014915980900924958 0.3811297042496279 7.348165162619735
0.016136148726323747 0.4255362835411696 7.392588502137362
0.017333485968710916 0.4691119704966951 7.436180635718068
0.018507992628086473 0.5118567651162043 7.478941563361853
0.0196596687044504 0.5537706673996968 7.520871285068719
0.02078851419780271 0.594853677347173 7.561969800838664
0.0218945291081434 0.6351057949586331 7.602237110671689
0.02297771343547247 0.6745270202340765 7.641673214567794
0.024038067179789926 0.7131173531735037 7.680278112526978
0.02507559034109576 0.7508767937769146 7.7180518045492414
0.026090282919389966 0.787805342044309 7.7549942906345875
0.027082144914672562 0.8239029979756869 7.79110557078301
0.028051176326943532 0.8591697615710486 7.826385644994514
0.028997377156202885 0.8936056328303938 7.860834513269098
0.02992074740245062 0.9272106117537227 7.8944521756067605
0.03082128706568673 0.9599846983410352 7.927238632007502
0.031698996145911235 0.9919278925923315 7.959193882471325
0.0325538746431241 1.0230401945076115 7.9903179269982285
0.03338592255732536 1.0533216040868747 8.020610765588211
0.034195139888515 1.082772121330122 8.050072398241273
[...]
CELL_DATA 200

VECTORS Vinf float
5.169765858772295 40.96825887061103 -10.492473277233849
5.155821051388989 41.00364191337485 -10.459511377883423
5.13976452343631 41.044935136361474 -10.421049473706153
5.121722533312269 41.092116899613494 -10.377108824261196
5.1018496348238225 41.14516133160758 -10.327713690841483
5.080330543665069 41.20403820961383 -10.272891056995862
5.057380869210861 41.26871302310882 -10.212670175954194
5.033246310382264 41.33914727323956 -10.147081920921545
5.008964534121902 41.41519192516263 -10.076293253167606
4.983286662074584 41.49702562770142 -9.999991671835335
4.957210396367256 41.5844996662279 -9.918410537182742
4.931083743491352 41.677563341942985 -9.831581433547434
4.905265418231571 41.77616545382108 -9.739533048084667
4.880114268083287 41.880255874400866 -9.64228997292974
4.855908337421154 41.98977530290691 -9.540144950861126
4.832964560390413 42.104732671081635 -9.432579918935318
4.811366345919808 42.22509654310716 -9.31982418173151
4.790855354232061 42.35123981168917 -9.200257209080728
4.772779875487878 42.482176134992095 -9.077744549982386
4.756049825961376 42.61859817107845 -8.949739972900549
4.740812922725378 42.76050060123897 -8.816194544107052
4.727196189319077 42.90788148112353 -8.677055617833146
4.7155882641753015 43.06035761019158 -8.533548888858247
4.705408466280709 43.21844713021535 -8.384029948292381
4.691600792670673 43.38211494381347 -8.23112671345119
4.686687562615439 43.55092298805819 -8.07034326449407
4.682497807790625 43.72522825984351 -7.904339660360511
4.679136083919488 43.905019156104565 -7.733114436964812
4.676681337536259 44.09028757759783 -7.556663836965925
4.675194979727086 44.28102768479279 -7.374983067724765
4.674730275107502 44.47723455794761 -7.188067380589413
4.675341477850318 44.678902977894786 -6.995912839284046
4.678704039319349 44.886274177290765 -6.7968078287193805
4.682713062238745 45.098893517577174 -6.593453628120042
4.687442559222742 45.31696626257939 -6.384887392503659
4.695024765368015 45.540427181652056 -6.170707239394785
4.70430533030219 45.76932014647749 -5.9511322051256155
4.7153620461496075 46.00364204523318 -5.726144031561009
4.728217336771133 46.243396879682564 -5.495721709455457
4.742800394638818 46.48859979269098 -5.2598402920040055
4.760760108347445 46.73967375737442 -5.016989047724848
4.777377512245432 46.9958655401574 -4.770525339028784
4.7948669232938705 47.25761452643647 -4.518493288388326
4.8123125644812115 47.52502234311422 -4.260843943654549
4.828607904349038 47.7982069992649 -3.9975305693066656
4.842628181826145 48.07728448956939 -3.728518556808945
4.853488709883483 48.36234254865231 -3.4537968240990615
4.860809699510904 48.65341467764952 -3.1733852959942555
4.864863861290253 48.95046676523046 -2.8873323932769703
4.866016230957831 49.253369661155176 -2.5960049825285836
4.867446404949389 49.552750828640455 -2.6015665485430657
4.869277776530063 49.84302879023237 -2.9038771410224715
4.868873675352324 50.128141256685275 -3.200582391669461
4.8649584774231 50.408286984701434 -3.4912427884404678
4.8574106867104625 50.68329767600416 -3.7770961292495397
4.846523367535033 50.95323746292348 -4.057765714183603
4.832866325538817 51.21810310410825 -4.332633213339534
4.817772186785109 51.477719366879775 -4.602053163375008
4.802368535373509 51.73197349881848 -4.865988178003682
4.787542887078175 51.98077624054301 -5.124400038295628
4.775443366804917 52.22394115159315 -5.377141275623529
4.7628225147682794 52.461714244468524 -5.624487725418108
4.7510117948936434 52.69402186047864 -5.86622175001968
4.741873308974059 52.92067671932632 -6.1023063660125345
4.734149457452744 53.14179614987451 -6.3327852391740445
4.727715706133896 53.35739373355621 -6.5576564593436695
4.722452325818049 53.56748276542594 -6.776919279751831
4.718259060804048 53.77207469912654 -6.990573240248983
4.7162042698654565 53.97104118031927 -7.198641017058313
4.713629946757544 54.16473780771181 -7.400820544324273
4.711523709421082 54.35299190861917 -7.597412928572833
4.7111210298796395 54.53560948770621 -7.789074526329586
4.711713474689174 54.71279723062514 -7.974657062834932
4.713328803229013 54.884503888191844 -8.154613050433168
4.716040117717151 55.05072503391894 -8.328935686435205
4.71993849841958 55.21145488985167 -8.497616919547507
4.725130312995123 55.36668660773314 -8.660647468442246
4.731733253201689 55.516412629085465 -8.818016917161595
4.739332714458453 55.660353922452956 -8.970774628139784
4.749299382789632 55.79904892141043 -9.116754592646286
4.761051176050909 55.93221521108765 -9.257032778162243
4.774637745455631 56.05985143443829 -9.391600276880189
4.790075286058841 56.181958891174176 -9.520449380951371
4.807046429568788 56.29879187501355 -9.642710836259202
4.826007189124006 56.409845367713615 -9.760148868665325
4.846638300811771 56.51539130832217 -9.871857096095209
4.868831380290329 56.61552035481429 -9.977547094777018
4.892214066505526 56.71007602930852 -10.077906716132896
4.916486378048379 56.79919176929592 -10.172561444838477
4.941296373489091 56.88289619813742 -10.261524305285839
4.966276599472688 56.96121877772611 -10.344810509858897
4.991059296809759 57.034188637981934 -10.422436682690375
5.0152903798184845 57.1018335178069 -10.494420066848308
5.038641012250859 57.16417890559273 -10.560777789781447
5.060666617750845 57.22136249544906 -10.620988306945488
5.0814839851371225 57.273184816355624 -10.676045531626878
5.100661695098625 57.31976375376747 -10.72552803413882
5.11802005234847 57.36111250851242 -10.769448930627975
5.133416893274511 57.39724133106169 -10.807819470990017
5.146743467145129 57.42815788587113 -10.840649063281752
5.169765858772295 40.96825887061103 -10.492473277233849
5.155821051388989 41.00364191337485 -10.459511377883423
5.13976452343631 41.044935136361474 -10.421049473706153
5.121722533312269 41.092116899613494 -10.377108824261196
5.1018496348238225 41.14516133160758 -10.327713690841483
5.080330543665069 41.20403820961383 -10.272891056995862
5.057380869210861 41.26871302310882 -10.212670175954194
5.033246310382264 41.33914727323956 -10.147081920921545
5.008964534121902 41.41519192516263 -10.076293253167606
4.983286662074584 41.49702562770142 -9.999991671835335
4.957210396367256 41.5844996662279 -9.918410537182742
4.931083743491352 41.677563341942985 -9.831581433547434
4.905265418231571 41.77616545382108 -9.739533048084667
4.880114268083287 41.880255874400866 -9.64228997292974
4.855908337421154 41.98977530290691 -9.540144950861126
4.832964560390413 42.104732671081635 -9.432579918935318
4.811366345919808 42.22509654310716 -9.31982418173151
4.790855354232061 42.35123981168917 -9.200257209080728
4.772779875487878 42.482176134992095 -9.077744549982386
4.756049825961376 42.61859817107845 -8.949739972900549
4.740812922725378 42.76050060123897 -8.816194544107052
4.727196189319077 42.90788148112353 -8.677055617833146
4.7155882641753015 43.06035761019158 -8.533548888858247
4.705408466280709 43.21844713021535 -8.384029948292381
4.691600792670673 43.38211494381347 -8.23112671345119
4.686687562615439 43.55092298805819 -8.07034326449407
4.682497807790625 43.72522825984351 -7.904339660360511
4.679136083919488 43.905019156104565 -7.733114436964812
4.676681337536259 44.09028757759783 -7.556663836965925
4.675194979727086 44.28102768479279 -7.374983067724765
4.674730275107502 44.47723455794761 -7.188067380589413
4.675341477850318 44.678902977894786 -6.995912839284046
4.678704039319349 44.886274177290765 -6.7968078287193805
4.682713062238745 45.098893517577174 -6.593453628120042
4.687442559222742 45.31696626257939 -6.384887392503659
4.695024765368015 45.540427181652056 -6.170707239394785
4.70430533030219 45.76932014647749 -5.9511322051256155
4.7153620461496075 46.00364204523318 -5.726144031561009
4.728217336771133 46.243396879682564 -5.495721709455457
4.742800394638818 46.48859979269098 -5.2598402920040055
4.760760108347445 46.73967375737442 -5.016989047724848
4.777377512245432 46.9958655401574 -4.770525339028784
4.7948669232938705 47.25761452643647 -4.518493288388326
4.8123125644812115 47.52502234311422 -4.260843943654549
4.828607904349038 47.7982069992649 -3.9975305693066656
4.842628181826145 48.07728448956939 -3.728518556808945
4.853488709883483 48.36234254865231 -3.4537968240990615
4.860809699510904 48.65341467764952 -3.1733852959942555
4.864863861290253 48.95046676523046 -2.8873323932769703
4.866016230957831 49.253369661155176 -2.5960049825285836
4.867446404949389 49.552750828640455 -2.6015665485430657
4.869277776530063 49.84302879023237 -2.9038771410224715
4.868873675352324 50.128141256685275 -3.200582391669461
4.8649584774231 50.408286984701434 -3.4912427884404678
4.8574106867104625 50.68329767600416 -3.7770961292495397
4.846523367535033 50.95323746292348 -4.057765714183603
4.832866325538817 51.21810310410825 -4.332633213339534
4.817772186785109 51.477719366879775 -4.602053163375008
4.802368535373509 51.73197349881848 -4.865988178003682
4.787542887078175 51.98077624054301 -5.124400038295628
4.775443366804917 52.22394115159315 -5.377141275623529
4.7628225147682794 52.461714244468524 -5.624487725418108
4.7510117948936434 52.69402186047864 -5.86622175001968
4.741873308974059 52.92067671932632 -6.1023063660125345
4.734149457452744 53.14179614987451 -6.3327852391740445
4.727715706133896 53.35739373355621 -6.5576564593436695
4.722452325818049 53.56748276542594 -6.776919279751831
4.718259060804048 53.77207469912654 -6.990573240248983
4.7162042698654565 53.97104118031927 -7.198641017058313
4.713629946757544 54.16473780771181 -7.400820544324273
4.711523709421082 54.35299190861917 -7.597412928572833
4.7111210298796395 54.53560948770621 -7.789074526329586
4.711713474689174 54.71279723062514 -7.974657062834932
4.713328803229013 54.884503888191844 -8.154613050433168
4.716040117717151 55.05072503391894 -8.328935686435205
4.71993849841958 55.21145488985167 -8.497616919547507
4.725130312995123 55.36668660773314 -8.660647468442246
4.731733253201689 55.516412629085465 -8.818016917161595
4.739332714458453 55.660353922452956 -8.970774628139784
4.749299382789632 55.79904892141043 -9.116754592646286
4.761051176050909 55.93221521108765 -9.257032778162243
4.774637745455631 56.05985143443829 -9.391600276880189
4.790075286058841 56.181958891174176 -9.520449380951371
4.807046429568788 56.29879187501355 -9.642710836259202
4.826007189124006 56.409845367713615 -9.760148868665325
4.846638300811771 56.51539130832217 -9.871857096095209
4.868831380290329 56.61552035481429 -9.977547094777018
4.892214066505526 56.71007602930852 -10.077906716132896
4.916486378048379 56.79919176929592 -10.172561444838477
4.941296373489091 56.88289619813742 -10.261524305285839
4.966276599472688 56.96121877772611 -10.344810509858897
4.991059296809759 57.034188637981934 -10.422436682690375
5.0152903798184845 57.1018335178069 -10.494420066848308
5.038641012250859 57.16417890559273 -10.560777789781447
5.060666617750845 57.22136249544906 -10.620988306945488
5.0814839851371225 57.273184816355624 -10.676045531626878
5.100661695098625 57.31976375376747 -10.72552803413882
5.11802005234847 57.36111250851242 -10.769448930627975
5.133416893274511 57.39724133106169 -10.807819470990017
5.146743467145129 57.42815788587113 -10.840649063281752

VECTORS L float
0.057670289481420944 0.0 0.0
0.10427642027823275 0.0 0.0
0.1548282382731544 0.0 0.0
0.2110268640801887 0.0 0.0
0.2733572577940717 0.0 0.0
0.34197555416042436 0.0 0.0
0.4169010013474825 0.0 0.0
0.4980743235927532 0.0 0.0
0.5853800873754827 0.0 0.0
0.6786471992831763 0.0 0.0
0.777664121384751 0.0 0.0
0.8821764760064703 0.0 0.0
0.9918909760293407 0.0 0.0
1.1064784086800592 0.0 0.0
1.2255966110063212 0.0 0.0
1.3488727923548407 0.0 0.0
1.4759288697710913 0.0 0.0
1.6063894442919524 0.0 0.0
1.7399076591211788 0.0 0.0
1.8761292411069233 0.0 0.0
2.014733506208561 0.0 0.0
2.155426169203281 0.0 0.0
2.297945146766798 0.0 0.0
2.4420422015770598 0.0 0.0
2.5874353599343816 0.0 0.0
2.73415731783489 0.0 0.0
2.8819053335148217 0.0 0.0
3.0305255201305457 0.0 0.0
3.179828615285364 0.0 0.0
3.329665893574561 0.0 0.0
3.4798854587629604 0.0 0.0
3.630341678083644 0.0 0.0
3.780921926159438 0.0 0.0
3.931402744667194 0.0 0.0
4.081660437483509 0.0 0.0
4.231074728604385 0.0 0.0
4.3794645829746495 0.0 0.0
4.526341548099416 0.0 0.0
4.6710892622911535 0.0 0.0
4.812933585252668 0.0 0.0
4.95096183446763 0.0 0.0
5.083786478963677 0.0 0.0
5.210117073334116 0.0 0.0
5.328329205933995 0.0 0.0
5.436812043070481 0.0 0.0
5.534169153149394 0.0 0.0
5.619736334570739 0.0 0.0
5.69466542964314 0.0 0.0
5.764130511275562 0.0 0.0
5.852702030040824 0.0 0.0
6.10479904100723 0.0 0.0
6.133432519308874 0.0 0.0
6.178227392148294 0.0 0.0
6.21452328074669 0.0 0.0
6.236069374679783 0.0 0.0
6.240829320919367 0.0 0.0
6.228691354246758 0.0 0.0
6.200510788849222 0.0 0.0
6.15760315852784 0.0 0.0
6.101291967299672 0.0 0.0
6.032889482499295 0.0 0.0
5.95326475554018 0.0 0.0
5.863423068028768 0.0 0.0
5.764283439083003 0.0 0.0
5.656407191385287 0.0 0.0
5.540345840851016 0.0 0.0
5.416581300917609 0.0 0.0
5.285503888860692 0.0 0.0
5.147485945682761 0.0 0.0
5.002715616777981 0.0 0.0
4.851550629918878 0.0 0.0
4.69435704327216 0.0 0.0
4.531416982025118 0.0 0.0
4.363122418190541 0.0 0.0
4.189800633236835 0.0 0.0
4.011851262488768 0.0 0.0
3.8297079682532984 0.0 0.0
3.6438531724243632 0.0 0.0
3.454809831235844 0.0 0.0
3.2631953714720345 0.0 0.0
3.0696406625009267 0.0 0.0
2.8748339580545585 0.0 0.0
2.6795403217492555 0.0 0.0
2.4845781331184864 0.0 0.0
2.290834127802541 0.0 0.0
2.099224923715161 0.0 0.0
1.9107008494581452 0.0 0.0
1.726224839350223 0.0 0.0
1.5467239891179023 0.0 0.0
1.3731174198298262 0.0 0.0
1.206287458285868 0.0 0.0
1.0470366624825105 0.0 0.0
0.8960994771063446 0.0 0.0
0.7541260417450576 0.0 0.0
0.6216690323411567 0.0 0.0
0.4991640841122448 0.0 0.0
0.38688153445862417 0.0 0.0
0.2848138607203812 0.0 0.0
0.19231119821878503 0.0 0.0
0.10640175836128583 0.0 0.0
0.057670289481420944 0.0 0.0
0.10427642027823275 0.0 0.0
0.1548282382731544 0.0 0.0
0.2110268640801887 0.0 0.0
0.2733572577940717 0.0 0.0
0.34197555416042436 0.0 0.0
0.4169010013474825 0.0 0.0
0.4980743235927532 0.0 0.0
0.5853800873754827 0.0 0.0
0.6786471992831763 0.0 0.0
0.777664121384751 0.0 0.0
0.8821764760064703 0.0 0.0
0.9918909760293407 0.0 0.0
1.1064784086800592 0.0 0.0
1.2255966110063212 0.0 0.0
1.3488727923548407 0.0 0.0
1.4759288697710913 0.0 0.0
1.6063894442919524 0.0 0.0
1.7399076591211788 0.0 0.0
1.8761292411069233 0.0 0.0
2.014733506208561 0.0 0.0
2.155426169203281 0.0 0.0
2.297945146766798 0.0 0.0
2.4420422015770598 0.0 0.0
2.5874353599343816 0.0 0.0
2.73415731783489 0.0 0.0
2.8819053335148217 0.0 0.0
3.0305255201305457 0.0 0.0
3.179828615285364 0.0 0.0
3.329665893574561 0.0 0.0
3.4798854587629604 0.0 0.0
3.630341678083644 0.0 0.0
3.780921926159438 0.0 0.0
3.931402744667194 0.0 0.0
4.081660437483509 0.0 0.0
4.231074728604385 0.0 0.0
4.3794645829746495 0.0 0.0
4.526341548099416 0.0 0.0
4.6710892622911535 0.0 0.0
4.812933585252668 0.0 0.0
4.95096183446763 0.0 0.0
5.083786478963677 0.0 0.0
5.210117073334116 0.0 0.0
5.328329205933995 0.0 0.0
5.436812043070481 0.0 0.0
5.534169153149394 0.0 0.0
5.619736334570739 0.0 0.0
5.69466542964314 0.0 0.0
5.764130511275562 0.0 0.0
5.852702030040824 0.0 0.0
6.10479904100723 0.0 0.0
6.133432519308874 0.0 0.0
6.178227392148294 0.0 0.0
6.21452328074669 0.0 0.0
6.236069374679783 0.0 0.0
6.240829320919367 0.0 0.0
6.228691354246758 0.0 0.0
6.200510788849222 0.0 0.0
6.15760315852784 0.0 0.0
6.101291967299672 0.0 0.0
6.032889482499295 0.0 0.0
5.95326475554018 0.0 0.0
5.863423068028768 0.0 0.0
5.764283439083003 0.0 0.0
5.656407191385287 0.0 0.0
5.540345840851016 0.0 0.0
5.416581300917609 0.0 0.0
5.285503888860692 0.0 0.0
5.147485945682761 0.0 0.0
5.002715616777981 0.0 0.0
4.851550629918878 0.0 0.0
4.69435704327216 0.0 0.0
4.531416982025118 0.0 0.0
4.363122418190541 0.0 0.0
4.189800633236835 0.0 0.0
4.011851262488768 0.0 0.0
3.8297079682532984 0.0 0.0
3.6438531724243632 0.0 0.0
3.454809831235844 0.0 0.0
3.2631953714720345 0.0 0.0
3.0696406625009267 0.0 0.0
2.8748339580545585 0.0 0.0
2.6795403217492555 0.0 0.0
2.4845781331184864 0.0 0.0
2.290834127802541 0.0 0.0
2.099224923715161 0.0 0.0
1.9107008494581452 0.0 0.0
1.726224839350223 0.0 0.0
1.5467239891179023 0.0 0.0
1.3731174198298262 0.0 0.0
1.206287458285868 0.0 0.0
1.0470366624825105 0.0 0.0
0.8960994771063446 0.0 0.0
0.7541260417450576 0.0 0.0
0.6216690323411567 0.0 0.0
0.4991640841122448 0.0 0.0
0.38688153445862417 0.0 0.0
0.2848138607203812 0.0 0.0
0.19231119821878503 0.0 0.0
0.10640175836128583 0.0 0.0

SCALARS Gamma float
LOOKUP_TABLE default
0.4172776411039542
0.6413662357271974
0.824767780542174
0.989790383826161
1.1439286106350135
1.2904734064807213
1.431044287987409
1.5664588217246427
1.6971038431233774
1.8230938457034878
1.9444025181879305
2.0609060306831375
2.172425118781902
2.2787520874514486
2.3797056845102498
2.475097694003386
2.5647815333794513
2.6486589557255504
2.726710061430363
2.7989266170045726
2.8653677835671045
2.926137615591101
2.9813834552338756
3.031265118393337
3.0759021205929997
3.1157589455096533
3.150891801031746
3.1815182130088178
3.207807145013907
3.2299586285372572
3.24815796964875
3.262586069782738
3.2734409328990104
3.2808168760643794
3.284741891626489
3.285329062919021
3.282546645770841
3.27631983917299
3.266508815272549
3.252900650716253
3.2352338608042897
3.2130018941009975
3.185837551667461
3.1532449159835423
3.1148177612597507
3.070335167799659
3.0199956366756173
2.964854181199752
2.90762845966281
2.8553067988729164
2.8495681731994433
2.8898804677282497
2.934634947988623
2.977155131673918
3.014930221174614
3.0470018986601692
3.0732134166208427
3.093833681855234
3.1093445413502607
3.1202325381492177
3.126983476971567
3.129861983049519
3.129202714038054
3.1253004800894857
3.1182612030568526
3.108179421785168
3.095105859428812
3.0790316098560706
3.0599259692574634
3.037635475479643
3.0120865711768325
2.9831950127387317
2.950805010609957
2.914807190697637
2.8750275056170986
2.8313126491758176
2.7835060871799016
2.7314582104452416
2.6750212650063427
2.6140921894628053
2.5485549627482875
2.478315378025581
2.4033232723453506
2.3235610931747095
2.2390664583381756
2.149907806767615
2.0561974263710425
1.9580813724740225
1.8556937478510236
1.7491895713971244
1.638715494954667
1.5243470733215754
1.406080659601498
1.2837743930550805
1.1570603301327007
1.0251871339777054
0.8866844768492068
0.7385872580270831
0.5741721200594927
0.37346307289072195
0.4172776411039542
0.6413662357271974
0.824767780542174
0.989790383826161
1.1439286106350135
1.2904734064807213
1.431044287987409
1.5664588217246427
1.6971038431233774
1.8230938457034878
1.9444025181879305
2.0609060306831375
2.172425118781902
2.2787520874514486
2.3797056845102498
2.475097694003386
2.5647815333794513
2.6486589557255504
2.726710061430363
2.7989266170045726
2.8653677835671045
2.926137615591101
2.9813834552338756
3.031265118393337
3.0759021205929997
3.1157589455096533
3.150891801031746
3.1815182130088178
3.207807145013907
3.2299586285372572
3.24815796964875
3.262586069782738
3.2734409328990104
3.2808168760643794
3.284741891626489
3.285329062919021
3.282546645770841
3.27631983917299
3.266508815272549
3.252900650716253
3.2352338608042897
3.2130018941009975
3.185837551667461
3.1532449159835423
3.1148177612597507
3.070335167799659
3.0199956366756173
2.964854181199752
2.90762845966281
2.8553067988729164
2.8495681731994433
2.8898804677282497
2.934634947988623
2.977155131673918
3.014930221174614
3.0470018986601692
3.0732134166208427
3.093833681855234
3.1093445413502607
3.1202325381492177
3.126983476971567
3.129861983049519
3.129202714038054
3.1253004800894857
3.1182612030568526
3.108179421785168
3.095105859428812
3.0790316098560706
3.0599259692574634
3.037635475479643
3.0120865711768325
2.9831950127387317
2.950805010609957
2.914807190697637
2.8750275056170986
2.8313126491758176
2.7835060871799016
2.7314582104452416
2.6750212650063427
2.6140921894628053
2.5485549627482875
2.478315378025581
2.4033232723453506
2.3235610931747095
2.2390664583381756
2.149907806767615
2.0561974263710425
1.9580813724740225