# vtk DataFile Version 4.0
[MyVLM domain - lattices] 
ASCII
DATASET UNSTRUCTURED_GRID
POINTS 302 float
0.034182456231286316 3.1719786837758894 -5.623642942162803
0.03405815639044527 3.178352981262012 -5.624201832844362
0.033911025966592616 3.1858980680823197 -5.624863376916411
0.03374106495972834 3.1946139442368136 -5.62562757437895
0.03354827336985244 3.2045006097254927 -5.62649442523198
0.033332651196964914 3.215558064548358 -5.627463929475502
0.03309419844106578 3.227786308705409 -5.628536087109512
0.03283291510215501 3.241185342196645 -5.629710898134014
0.03254880118023264 3.2557551650220673 -5.630988362549005
0.032241856675298636 3.2714957771816757 -5.632368480354487
0.031912081587353015 3.288407178675469 -5.6338512515504595
0.03155947591639577 3.3064893695034483 -5.635436676136923
0.031184039662426916 3.325742349665613 -5.637124754113876
0.03078577282544644 3.3461661191619636 -5.63891548548132
0.030364675405454337 3.3677606779925 -5.640808870239254
0.02992074740245062 3.390526026157223 -5.642804908387678
0.029453988816435284 3.4144621636561303 -5.644903599926593
0.028964399647408316 3.439569090489224 -5.6471049448559985
0.028451979895369742 3.465846806656504 -5.649408943175894
0.02791672956031955 3.493295312157969 -5.651815594886281
0.027358648642257732 3.5219146069936196 -5.654324899987157
0.026777737141184293 3.5517046911634567 -5.656936858478524
0.026173995057099237 3.5826655646674785 -5.659651470360381
0.02554742239000255 3.6147972275056857 -5.662468735632729
0.024898019139894263 3.6480996796780794 -5.665388654295567
0.02422578530677435 3.6825729211846587 -5.668411226348896
0.02353072089064281 3.718216952025424 -5.671536451792715
0.022812825891499654 3.755031772200374 -5.674764330627024
0.02207210030934488 3.793017381709511 -5.6780948628518235
0.02130854414417848 3.8321737805528335 -5.681528048467114
0.020522157396000468 3.8725009687303418 -5.685063887472895
0.019712940064810832 3.9139989462420353 -5.688702379869166
0.018880892150609577 3.9566677130879144 -5.692443525655927
0.018026013653396702 4.000507269267979 -5.696287324833179
0.017148304573172207 4.04551761478223 -5.700233777400921
0.01624776490993609 4.091698749630666 -5.704282883359154
0.015324394663688356 4.139050673813289 -5.708434642707877
0.014378193834429 4.187573387330096 -5.71268905544709
0.013409162422158031 4.23726689018109 -5.717046121576794
0.01241730042687544 4.28813118236627 -5.721505841096988
0.011402607848581226 4.340166263885634 -5.726068214007673
0.010365084687275393 4.3933721347391845 -5.730733240308848
0.00930473094295794 4.447748794926921 -5.735500920000513
0.008221546615628862 4.503296244448844 -5.740371253082669
0.00711553170528817 4.560014483304951 -5.745344239555315
0.005986686211935856 4.617903511495245 -5.750419879418452
0.0048350101355719224 4.676963329019724 -5.755598172672079
0.00366050347619637 4.737193935878389 -5.760879119316196
0.002463166233809203 4.7985953320712404 -5.766262719350804
0.0012429984084104113 4.861167517598276 -5.771748972775903
0.0 4.924910492459499 -5.777337879591491
0.001242998408410416 4.919345639798633 -5.841082958918562
0.0024631662338092117 4.913882998717251 -5.903657210257993
0.0036605034761963886 4.908522569215356 -5.9650606336097844
0.004835010135571945 4.903264351292946 -6.025293228973935
0.005986686211935881 4.898108344950021 -6.084354996350447
0.007115531705288196 4.893054550186581 -6.142245935739317
0.008221546615628893 4.888102967002626 -6.198966047140548
0.00930473094295797 4.883253595398157 -6.254515330554138
0.010365084687275424 4.878506435373174 -6.308893785980089
0.011402607848581263 4.873861486927675 -6.362101413418399
0.01241730042687548 4.869318750061662 -6.414138212869069
0.013409162422158075 4.8648782247751345 -6.4650041843321
0.014378193834429051 4.860539911068091 -6.51469932780749
0.01532439466368841 4.856303808940534 -6.56322364329524
0.016247764909936145 4.8521699183924625 -6.61057713079535
0.017148304573172266 4.848138239423875 -6.656759790307821
0.018026013653396764 4.844208772034774 -6.70177162183265
0.018880892150609643 4.8403815162251576 -6.74561262536984
0.0197129400648109 4.836656471995027 -6.788282800919389
0.02052215739600054 4.833033639344381 -6.829782148481299
0.021308544144178557 4.8295130182732215 -6.870110668055568
0.022072100309344957 4.826094608781546 -6.909268359642197
0.02281282589149973 4.822778410869357 -6.9472552232411875
0.02353072089064289 4.819564424536653 -6.984071258852536
0.02422578530677443 4.816452649783433 -7.019716466476245
0.024898019139894347 4.813443086609699 -7.0541908461123155
0.02554742239000265 4.810535735015451 -7.087494397760744
0.026173995057099327 4.807730595000688 -7.119627121421532
0.026777737141184386 4.80502766656541 -7.150589017094682
0.027358648642257826 4.802426949709617 -7.1803800847801895
0.027916729560319646 4.79992844443331 -7.209000324478059
0.028451979895369846 4.7975321507364885 -7.236449736188288
0.028964399647408424 4.795238068619152 -7.262728319910875
0.02945398881643538 4.7930461980813 -7.287836075645824
0.029920747402450727 4.790956539122934 -7.311773003393133
0.030364675405454445 4.788969091744053 -7.334539103152802
0.030785772825446537 4.787083855944658 -7.356134374924829
0.031184039662427027 4.785300831724747 -7.376558818709216
0.03155947591639588 4.7836200190843225 -7.395812434505965
0.031912081587353126 4.7820414180233835 -7.413895222315075
0.03224185667529875 4.780565028541929 -7.430807182136541
0.03254880118023275 4.77919085063996 -7.44654831397037
0.03283291510215512 4.777918884317476 -7.461118617816558
0.03309419844106589 4.776749129574478 -7.474518093675106
0.03333265119696502 4.775681586410965 -7.486746741546011
0.03354827336985254 4.774716254826937 -7.497804561429279
0.03374106495972845 4.773853134822394 -7.507691553324907
0.033911025966592734 4.773092226397337 -7.5164077172328945
0.0340581563904454 4.7724335295517655 -7.5239530531532415
0.03418245623128644 4.771877044285679 -7.530327561085949
0.04785543872380087 2.7907856324044036 -5.9435018909759565
0.04773113888295983 2.797159929890526 -5.944060781657516
0.047584008459107166 2.804705016710834 -5.944722325729565
0.04741404745224289 2.8134208928653273 -5.945486523192105
0.047221255862366994 2.823307558354007 -5.946353374045135
0.047005633689479465 2.834365013176872 -5.947322878288655
0.04676718093358033 2.8465932573339225 -5.948395035922666
0.04650589759466957 2.859992290825159 -5.949569846947167
0.046221783672747194 2.8745621136505815 -5.950847311362159
0.045914839167813186 2.8903027258101894 -5.952227429167641
0.045585064079867565 2.907214127303983 -5.953710200363614
0.04523245840891033 2.9252963181319624 -5.955295624950077
0.04485702215494147 2.9445492982941275 -5.95698370292703
0.04445875531796099 2.964973067790478 -5.958774434294473
0.044037657897968895 2.9865676266210146 -5.960667819052407
0.04359372989496517 3.0093329747857367 -5.962663857200832
0.04312697130894984 3.0332691122846445 -5.964762548739747
0.04263738213992287 3.0583760391177384 -5.966963893669153
0.042124962387884296 3.084653755285018 -5.969267891989048
0.0415897120528341 3.1121022607864828 -5.971674543699434
0.04103163113477228 3.1407215556221337 -5.974183848800311
0.040450719633698846 3.17051163979197 -5.976795807291678
0.03984697754961379 3.2014725132959923 -5.979510419173535
0.039220404882517115 3.2336041761342003 -5.982327684445883
0.03857100163240882 3.266906628306594 -5.985247603108721
0.0378987677992889 3.3013798698131733 -5.988270175162049
0.037203703383157365 3.3370239006539375 -5.991395400605868
0.036485808384014204 3.373838720828889 -5.994623279440178
0.03574508280185943 3.411824330338025 -5.997953811664978
0.034981526636693044 3.4509807291813472 -6.001386997280268
0.03419513988851502 3.4913079173588555 -6.004922836286049
0.033385922557325386 3.532805894870549 -6.00856132868232
0.03255387464312413 3.575474661716428 -6.012302474469081
0.031698996145911255 3.619314217896493 -6.016146273646333
0.030821287065686757 3.664324563410744 -6.020092726214075
0.029920747402450647 3.7105056982591806 -6.024141832172307
0.028997377156202913 3.7578576224418025 -6.028293591521031
0.028051176326943553 3.80638033595861 -6.032548004260244
0.027082144914672583 3.8560738388096043 -6.036905070389948
0.026090282919389994 3.9069381309947833 -6.041364789910142
0.02507559034109578 3.958973212514148 -6.045927162820827
0.024038067179789947 4.012179083367699 -6.050592189122002
0.02297771343547249 4.066555743555435 -6.055359868813667
0.021894529108143417 4.122103193077358 -6.060230201895823
0.020788514197802723 4.178821431933466 -6.06520318836847
0.01965966870445041 4.236710460123759 -6.070278828231606
0.01850799262808648 4.295770277648239 -6.075457121485233
0.017333485968710923 4.356000884506903 -6.08073806812935
0.016136148726323758 4.417402280699754 -6.086121668163958
0.014915980900924967 4.479974466226791 -6.091607921589056
0.013672982492514555 4.543717441088012 -6.097196828404645
0.014915980900924969 4.538152588427146 -6.160941907731717
0.016136148726323764 4.532689947345766 -6.223516159071147
0.017333485968710944 4.52732951784387 -6.284919582422939
0.018507992628086497 4.52207129992146 -6.34515217778709
0.019659668704450434 4.516915293578535 -6.4042139451636
0.02078851419780275 4.511861498815096 -6.4621048845524705
0.02189452910814345 4.506909915631141 -6.518824995953702
0.022977713435472526 4.502060544026672 -6.5743742793672935
0.024038067179789978 4.4973133840016875 -6.628752734793243
0.02507559034109582 4.492668435556189 -6.681960362231552
0.026090282919390032 4.488125698690176 -6.733997161682224
0.02708214491467263 4.483685173403648 -6.784863133145254
0.028051176326943605 4.479346859696606 -6.834558276620644
0.02899737715620297 4.475110757569048 -6.883082592108393
0.029920747402450706 4.470976867020976 -6.930436079608504
0.03082128706568682 4.46694518805239 -6.9766187391209735
0.031698996145911325 4.463015720663288 -7.0216305706458035
0.0325538746431242 4.459188464853672 -7.065471574182993
0.033385922557325455 4.455463420623541 -7.108141749732543
[...]
CELL_DATA 200

VECTORS Vinf float
5.242045129061154 -38.11931395162095 -18.307467297160134
5.227893419011328 -38.12527853352188 -18.355460240257905
5.211599001574723 -38.13224345513197 -18.411463740240507
5.193290242163741 -38.14020592172712 -18.47544689414978
5.173124298799602 -38.14916183231369 -18.54737367638372
5.1512890257394846 -38.15910550590462 -18.62720308171539
5.1280037219863495 -38.17002943771641 -18.71488952270268
5.103518316338144 -38.18192411082803 -18.81038353456544
5.07811064253825 -38.19477788983199 -18.913632821003965
5.052081581870093 -38.208577021281435 -19.024583644085947
5.02574803950683 -38.223305760518905 -19.143182521075254
4.999433966273874 -38.238946635383094 -19.269378144285206
4.973459914814262 -38.25548084454959 -19.403123392780643
4.948131887951023 -38.27288877300149 -19.544377265664984
4.923730444849959 -38.29115059132114 -19.693106545560518
4.900501122764839 -38.310246891869426 -19.849287006546437
4.878647166378641 -38.33015930638377 -20.01290401827316
4.858325318885682 -38.35087104846611 -20.183952465640807
4.839645044698645 -38.37236733193038 -20.362435991919195
4.822671090083367 -38.39463563121534 -20.548365665954616
4.807428841058665 -38.4176657702799 -20.74175825128971
4.793911607048927 -38.44144984747706 -20.942634298876985
4.782088816444129 -38.46598202151757 -21.151016285866937
4.771914177351742 -38.49125819459857 -21.366926982604515
4.763333095771949 -38.51727563191316 -21.59038816150583
4.756288972257303 -38.544032553156526 -21.821419684560308
4.750728320646699 -38.57152772384171 -22.060038940097673
4.746604890561167 -38.59976006512708 -22.306260557014674
4.7438830892499055 -38.62872829264655 -22.560096309645278
4.742540987702083 -38.6584305888083 -22.82155513508278
4.742573084570385 -38.688864310091375 -23.090643209849524
4.743992816645392 -38.72002573243137 -23.36736406772084
4.746834561095945 -38.751909846170975 -23.65171878096941
4.751154568984049 -38.78451022998488 -23.943706270681748
4.757029884332495 -38.81781906228755 -24.24332385531737
4.764553819878583 -38.85182736742374 -24.550568185698207
4.773825985064078 -38.88652563568536 -24.86543674156203
4.784934274172694 -38.921904986711006 -25.187930067929443
4.7979258816564725 -38.957959041609634 -25.518054889152452
4.812764931728325 -38.99468659746357 -25.855828116278914
4.829577542882064 -39.031963854713474 -26.201750846646497
4.847979492614755 -39.06988668730944 -26.55520942269429
4.866978346482378 -39.10861015471107 -26.91631793011941
4.885629373592718 -39.14818952516275 -27.28516909744381
4.901017398982061 -39.18923928599719 -27.661126621988586
4.915542088154652 -39.23063720687449 -28.046243920719306
4.926813252073915 -39.27302181485592 -28.439426999277295
4.934402124341255 -39.31643904541694 -28.840675807984855
4.937808908108783 -39.3608976671254 -29.249910896984936
4.939218872397355 -39.4064009127921 -29.66720444580188
4.940434657913193 -39.63992368600872 -29.854530531666523
4.941850397479318 -40.05710296658721 -29.80845406935337
4.94097413061041 -40.46670799761089 -29.76338360755731
4.936680055178208 -40.868873807137675 -29.719330281659722
4.9285026421814 -41.263678633669876 -29.67627161071565
4.916751399798805 -41.65112281678105 -29.634159225577086
4.902340474468063 -42.03113846351779 -29.59293318985258
4.886461171598065 -42.40361923536377 -29.552536241107724
4.870263503248275 -42.768453153140584 -29.51292331351678
4.854653038356276 -43.125545935548274 -29.47406513376352
4.840222438284385 -43.47483113843861 -29.43594721582449
4.827279884853557 -43.81626984716697 -29.39856645308833
4.815922345989911 -44.14984486390797 -29.361927167550572
4.806114326365618 -44.475553504312415 -29.32603769800493
4.7977521997864185 -44.79340130424626 -29.290907919908566
4.790708953206593 -45.10339741948562 -29.256547672966832
4.7848617340324635 -45.40555164865898 -29.222965899739805
4.780106928035001 -45.69987269416871 -29.190170273169915
4.77636721312079 -45.98636725356048 -29.15816712877221
4.773593903650632 -46.26503962112783 -29.126961569074115
4.771766765925401 -46.5358915807467 -29.096557653209732
4.771040975555324 -46.79991691358586 -29.065055684511627
4.770144670209039 -47.05486119763546 -29.036982691484376
4.769715960197926 -47.30175161500422 -29.010257636140107
4.769856138874056 -47.54060393402081 -28.98483515430529
4.770670402049179 -47.77143247338252 -28.960671564373847
4.772257556469627 -47.994251079747926 -28.937725020830328
4.774699070321631 -48.20907418700076 -28.915955602549477
4.797407831863766 -48.42213512965393 -28.879403433032433
4.806939433944511 -48.62216087027029 -28.856636869812597
4.818272969834759 -48.81423304476605 -28.8348005738251
4.831462175793808 -48.998351101460706 -28.813887244418762
4.846526283976154 -49.17451710386806 -28.793890899556196
4.863437748235543 -49.34273694906623 -28.774806821516087
4.882112731633244 -49.503021363722404 -28.756631415070153
4.902405894666854 -49.65538652540495 -28.739361983901045
4.924110438481138 -49.79985420686238 -28.722996443620698
4.94696356992267 -49.93645141211088 -28.707532999795248
4.970656750217184 -50.06520954863868 -28.692969824694387
4.997243334908335 -50.18781524711858 -28.675502029159524
5.022349785408933 -50.301300771628895 -28.661958800591336
5.047295779866214 -50.40704088853697 -28.649323728473192
5.0717204338045 -50.50506963361383 -28.63760014473762
5.095287013407124 -50.595419313662894 -28.626790063166762
5.117692058648412 -50.678119571639556 -28.61689426680823
5.138671038069575 -50.75319675850043 -28.607912457261637
5.158000711292499 -50.82067360440715 -28.59984344736594
5.1754986594819385 -50.88056915417571 -28.592685378660185
5.191020609843589 -50.93289891464337 -28.58643594675931
5.204456240973506 -50.97767515405168 -28.581092620737408
5.242045129061154 -38.11931395162095 -18.307467297160134
5.227893419011328 -38.12527853352188 -18.355460240257905
5.211599001574723 -38.13224345513197 -18.411463740240507
5.193290242163741 -38.14020592172712 -18.47544689414978
5.173124298799602 -38.14916183231369 -18.54737367638372
5.1512890257394846 -38.15910550590462 -18.62720308171539
5.1280037219863495 -38.17002943771641 -18.71488952270268
5.103518316338144 -38.18192411082803 -18.81038353456544
5.07811064253825 -38.19477788983199 -18.913632821003965
5.052081581870093 -38.208577021281435 -19.024583644085947
5.02574803950683 -38.223305760518905 -19.143182521075254
4.999433966273874 -38.238946635383094 -19.269378144285206
4.973459914814262 -38.25548084454959 -19.403123392780643
4.948131887951023 -38.27288877300149 -19.544377265664984
4.923730444849959 -38.29115059132114 -19.693106545560518
4.900501122764839 -38.310246891869426 -19.849287006546437
4.878647166378641 -38.33015930638377 -20.01290401827316
4.858325318885682 -38.35087104846611 -20.183952465640807
4.839645044698645 -38.37236733193038 -20.362435991919195
4.822671090083367 -38.39463563121534 -20.548365665954616
4.807428841058665 -38.4176657702799 -20.74175825128971
4.793911607048927 -38.44144984747706 -20.942634298876985
4.782088816444129 -38.46598202151757 -21.151016285866937
4.771914177351742 -38.49125819459857 -21.366926982604515
4.763333095771949 -38.51727563191316 -21.59038816150583
4.756288972257303 -38.544032553156526 -21.821419684560308
4.750728320646699 -38.57152772384171 -22.060038940097673
4.746604890561167 -38.59976006512708 -22.306260557014674
4.7438830892499055 -38.62872829264655 -22.560096309645278
4.742540987702083 -38.6584305888083 -22.82155513508278
4.742573084570385 -38.688864310091375 -23.090643209849524
4.743992816645392 -38.72002573243137 -23.36736406772084
4.746834561095945 -38.751909846170975 -23.65171878096941
4.751154568984049 -38.78451022998488 -23.943706270681748
4.757029884332495 -38.81781906228755 -24.24332385531737
4.764553819878583 -38.85182736742374 -24.550568185698207
4.773825985064078 -38.88652563568536 -24.86543674156203
4.784934274172694 -38.921904986711006 -25.187930067929443
4.7979258816564725 -38.957959041609634 -25.518054889152452
4.812764931728325 -38.99468659746357 -25.855828116278914
4.829577542882064 -39.031963854713474 -26.201750846646497
4.847979492614755 -39.06988668730944 -26.55520942269429
4.866978346482378 -39.10861015471107 -26.91631793011941
4.885629373592718 -39.14818952516275 -27.28516909744381
4.901017398982061 -39.18923928599719 -27.661126621988586
4.915542088154652 -39.23063720687449 -28.046243920719306
4.926813252073915 -39.27302181485592 -28.439426999277295
4.934402124341255 -39.31643904541694 -28.840675807984855
4.937808908108783 -39.3608976671254 -29.249910896984936
4.939218872397355 -39.4064009127921 -29.66720444580188
4.940434657913193 -39.63992368600872 -29.854530531666523
4.941850397479318 -40.05710296658721 -29.80845406935337
4.94097413061041 -40.46670799761089 -29.76338360755731
4.936680055178208 -40.868873807137675 -29.719330281659722
4.9285026421814 -41.263678633669876 -29.67627161071565
4.916751399798805 -41.65112281678105 -29.634159225577086
4.902340474468063 -42.03113846351779 -29.59293318985258
4.886461171598065 -42.40361923536377 -29.552536241107724
4.870263503248275 -42.768453153140584 -29.51292331351678
4.854653038356276 -43.125545935548274 -29.47406513376352
4.840222438284385 -43.47483113843861 -29.43594721582449
4.827279884853557 -43.81626984716697 -29.39856645308833
4.815922345989911 -44.14984486390797 -29.361927167550572
4.806114326365618 -44.475553504312415 -29.32603769800493
4.7977521997864185 -44.79340130424626 -29.290907919908566
4.790708953206593 -45.10339741948562 -29.256547672966832
4.7848617340324635 -45.40555164865898 -29.222965899739805
4.780106928035001 -45.69987269416871 -29.190170273169915
4.77636721312079 -45.98636725356048 -29.15816712877221
4.773593903650632 -46.26503962112783 -29.126961569074115
4.771766765925401 -46.5358915807467 -29.096557653209732
4.771040975555324 -46.79991691358586 -29.065055684511627
4.770144670209039 -47.05486119763546 -29.036982691484376
4.769715960197926 -47.30175161500422 -29.010257636140107
4.769856138874056 -47.54060393402081 -28.98483515430529
4.770670402049179 -47.77143247338252 -28.960671564373847
4.772257556469627 -47.994251079747926 -28.937725020830328
4.774699070321631 -48.20907418700076 -28.915955602549477
4.797407831863766 -48.42213512965393 -28.879403433032433
4.806939433944511 -48.62216087027029 -28.856636869812597
4.818272969834759 -48.81423304476605 -28.8348005738251
4.831462175793808 -48.998351101460706 -28.813887244418762
4.846526283976154 -49.17451710386806 -28.793890899556196
4.863437748235543 -49.34273694906623 -28.774806821516087
4.882112731633244 -49.503021363722404 -28.756631415070153
4.902405894666854 -49.65538652540495 -28.739361983901045
4.924110438481138 -49.79985420686238 -28.722996443620698
4.94696356992267 -49.93645141211088 -28.707532999795248
4.970656750217184 -50.06520954863868 -28.692969824694387
4.997243334908335 -50.18781524711858 -28.675502029159524
5.022349785408933 -50.301300771628895 -28.661958800591336
5.047295779866214 -50.40704088853697 -28.649323728473192
5.0717204338045 -50.50506963361383 -28.63760014473762
5.095287013407124 -50.595419313662894 -28.626790063166762
5.117692058648412 -50.678119571639556 -28.61689426680823
5.138671038069575 -50.75319675850043 -28.607912457261637
5.158000711292499 -50.82067360440715 -28.59984344736594
5.1754986594819385 -50.88056915417571 -28.592685378660185
5.191020609843589 -50.93289891464337 -28.58643594675931
5.204456240973506 -50.97767515405168 -28.581092620737408

VECTORS L float
0.0587532952989904 0.0 0.0
0.10623636010885282 0.0 0.0
0.1577416522817833 0.0 0.0
0.21500192489572784 0.0 0.0
0.27851120147929986 0.0 0.0
0.3484287051369223 0.0 0.0
0.4247741000810507 0.0 0.0
0.5074866432670162 0.0 0.0
0.5964481884855066 0.0 0.0
0.6914886705636999 0.0 0.0
0.7923927672642225 0.0 0.0
0.8989020163902712 0.0 0.0
1.01071837801608 0.0 0.0
1.1275093076819203 0.0 0.0
1.2489145000379762 0.0 0.0
1.3745544612426683 0.0 0.0
1.5040154673026715 0.0 0.0
1.6370193959204604 0.0 0.0
1.7731622110872824 0.0 0.0
1.9120891583189281 0.0 0.0
2.0534736854407227 0.0 0.0
2.197016861171307 0.0 0.0
2.3424472036676978 0.0 0.0
2.489519662012273 0.0 0.0
2.6380134982466314 0.0 0.0
2.787725754112393 0.0 0.0
2.938491660396907 0.0 0.0
3.0901386259503747 0.0 0.0
3.2425109988135787 0.0 0.0
3.3954586193072136 0.0 0.0
3.5488291369509053 0.0 0.0
3.702451761082228 0.0 0.0
3.8561551055536194 0.0 0.0
4.0097756858114915 0.0 0.0
4.163049927489666 0.0 0.0
4.31566647279508 0.0 0.0
4.46723387231032 0.0 0.0
4.617252128181394 0.0 0.0
4.765059452229572 0.0 0.0
4.909934945850556 0.0 0.0
5.050890043526009 0.0 0.0
5.186697250812523 0.0 0.0
5.3158681257667695 0.0 0.0
5.436721652972523 0.0 0.0
5.547489506272689 0.0 0.0
5.646929078521586 0.0 0.0
5.73429051216742 0.0 0.0
5.810711784023751 0.0 0.0
5.881699981245452 0.0 0.0
5.972249996899558 0.0 0.0
6.231124388597245 0.0 0.0
6.259850624467066 0.0 0.0
6.305244054321956 0.0 0.0
6.34193662047429 0.0 0.0
6.3635081679870975 0.0 0.0
6.367891471361697 0.0 0.0
6.355015975505082 0.0 0.0
6.325771236866746 0.0 0.0
6.2814428873055155 0.0 0.0
6.223399191460128 0.0 0.0
6.152919168608013 0.0 0.0
6.071137763587171 0.0 0.0
5.979000641220041 0.0 0.0
5.877289193672377 0.0 0.0
5.766675104238314 0.0 0.0
5.647719319169341 0.0 0.0
5.520882231463978 0.0 0.0
5.386577621782908 0.0 0.0
5.245243991658572 0.0 0.0
5.09711578007586 0.0 0.0
4.942540194866908 0.0 0.0
4.781859333134372 0.0 0.0
4.6154200408356925 0.0 0.0
4.443378116276704 0.0 0.0
4.2662241344644 0.0 0.0
4.08442446283472 0.0 0.0
3.8984750102548884 0.0 0.0
3.708967047490571 0.0 0.0
3.516813521285292 0.0 0.0
3.321707521882309 0.0 0.0
3.1245673677103176 0.0 0.0
2.926163261761777 0.0 0.0
2.727266153892555 0.0 0.0
2.5287221702007696 0.0 0.0
2.331427579216457 0.0 0.0
2.1363251825747467 0.0 0.0
1.9443717238378424 0.0 0.0
1.756547190079033 0.0 0.0
1.5738200057097065 0.0 0.0
1.3971391304318634 0.0 0.0
1.227348110028572 0.0 0.0
1.0652793453644633 0.0 0.0
0.9116811904531541 0.0 0.0
0.7672150967205059 0.0 0.0
0.6324446604348448 0.0 0.0
0.5078028148668366 0.0 0.0
0.3935658659041315 0.0 0.0
0.2897258127868711 0.0 0.0
0.19562074381737568 0.0 0.0
0.10822703655331131 0.0 0.0
0.0587532952989904 0.0 0.0
0.10623636010885282 0.0 0.0
0.1577416522817833 0.0 0.0
0.21500192489572784 0.0 0.0
0.27851120147929986 0.0 0.0
0.3484287051369223 0.0 0.0
0.4247741000810507 0.0 0.0
0.5074866432670162 0.0 0.0
0.5964481884855066 0.0 0.0
0.6914886705636999 0.0 0.0
0.7923927672642225 0.0 0.0
0.8989020163902712 0.0 0.0
1.01071837801608 0.0 0.0
1.1275093076819203 0.0 0.0
1.2489145000379762 0.0 0.0
1.3745544612426683 0.0 0.0
1.5040154673026715 0.0 0.0
1.6370193959204604 0.0 0.0
1.7731622110872824 0.0 0.0
1.9120891583189281 0.0 0.0
2.0534736854407227 0.0 0.0
2.197016861171307 0.0 0.0
2.3424472036676978 0.0 0.0
2.489519662012273 0.0 0.0
2.6380134982466314 0.0 0.0
2.787725754112393 0.0 0.0
2.938491660396907 0.0 0.0
3.0901386259503747 0.0 0.0
3.2425109988135787 0.0 0.0
3.3954586193072136 0.0 0.0
3.5488291369509053 0.0 0.0
3.702451761082228 0.0 0.0
3.8561551055536194 0.0 0.0
4.0097756858114915 0.0 0.0
4.163049927489666 0.0 0.0
4.31566647279508 0.0 0.0
4.46723387231032 0.0 0.0
4.617252128181394 0.0 0.0
4.765059452229572 0.0 0.0
4.909934945850556 0.0 0.0
5.050890043526009 0.0 0.0
5.186697250812523 0.0 0.0
5.3158681257667695 0.0 0.0
5.436721652972523 0.0 0.0
5.547489506272689 0.0 0.0
5.646929078521586 0.0 0.0
5.73429051216742 0.0 0.0
5.810711784023751 0.0 0.0
5.881699981245452 0.0 0.0
5.972249996899558 0.0 0.0
6.231124388597245 0.0 0.0
6.259850624467066 0.0 0.0
6.305244054321956 0.0 0.0
6.34193662047429 0.0 0.0
6.3635081679870975 0.0 0.0
6.367891471361697 0.0 0.0
6.355015975505082 0.0 0.0
6.325771236866746 0.0 0.0
6.2814428873055155 0.0 0.0
6.223399191460128 0.0 0.0
6.152919168608013 0.0 0.0
6.071137763587171 0.0 0.0
5.979000641220041 0.0 0.0
5.877289193672377 0.0 0.0
5.766675104238314 0.0 0.0
5.647719319169341 0.0 0.0
5.520882231463978 0.0 0.0
5.386577621782908 0.0 0.0
5.245243991658572 0.0 0.0
5.09711578007586 0.0 0.0
4.942540194866908 0.0 0.0
4.781859333134372 0.0 0.0
4.6154200408356925 0.0 0.0
4.443378116276704 0.0 0.0
4.2662241344644 0.0 0.0
4.08442446283472 0.0 0.0
3.8984750102548884 0.0 0.0
3.708967047490571 0.0 0.0
3.516813521285292 0.0 0.0
3.321707521882309 0.0 0.0
3.1245673677103176 0.0 0.0
2.926163261761777 0.0 0.0
2.727266153892555 0.0 0.0
2.5287221702007696 0.0 0.0
2.331427579216457 0.0 0.0
2.1363251825747467 0.0 0.0
1.9443717238378424 0.0 0.0
1.756547190079033 0.0 0.0
1.5738200057097065 0.0 0.0
1.3971391304318634 0.0 0.0
1.227348110028572 0.0 0.0
1.0652793453644633 0.0 0.0
0.9116811904531541 0.0 0.0
0.7672150967205059 0.0 0.0
0.6324446604348448 0.0 0.0
0.5078028148668366 0.0 0.0
0.3935658659041315 0.0 0.0
0.2897258127868711 0.0 0.0
0.19562074381737568 0.0 0.0
0.10822703655331131 0.0 0.0

SCALARS Gamma float
LOOKUP_TABLE default
0.4249149321552249
0.6531108501088821
0.8398793762783029
1.0079369304007648
1.164914706132229
1.3141640225307238
1.4573337367782857
1.5952549789606483
1.7283204261371663
1.8566580671732476
1.980239631023454
2.098939016581651
2.2125737928687803
2.3209362165415977
2.4238176502332913
2.5210284022399407
2.612375801608453
2.697932781782873
2.777585144998093
2.851329259482978
2.9192209200073234
2.9813630915431246
3.037896655147356
3.0889918697422
3.1348401430285544
3.17564280164079
3.2116299930214427
3.243008030244801
3.2699874300909726
3.2927706738831355
3.3115458763166514
3.3264746427684413
3.337711242580637
3.345409439800357
3.3496374010073797
3.3504313728943647
3.347777261613208
3.3415988641852796
3.3317327750872443
3.3180108673363735
3.300129096222558
3.2776891288415824
3.250203472996473
3.217153129912494
3.178056152815676
3.1327950020808037
3.0815315604170617
3.025322309178174
2.966902677072313
2.9134967288242537
2.907567591641776
2.948571260235715
2.9940716874482187
3.0372629937868885
3.0755739025104676
3.108033405465901
3.1345025305541623
3.1552635971328113
3.1707794663148094
3.1815536505196684
3.1880496118826436
3.190663067668634
3.189696310685688
3.1853669838749505
3.1778331757898135
3.1671897390401944
3.153469803025373
3.136671046864289
3.116794819101959
3.093710555153091
3.0673345745327074
3.037562865519382
3.0042745224827945
2.9672010152765353
2.9262605450773282
2.881336841710599
2.832311213718774
2.779111111371288
2.7218895625289967
2.6598520813774833
2.5930736592146486
2.521512368703768
2.445110759731495
2.363862133625225
2.2777993551860956
2.187001721539897
2.0915736919945718
1.9916635024927016
1.8874366958972202
1.7790732829094416
1.6666598602738598
1.5502924568811647
1.4299705785178158
1.3055523214221916
1.1766691632628334
1.0425416189345105
0.9016778236231958
0.751063642226076
0.58386232217828
0.3797609437660049
0.4249149321552249
0.6531108501088821
0.8398793762783029
1.0079369304007648
1.164914706132229
1.3141640225307238
1.4573337367782857
1.5952549789606483
1.7283204261371663
1.8566580671732476
1.980239631023454
2.098939016581651
2.2125737928687803
2.3209362165415977
2.4238176502332913
2.5210284022399407
2.612375801608453
2.697932781782873
2.777585144998093
2.851329259482978
2.9192209200073234
2.9813630915431246
3.037896655147356
3.0889918697422
3.1348401430285544
3.17564280164079
3.2116299930214427
3.243008030244801
3.2699874300909726
3.2927706738831355
3.3115458763166514
3.3264746427684413
3.337711242580637
3.345409439800357
3.3496374010073797
3.3504313728943647
3.347777261613208
3.3415988641852796
3.3317327750872443
3.3180108673363735
3.300129096222558
3.2776891288415824
3.250203472996473
3.217153129912494
3.178056152815676
3.1327950020808037
3.0815315604170617
3.025322309178174
2.966902677072313
2.9134967288242537
2.907567591641776
2.948571260235715
2.9940716874482187
3.0372629937868885
3.0755739025104676
3.108033405465901
3.1345025305541623
3.1552635971328113
3.1707794663148094
3.1815536505196684
3.1880496118826436
3.190663067668634
3.189696310685688
3.1853669838749505
3.1778331757898135
3.1671897390401944
3.153469803025373
3.136671046864289
3.116794819101959
3.093710555153091
3.0673345745327074
3.037562865519382
3.0042745224827945
2.9672010152765353
2.9262605450773282