# vtk DataFile Version 4.0
[MyVLM domain - lattices] 
ASCII
DATASET UNSTRUCTURED_GRID
POINTS 302 float
0.03418245623128647 5.82907727717219 2.26799334547392
0.03405815639044543 5.830463399245432 2.2742401600888726
0.03391102596659277 5.832104115168862 2.2816343488167754
0.033741064959728485 5.83399942494248 2.2901759116576295
0.033548273369852576 5.836149328566285 2.2998648486114335
0.03333265119696505 5.838553826040277 2.3107011596781883
0.03309419844106592 5.841212917364457 2.3226848448578936
0.03283291510215515 5.844126602538824 2.3358159041505493
0.032548801180232775 5.847294881563379 2.3500943375561554
0.032241856675298775 5.850717754438121 2.3655201450747123
0.031912081587353154 5.854395221163051 2.3820933267062196
0.03155947591639591 5.858327281738168 2.399813882450677
0.031184039662427054 5.862513936163472 2.418681812308085
0.030785772825446575 5.866955184438964 2.4386971162784437
0.030364675405454473 5.871651026564643 2.459859794361753
0.029920747402450754 5.876601462540509 2.482169846558013
0.029453988816435416 5.881806492366564 2.5056272728672226
0.028964399647408448 5.887266116042805 2.530232073289384
0.028451979895369867 5.892980333569234 2.5559842478244947
0.027916729560319674 5.89894914494585 2.5828837964725566
0.02735864864225785 5.9051725501726535 2.610930719233569
0.02677773714118441 5.911650549249645 2.6401250161075316
0.026173995057099348 5.918383142176824 2.6704666870944447
0.025547422390002666 5.925370328954189 2.7019557321943086
0.02489801913989437 5.9326121095817435 2.7345921514071225
0.024225785306774453 5.940108484059484 2.7683759447328873
0.023530720890642915 5.947859452387412 2.8033071121716024
0.02281282589149975 5.955865014565528 2.839385653723268
0.022072100309344974 5.964125170593832 2.876611569387884
0.021308544144178578 5.9726399204723215 2.9149848591654512
0.020522157396000558 5.981409264201 2.9545055230559685
0.019712940064810915 5.990433201779865 2.9951735610594357
0.018880892150609657 5.999711733208918 3.036988973175854
0.01802601365339678 6.009244858488159 3.0799517594052226
0.017148304573172284 6.019032577617586 3.124061919747542
0.016247764909936162 6.029074890597201 3.1693194542028116
0.015324394663688422 6.039371797427004 3.2157243627710317
0.014378193834429067 6.049923298106994 3.2632766454522018
0.01340916242215809 6.060729392637171 3.3119763022463236
0.012417300426875494 6.071790081017536 3.3618233331533944
0.011402607848581275 6.083105363248088 3.412817738173417
0.010365084687275438 6.0946752393288275 3.46495951730639
0.00930473094295798 6.106499709259755 3.5182486705523126
0.008221546615628897 6.11857877304087 3.572685197911187
0.0071155317052882 6.130912430672172 3.6282690993830107
0.005986686211935883 6.143500682153661 3.6850003749677858
0.004835010135571943 6.156343527485338 3.7428790246655104
0.003660503476196385 6.169440966667202 3.8019050484761867
0.002463166233809214 6.182792999699254 3.8620784463998126
0.001242998408410417 6.196399626581493 3.923399218436389
0.0 6.210260847313919 3.985867364585916
0.0012429984084104141 6.272734219622522 3.9720297175336703
0.0024631662338092087 6.334060121827497 3.958446231345649
0.003660503476196383 6.394238553928844 3.9451169060218527
0.004835010135571938 6.453269515926563 3.9320417415622813
0.005986686211935872 6.511153007820656 3.919220737966935
0.007115531705288186 6.5678890296111225 3.9066538952358134
0.008221546615628883 6.6234775812979585 3.8943412133689166
0.009304730942957957 6.6779186628811695 3.882282692366245
0.01036508468727541 6.731212274360753 3.870478332227799
0.011402607848581249 6.783358415736708 3.8589281329535763
0.012417300426875465 6.834357087009036 3.8476320945435796
0.013409162422158057 6.884208288177737 3.836590216997808
0.014378193834429035 6.932912019242812 3.825802500316261
0.01532439466368839 6.980468280204256 3.815268944498939
0.016247764909936128 7.026877071062076 3.804989549545842
0.01714830457317224 7.072138391816266 3.7949643154569697
0.01802601365339674 7.116252242466831 3.7851932422323222
0.01888089215060962 7.159218623013768 3.7756763298719
0.019712940064810877 7.201037533457076 3.766413578375702
0.020522157396000513 7.241708973796758 3.7574049877437297
0.02130854414417853 7.281232944032811 3.7486505579759823
0.022072100309344925 7.3196094441652395 3.7401502890724596
0.022812825891499702 7.356838474194039 3.731904181033162
0.023530720890642856 7.392920034119212 3.7239122338580892
0.024225785306774394 7.427854123940756 3.716174447547241
0.024898019139894315 7.461640743658673 3.7086908221006176
0.025547422390002614 7.494279893272963 3.7014613575182205
0.026173995057099286 7.525771572783626 3.694486053800047
0.02677773714118435 7.556115782190661 3.687764910946099
0.027358648642257795 7.585312521494069 3.6812979289563756
0.02791672956031961 7.61336179069385 3.675085107830878
0.028451979895369805 7.640263589790004 3.669126447569604
0.028964399647408386 7.666017918782528 3.6634219481725565
0.02945398881643534 7.6906247776714265 3.657971609639732
0.02992074740245069 7.714084166456698 3.652775431971134
0.030364675405454407 7.736396085138342 3.6478334151667604
0.030785772825446495 7.757560533716357 3.6431455592266113
0.03118403966242699 7.7775775121907476 3.6387118641506877
0.03155947591639584 7.796447020561509 3.6345323299389896
0.031912081587353085 7.814169058828643 3.630606956591515
0.032241856675298705 7.830743626992148 3.626935744108266
0.032548801180232706 7.846170725052028 3.6235186924892413
0.03283291510215508 7.8604503530082805 3.6203558017344433
0.03309419844106585 7.873582510860905 3.6174470718438685
0.03333265119696498 7.885567198609902 3.6147925028175196
0.033548273369852506 7.8964044162552725 3.612392094655395
0.0337410649597284 7.906094163797014 3.6102458473574957
0.03391102596659268 7.914636441235129 3.6083537609238214
0.03405815639044535 7.922031248569617 3.606715835354372
0.034182456231286386 7.928278585800478 3.6053320706491467
0.04785543872380105 6.096444110841156 1.848311482864166
0.04773113888296 6.097830232914398 1.854558297479119
0.047584008459107346 6.099470948837828 1.8619524862070223
0.04741404745224306 6.101366258611446 1.8704940490478763
0.047221255862367154 6.103516162235251 1.8801829860016803
0.04700563368947963 6.105920659709243 1.8910192970684352
0.04676718093358049 6.108579751033423 1.90300298224814
0.04650589759466973 6.11149343620779 1.9161340415407957
0.04622178367274735 6.114661715232344 1.9304124749464018
0.045914839167813346 6.118084588107087 1.9458382824649587
0.045585064079867725 6.121762054832017 1.962411464096466
0.04523245840891049 6.125694115407134 1.9801320198409231
0.04485702215494163 6.129880769832438 1.9989999496983315
0.044458755317961146 6.134322018107929 2.0190152536686905
0.04403765789796905 6.139017860233609 2.0401779317519995
0.04359372989496533 6.143968296209475 2.0624879839482593
0.04312697130894999 6.1491733260355295 2.0859454102574695
0.042637382139923026 6.154632949711771 2.1105502106796306
0.04212496238788445 6.1603471672382 2.1363023852147416
0.041589712052834245 6.166315978614816 2.1632019338628035
0.04103163113477242 6.172539383841619 2.1912488566238153
0.04045071963369898 6.179017382918611 2.2204431534977784
0.03984697754961392 6.1857499758457895 2.2507848244846915
0.03922040488251724 6.192737162623155 2.282273869584555
0.038571001632408945 6.199978943250708 2.314910288797369
0.037898767799289024 6.207475317728449 2.348694082123134
0.03720370338315749 6.215226286056378 2.383625249561849
0.03648580838401433 6.2232318482344935 2.4197037911135144
0.03574508280185955 6.231492004262797 2.456929706778131
0.03498152663669315 6.240006754141287 2.4953029965556976
0.03419513988851513 6.248776097869966 2.534823660446215
0.0333859225573255 6.257800035448831 2.5754916984496825
0.03255387464312423 6.267078566877884 2.6173071105661005
0.03169899614591136 6.2766116921571244 2.6602698967954694
0.03082128706568685 6.286399411286552 2.7043800571377883
0.029920747402450737 6.296441724266167 2.749637591593058
0.028997377156203003 6.306738631095969 2.7960425001612785
0.02805117632694364 6.31729013177596 2.843594782842449
0.027082144914672663 6.328096226306137 2.8922944396365704
0.02609028291939007 6.339156914686502 2.9421414705436417
0.02507559034109585 6.350472196917054 2.993135875563664
0.024038067179790013 6.362042072997793 3.0452776546966365
0.022977713435472554 6.373866542928721 3.09856680794256
0.021894529108143473 6.385945606709836 3.1530033353014337
0.020788514197802775 6.398279264341137 3.2085872367732575
0.019659668704450458 6.410867515822627 3.2653185123580326
0.01850799262808652 6.423710361154304 3.3231971620557577
0.01733348596871096 6.436807800336168 3.382223185866433
0.01613614872632379 6.45015983336822 3.44239658379006
0.014915980900924991 6.463766460250459 3.5037173558266352
0.013672982492514574 6.477627680982885 3.566185501976163
0.014915980900924988 6.540101053291488 3.5523478549239167
0.016136148726323782 6.601426955496462 3.5387643687358956
0.017333485968710958 6.66160538759781 3.5254350434120996
0.018507992628086514 6.720636349595529 3.512359878952528
0.019659668704450448 6.778519841489621 3.4995388753571812
0.02078851419780276 6.8352558632800875 3.4869720326260607
0.021894529108143455 6.890844414966925 3.474659350759164
0.022977713435472533 6.9452854965501345 3.462600829756491
0.024038067179789988 6.998579108029718 3.4507964696180453
0.025075590341095823 7.050725249405673 3.4392462703438227
0.02609028291939004 7.101723920678002 3.4279502319338264
0.02708214491467263 7.151575121846703 3.4169083543880543
0.028051176326943605 7.200278852911777 3.406120637706508
0.02899737715620296 7.247835113873223 3.3955870818891856
0.029920747402450706 7.294243904731041 3.3853076869360885
0.030821287065686813 7.339505225485232 3.375282452847216
0.03169899614591132 7.383619076135796 3.3655113796225686
0.032553874643124196 7.426585456682734 3.3559944672621462
0.033385922557325455 7.468404367126042 3.3467317157659493
0.034195139888515094 7.509075807465724 3.3377231251339765
0.03498152663669311 7.548599777701778 3.3289686953662287
0.03574508280185949 7.5869762778342045 3.320468426462706
0.036485808384014266 7.624205307863005 3.3122223184234088
0.037203703383157434 7.660286867788177 3.3042303712483356
0.03789876779928897 7.695220957609722 3.2964925849374875
0.03857100163240889 7.729007577327638 3.289008959490864
0.03922040488251719 7.76164672694193 3.281779494908467
0.03984697754961387 7.793138406452592 3.2748041911902934
0.04045071963369892 7.823482615859628 3.268083048336346
0.041031631134772366 7.852679355163035 3.2616160663466225
0.041589712052834175 7.880728624362817 3.2554032452211237
0.04212496238788438 7.907630423458969 3.249444584959851
0.04263738213992296 7.933384752451495 3.2437400855628025
0.043126971308949914 7.957991611340393 3.238289747029979
0.04359372989496526 7.981451000125665 3.2330935693613805
0.04403765789796898 8.003762918807308 3.228151552557007
0.04445875531796107 8.024927367385324 3.223463696616858
0.04485702215494156 8.044944345859713 3.219030001540934
0.045232458408910416 8.063813854230474 3.2148504673292355
0.04558506407986766 8.081535892497609 3.2109250939817615
0.045914839167813276 8.098110460661115 3.2072538814985125
0.046221783672747284 8.113537558720994 3.2038368298794886
0.04650589759466966 8.127817186677246 3.2006739391246892
0.04676718093358042 8.14094934452987 3.1977652092341153
0.047005633689479555 8.152934032278868 3.195110640207766
0.04722125586236708 8.163771249924238 3.1927102320456417
0.04741404745224298 8.17346099746598 3.190563984747742
0.047584008459107256 8.182003274904094 3.188671898314068
0.04773113888295992 8.189398082238583 3.187033972744618
0.047855438723800964 8.195645419469443 3.1856502080393936
0.04437504318025188 6.0302954634605355 1.9563553558240814
0.04423932804790503 6.031808882458872 1.9631758574955087
0.04408078233254656 6.033576895307395 1.9711437332798871
0.04389940603417647 6.035599502006107 1.9802589831772162
0.043695199152794746 6.037876702555005 1.990521607187496
0.043468161688401424 6.040408496954091 2.001931605310726
0.04321829364099647 6.0431948852033655 2.0144889775469066
0.0429455950105799 6.046235867302826 2.0281937238960372
0.04265006579715171 6.049531443252475 2.0430458443581188
0.04233170600071189 6.05308161305231 2.0590453389331507
0.041990515621260466 6.056886376702334 2.0761922076211334
0.04162649465879742 6.060945734202544 2.0944864504220657
0.041239643113322746 6.065259685552942 2.1139280673359493
0.040829960984836454 6.069828230753528 2.1345170583627833
0.04039744827333855 6.0746513698043 2.1562534235025677
0.03994210497882902 6.079729102705261 2.179137162755303
0.03946393110130786 6.085061429456409 2.2031682761209885
0.038962926640775095 6.0906483500577435 2.2283467635996246
0.038439091597230704 6.096489864509266 2.2546726251912106
0.0378924259706747 6.102585972810976 2.2821458608957474
0.03732292976110706 6.108936674962874 2.3107664707132356
0.03673060296852781 6.1155419709649586 2.340534454643673
0.036115445592936946 6.122401860817231 2.3714498126870613
0.03547745763433445 6.129516344519691 2.4035125448434003
0.03481663909272035 6.1368854220723374 2.4367226511126896
0.034132989968094614 6.144509093475173 2.4710801314949298
0.03342651026045727 6.152387358728195 2.50658498599012
0.0326971999698083 6.1605202178314045 2.543237214598261
0.03194505909614771 6.168907670784801 2.5810368173193527
0.031170087639475496 6.177549717588385 2.6199837941533946
0.030372285599791667 6.186446358242157 2.660078145100387
0.02955165297709622 6.195597592746116 2.70131987016033
0.028708189771389156 6.205003421100263 2.7437089693332233
0.027841895982670464 6.214663843304597 2.787245442619067
0.026952771610940153 6.224578859359118 2.831929290017862
0.026040816656198226 6.234748469263827 2.8777605115296065
0.025106031118444682 6.245172673018723 2.924739107154302
0.024148414997679515 6.255851470623806 2.9728650768919476
0.023167968293902722 6.266784862079078 3.022138420742544
0.02216469100711432 6.277972847384536 3.072559138706091
0.02113858313731429 6.289415426540183 3.1241272307825887
0.020089644684502642 6.301112599546016 3.1768426969720363
0.019017875648679374 6.3130643664020365 3.230705537274435
0.017923276029844486 6.325270727108245 3.285715751689784
0.016805845827997976 6.337731681664641 3.341873340218084
0.015665585043139852 6.350447230071223 3.3991783028593328
0.014502493675270104 6.363417372327994 3.4576306396135337
0.013316571724388734 6.376642108434952 3.517230350480685
0.012107819190495746 6.3901214383920975 3.5779774354607854
0.01087623607359114 6.4038553621994305 3.6398718945538375
0.01087623607359114 6.442022658719945 3.6641871441024785
0.012107819190495743 6.503922295976733 3.6504765774823444
0.013316571724388727 6.564674463129895 3.6370201717264363
0.01450249367527009 6.624279160179428 3.6238179268347515
0.015665585043139838 6.682736387125334 3.6108698428072934
0.01680584582799796 6.7400461439676125 3.5981759196440595
0.017923276029844466 6.7962084307062645 3.58573615734505
0.019017875648679353 6.85122324734129 3.5735505559102654
0.020089644684502615 6.905090593872685 3.561619115339706
0.021138583137314263 6.957810470300454 3.5499418356333723
0.022164691007114292 7.0093828766245965 3.538518716791263
0.023167968293902694 7.059807812845111 3.5273497588133784
0.024148414997679477 7.109085278961998 3.5164349616997193
0.025106031118444644 7.157215274975257 3.5057743254502842
0.02604081665619819 7.204197800884891 3.495367850065075
0.02695277161094012 7.250032856690894 3.48521553554409
0.027841895982670426 7.294720442393272 3.4753173818873306
0.02870818977138911 7.338260557992023 3.465673389094796
0.029551652977096176 7.380653203487147 3.456283557166486
0.03037228559979162 7.421898378878642 3.447147886102401
0.03117008763947545 7.4619960841665085 3.4382663759025407
0.03194505909614766 7.500946319350751 3.429639026566906
0.03269719996980824 7.538749084431363 3.4212658380954957
0.03342651026045721 7.57540437940835 3.4131468104883105
0.03413298996809456 7.610912204281708 3.4052819437453494
0.034816639092720286 7.645272559051439 3.3976712378666147
0.035477457634334394 7.678485443717543 3.390314692852104
0.03611544559293689 7.710550858280018 3.3832123087018187
0.03673060296852776 7.7414688027388685 3.3763640854157573
0.03732292976110701 7.77123927709409 3.3697700229939223
0.03789242597067463 7.799862281345685 3.363430121436312
0.03843909159723064 7.827337815493651 3.3573443807429255
0.038962926640775025 7.853665879537991 3.351512800913765
0.03946393110130779 7.878846473478703 3.345935381948829
0.03994210497882894 7.9028795973157875 3.3406121238481177
0.04039744827333847 7.925765251049245 3.335543026611632
0.040829960984836385 7.947503434679074 3.3307280902393708
0.04123964311332268 7.968094148205277 3.3261673147313338
0.04162649465879735 7.9875373916278525 3.3218607000875235
0.041990515621260396 8.0058331649468 3.3178082463079366
0.04233170600071183 8.02298146816212 3.314009953392575
0.04265006579715163 8.038982301273814 3.310465821341439
0.042945595010579825 8.053835664281879 3.307175850154527
0.04321829364099639 8.067541557186317 3.3041400398318412
0.04346816168840135 8.080099979987128 3.301358390373379
0.04369519915279468 8.091510932684312 3.298830901779142
0.04389940603417638 8.101774415277868 3.29655757404913
0.044080782332546475 8.110890427767796 3.294538407183343
0.044239328047904945 8.118858970154097 3.2927734011817806
0.044375043180251796 8.125680042436771 3.291262556044444

CELLS 200 700
4 0 101 102 1
4 1 102 103 2
4 2 103 104 3
4 3 104 105 4
4 4 105 106 5
4 5 106 107 6
4 6 107 108 7
4 7 108 109 8
4 8 109 110 9
4 9 110 111 10
4 10 111 112 11
4 11 112 113 12
4 12 113 114 13
4 13 114 115 14
4 14 115 116 15
4 15 116 117 16
4 16 117 118 17
4 17 118 119 18
4 18 119 120 19
4 19 120 121 20
4 20 121 122 21
4 21 122 123 22
4 22 123 124 23
4 23 124 125 24
4 24 125 126 25
4 25 126 127 26
4 26 127 128 27
4 27 128 129 28
4 28 129 130 29
4 29 130 131 30
4 30 131 132 31
4 31 132 133 32
4 32 133 134 33
4 33 134 135 34
4 34 135 136 35
4 35 136 137 36
4 36 137 138 37
4 37 138 139 38
4 38 139 140 39
4 39 140 141 40
4 40 141 142 41
4 41 142 143 42
4 42 143 144 43
4 43 144 145 44
4 44 145 146 45
4 45 146 147 46
4 46 147 148 47
4 47 148 149 48
4 48 149 150 49
4 49 150 151 50
4 50 151 152 51
4 51 152 153 52
4 52 153 154 53
4 53 154 155 54
4 54 155 156 55
4 55 156 157 56
4 56 157 158 57
4 57 158 159 58
4 58 159 160 59
4 59 160 161 60
4 60 161 162 61
4 61 162 163 62
4 62 163 164 63
4 63 164 165 64
4 64 165 166 65
4 65 166 167 66
4 66 167 168 67
4 67 168 169 68
4 68 169 170 69
4 69 170 171 70
4 70 171 172 71
4 71 172 173 72
4 72 173 174 73
4 73 174 175 74
4 74 175 176 75
4 75 176 177 76
4 76 177 178 77
4 77 178 179 78
4 78 179 180 79
4 79 180 181 80
4 80 181 182 81
4 81 182 183 82
4 82 183 184 83
4 83 184 185 84
4 84 185 186 85
4 85 186 187 86
4 86 187 188 87
4 87 188 189 88
4 88 189 190 89
4 89 190 191 90
4 90 191 192 91
4 91 192 193 92
4 92 193 194 93
4 93 194 195 94
4 94 195 196 95
4 95 196 197 96
4 96 197 198 97
4 97 198 199 98
4 98 199 200 99
4 99 200 201 100
1 202
1 203
1 204
1 205
1 206
1 207
1 208
1 209
1 210
1 211
1 212
1 213
1 214
1 215
1 216
1 217
1 218
1 219
1 220
1 221
1 222
1 223
1 224
1 225
1 226
1 227
1 228
1 229
1 230
1 231
1 232
1 233
1 234
1 235
1 236
1 237
1 238
1 239
1 240
1 241
1 242
1 243
1 244
1 245
1 246
1 247
1 248
1 249
1 250
1 251
1 252
1 253
1 254
1 255
1 256
1 257
1 258
1 259
1 260
1 261
1 262
1 263
1 264
1 265
1 266
1 267
1 268
1 269
1 270
1 271
1 272
1 273
1 274
1 275
1 276
1 277
1 278
1 279
1 280
1 281
1 282
1 283
1 284
1 285
1 286
1 287
1 288
1 289
1 290
1 291
1 292
1 293
1 294
1 295
1 296
1 297
1 298
1 299
1 300
1 301

CELL_TYPES 200
9
9
9
9
9
9
9
9
9
9
9
9
9
9
9
9
9
9
9
9
9
9
9
9
9
9
9
9
9
9
9
9
9
9
9
9
9
9
9
9
9
9
9
9
9
9
9
9
9
9
9
9
9
9
9
9
9
9
9
9
9
9
9
9
9
9
9
9
9
9
9
9
9
9
9
9
9
9
9
9
9
9
9
9
9
9
9
9
9
9
9
9
9
9
9
9
9
9
9
9
1
1
1
1
1
1
1
1
1
1
1
1
1
1
1
1
1
1
1
1
1
1
1
1
1
1
1
1
1
1
1
1
1
1
1
1
1
1
1
1
1
1
1
1
1
1
1
1
1
1
1
1
1
1
1
1
1
1
1
1
1
1
1
1
1
1
1
1
1
1
1
1
1
1
1
1
1
1
1
1
1
1
1
1
1
1
1
1
1
1
1
1
1
1
1
1
1
1
1
1

CELL_DATA 200

VECTORS Vinf float
5.166077311140386 13.157829787884983 -40.21624774416591
5.152129070595723 13.204639977300534 -40.22830612833189
5.136068626412756 13.259264783104168 -40.24238216012466
5.118022232090285 13.321674900058397 -40.258469252583716
5.098144403773745 13.391836243102166 -40.276558910948474
5.076619776808235 13.46971011355136 -40.2966404862458
5.053663828222587 13.5552536083184 -40.318700990291816
5.029522064469 13.648420320562863 -40.34272500361103
5.004467334327567 13.749161360929767 -40.368694706158514
4.978795048181644 13.857426699147789 -40.39659005505392
4.952816270186662 13.97316678723767 -40.42638912314828
4.92684889063047 14.096334381296082 -40.45806859721975
4.901207358176418 14.226886434730794 -40.49160441600336
4.876191716022436 14.364785900241671 -40.5269725083555
4.852076890859558 14.510003260017344 -40.56414957396064
4.829103275219968 14.662517611703729 -40.60311383696418
4.809010648547234 14.824868972835686 -40.642714259544626
4.789417281438521 14.990854054839257 -40.685518222076595
4.770981775426411 15.164332073020207 -40.73004312915575
4.753893254737503 15.345325233807438 -40.77625835128427
4.738314713787931 15.533862369525071 -40.82413404617553
4.72438588046977 15.729977748313564 -40.8736411866519
4.712228009272937 15.93370969582665 -40.924751437434
4.701949646782963 16.145099229137077 -40.97743692655735
4.693652364830202 16.36418887576037 -41.03166996739924
4.685094220874296 16.589900098340646 -41.08810671432149
4.679301061941442 16.823250333118157 -41.146018723197315
4.674904544576421 17.064059382879964 -41.20563860824912
4.671872628554727 17.312338920428257 -41.266966206884696
4.670187534121117 17.568097608642127 -41.330000390143304
4.669848368920114 17.831341218813485 -41.39473866818553
4.670873451638892 18.102072877835273 -41.46117684180149
4.673302088639791 18.38029346369489 -41.52930875186021
4.677195252887873 18.666002181280042 -41.59912620038979
4.677366923422838 18.948408832803622 -41.675394427235084
4.6856021065312135 19.251960160795242 -41.747416231467014
4.695581037446846 19.562645547097368 -41.82120972926217
4.707381007669315 19.880449417409537 -41.896771965333066
4.721031478269486 20.205361455100018 -41.974104975319555
4.736474694591383 20.53737960885404 -42.0532188103929
4.753513169268173 20.876513690641996 -42.13413524194292
4.771750435087926 21.222788887609493 -42.21689165301959
4.790541807534789 21.576247660973138 -42.30154408529591
4.808984829671091 21.936947480674558 -42.388167759865844
4.821956728808043 22.305408599859074 -42.47671605586742
4.835916543971806 22.682575340777785 -42.56722059572535
4.846829398668905 23.067540982133345 -42.65975619848984
4.854260302168933 23.4602966496095 -42.754371477575845
4.858436190805563 23.860771616559763 -42.851072679229965
4.859624810606354 24.269519066396253 -42.949482262309736
4.861026320487284 24.42565653398979 -43.20480735489684
4.862787932204329 24.32652459126046 -43.61210145231092
4.862323871296777 24.2293422475343 -44.012017288624406
4.858527593574844 24.134103720919217 -44.40468562120882
4.8509403027887235 24.040778989276244 -44.79017740919251
4.839863554732455 23.94932417321644 -45.16848482279803
4.826192066617606 23.85969400990794 -45.539533218994755
4.813427362742503 23.769954473898395 -45.90385699996693
4.79701399882806 23.683782981472543 -46.260155626558344
4.781312421538783 23.599862770129207 -46.608679381750086
4.766935018227448 23.518161435399712 -46.949373878305444
4.754208822563718 23.438653457857427 -47.282213099741824
4.746301923656174 23.35479120107688 -47.6094359912507
4.73572290994214 23.277934680949215 -47.92735270600918
4.72686921169522 23.203489420878338 -48.237322735203925
4.719591428444325 23.131418987608 -48.539375627542555
4.713743702489384 23.061687507844226 -48.83354033869947
4.70919703867966 22.994259661668206 -49.11984392977683
4.709153030065644 22.921631603452784 -49.40067363387713
4.706582258956984 22.854945403692795 -49.67279394455745
4.705100933747405 22.790011294776882 -49.937276009396506
4.7046663392320065 22.726839513238716 -50.19412210739505
4.70525470035765 22.665439984516865 -50.44333263812254
4.706856702104574 22.60582243273135 -50.68490654694914
4.709473032676806 22.547996456414438 -50.91884175137601
4.713279227052791 22.49234291350312 -51.14492819728102
4.7184546288971125 22.438257301000625 -51.363449693853205
4.7250371826736695 22.385988018125673 -51.574286690685405
4.7331499191839495 22.3355403783017 -51.77742664303872
4.742913153917374 22.286920356553612 -51.97285702981465
4.754433827522194 22.240134595219924 -52.160566325074875
4.767793031637643 22.195190338100854 -52.34054516355346
4.783032901327471 22.152095285655406 -52.51278759402049
4.800144506582433 22.110857374846365 -52.67729226872768
4.819058515778205 22.071484499229253 -52.83406339986952
4.839640164191668 22.033984195157803 -52.98311133236864
4.861689481969917 21.9983633261681 -53.12445263338217
4.884946954778622 21.964627798371883 -53.2581096706003
4.909103990391856 21.932782335162244 -53.384109726754176
4.933816918136083 21.90283033090167 -53.502483760421846
4.958722870226939 21.87477379261748 -53.61326496193562
4.983455821261501 21.848613368097322 -53.716487263787506
5.007661258854548 21.82434844995867 -53.81218395006376
5.031008341130006 21.801977339268934 -53.900386476386025
5.056250736178446 21.778392114256796 -53.980614826159865
5.0772517679929905 21.760283069400604 -54.05374295028908
5.0966276219480635 21.74399145039187 -54.119472778873956
5.114187562403462 21.729519134090985 -54.177821583187026
5.1297799991261375 21.71686735625429 -54.228803202143695
5.143288188516853 21.70603687952954 -54.27242838208988
5.166077311140386 13.157829787884983 -40.21624774416591
5.152129070595723 13.204639977300534 -40.22830612833189
5.136068626412756 13.259264783104168 -40.24238216012466
5.118022232090285 13.321674900058397 -40.258469252583716
5.098144403773745 13.391836243102166 -40.276558910948474
5.076619776808235 13.46971011355136 -40.2966404862458
5.053663828222587 13.5552536083184 -40.318700990291816
5.029522064469 13.648420320562863 -40.34272500361103
5.004467334327567 13.749161360929767 -40.368694706158514
4.978795048181644 13.857426699147789 -40.39659005505392
4.952816270186662 13.97316678723767 -40.42638912314828
4.92684889063047 14.096334381296082 -40.45806859721975
4.901207358176418 14.226886434730794 -40.49160441600336
4.876191716022436 14.364785900241671 -40.5269725083555
4.852076890859558 14.510003260017344 -40.56414957396064
4.829103275219968 14.662517611703729 -40.60311383696418
4.809010648547234 14.824868972835686 -40.642714259544626
4.789417281438521 14.990854054839257 -40.685518222076595
4.770981775426411 15.164332073020207 -40.73004312915575
4.753893254737503 15.345325233807438 -40.77625835128427
4.738314713787931 15.533862369525071 -40.82413404617553
4.72438588046977 15.729977748313564 -40.8736411866519
4.712228009272937 15.93370969582665 -40.924751437434
4.701949646782963 16.145099229137077 -40.97743692655735
4.693652364830202 16.36418887576037 -41.03166996739924
4.685094220874296 16.589900098340646 -41.08810671432149
4.679301061941442 16.823250333118157 -41.146018723197315
4.674904544576421 17.064059382879964 -41.20563860824912
4.671872628554727 17.312338920428257 -41.266966206884696
4.670187534121117 17.568097608642127 -41.330000390143304
4.669848368920114 17.831341218813485 -41.39473866818553
4.670873451638892 18.102072877835273 -41.46117684180149
4.673302088639791 18.38029346369489 -41.52930875186021
4.677195252887873 18.666002181280042 -41.59912620038979
4.677366923422838 18.948408832803622 -41.675394427235084
4.6856021065312135 19.251960160795242 -41.747416231467014
4.695581037446846 19.562645547097368 -41.82120972926217
4.707381007669315 19.880449417409537 -41.896771965333066
4.721031478269486 20.205361455100018 -41.974104975319555
4.736474694591383 20.53737960885404 -42.0532188103929
4.753513169268173 20.876513690641996 -42.13413524194292
4.771750435087926 21.222788887609493 -42.21689165301959
4.790541807534789 21.576247660973138 -42.30154408529591
4.808984829671091 21.936947480674558 -42.388167759865844
4.821956728808043 22.305408599859074 -42.47671605586742
4.835916543971806 22.682575340777785 -42.56722059572535
4.846829398668905 23.067540982133345 -42.65975619848984
4.854260302168933 23.4602966496095 -42.754371477575845
4.858436190805563 23.860771616559763 -42.851072679229965
4.859624810606354 24.269519066396253 -42.949482262309736
4.861026320487284 24.42565653398979 -43.20480735489684
4.862787932204329 24.32652459126046 -43.61210145231092
4.862323871296777 24.2293422475343 -44.012017288624406
4.858527593574844 24.134103720919217 -44.40468562120882
4.8509403027887235 24.040778989276244 -44.79017740919251
4.839863554732455 23.94932417321644 -45.16848482279803
4.826192066617606 23.85969400990794 -45.539533218994755
4.813427362742503 23.769954473898395 -45.90385699996693
4.79701399882806 23.683782981472543 -46.260155626558344
4.781312421538783 23.599862770129207 -46.608679381750086
4.766935018227448 23.518161435399712 -46.949373878305444
4.754208822563718 23.438653457857427 -47.282213099741824
4.746301923656174 23.35479120107688 -47.6094359912507
4.73572290994214 23.277934680949215 -47.92735270600918
4.72686921169522 23.203489420878338 -48.237322735203925
4.719591428444325 23.131418987608 -48.539375627542555
4.713743702489384 23.061687507844226 -48.83354033869947
4.70919703867966 22.994259661668206 -49.11984392977683
4.709153030065644 22.921631603452784 -49.40067363387713
4.706582258956984 22.854945403692795 -49.67279394455745
4.705100933747405 22.790011294776882 -49.937276009396506
4.7046663392320065 22.726839513238716 -50.19412210739505
4.70525470035765 22.665439984516865 -50.44333263812254
4.706856702104574 22.60582243273135 -50.68490654694914
4.709473032676806 22.547996456414438 -50.91884175137601
4.713279227052791 22.49234291350312 -51.14492819728102
4.7184546288971125 22.438257301000625 -51.363449693853205
4.7250371826736695 22.385988018125673 -51.574286690685405
4.7331499191839495 22.3355403783017 -51.77742664303872