# vtk DataFile Version 4.0
[MyVLM domain - lattices] 
ASCII
DATASET UNSTRUCTURED_GRID
POINTS 302 float
0.034182456231286316 1.9148981224390516 -6.180487063761078
0.03405815639044527 1.9210003575395969 -6.182412356988923
0.033911025966592616 1.928223411332079 -6.184691275503516
0.03374106495972833 1.936567283816499 -6.187323819304855
0.03354827336985243 1.9460319749928547 -6.190309988392942
0.03333265119696491 1.9566174848611484 -6.193649782767776
0.03309419844106577 1.9683238134213785 -6.197343202429357
0.032832915102155004 1.9811509606735458 -6.2013902473776845
0.03254880118023263 1.9950989266176498 -6.2057909176127595
0.03224185667529863 2.0101677112536906 -6.210545213134582
0.03191208158735301 2.026357314581669 -6.215653133943151
0.03155947591639577 2.043667736601584 -6.221114680038467
0.031184039662426916 2.0620989773134357 -6.226929851420531
0.030785772825446433 2.0816510367172243 -6.233098648089342
0.030364675405454337 2.10232391481295 -6.239621070044899
0.02992074740245062 2.124117611600613 -6.246497117287205
0.02945398881643528 2.1470321270802124 -6.253726789816256
0.028964399647408316 2.171067461251749 -6.261310087632055
0.028451979895369742 2.1962236141152225 -6.269247010734602
0.027916729560319542 2.222500585670633 -6.277537559123894
0.027358648642257725 2.2498983759179803 -6.286181732799935
0.026777737141184293 2.2784169848572646 -6.295179531762723
0.026173995057099237 2.3080564124884857 -6.3045309560122575
0.02554742239000255 2.338816658811644 -6.314236005548539
0.02489801913989426 2.370697723826739 -6.324294680371568
0.024225785306774345 2.4036996075337713 -6.334706980481344
0.023530720890642808 2.43782230993274 -6.345472905877867
0.02281282589149965 2.473065831023646 -6.3565924565611365
0.022072100309344877 2.509430170806489 -6.368065632531154
0.02130854414417848 2.5469153292812687 -6.379892433787918
0.020522157396000464 2.585521306447985 -6.39207286033143
0.01971294006481083 2.625248102306639 -6.404606912161689
0.018880892150609573 2.66609571685723 -6.417494589278694
0.0180260136533967 2.7080641500997573 -6.430735891682447
0.017148304573172207 2.7511534020342214 -6.444330819372947
0.016247764909936086 2.795363472660623 -6.458279372350194
0.015324394663688354 2.8406943619789615 -6.472581550614188
0.014378193834429 2.887146069989237 -6.487237354164929
0.01340916242215803 2.9347185966914493 -6.502246783002418
0.012417300426875439 2.9834119420855982 -6.5176098371266535
0.011402607848581225 3.033226106171684 -6.5333265165376355
0.010365084687275391 3.084161088949707 -6.549396821235364
0.009304730942957938 3.136216890419667 -6.565820751219841
0.00822154661562886 3.1893935105815645 -6.582598306491065
0.0071155317052881695 3.2436909494353983 -6.599729487049037
0.005986686211935855 3.299109206981169 -6.617214292893753
0.0048350101355719224 3.3556482832188763 -6.63505272402522
0.003660503476196369 3.4133081781485215 -6.6532447804434325
0.002463166233809203 3.4720888917701034 -6.67179046214839
0.0012429984084104111 3.5319904240836215 -6.690689769140098
0.0 3.593012775089077 -6.7099427014185515
0.0012429984084104163 3.5737828712960575 -6.770972313277575
0.0024631662338092117 3.5549061698176034 -6.830880973082043
0.0036605034761963886 3.536382670653716 -6.889668680831959
0.004835010135571945 3.5182123738043933 -6.947335436527322
0.005986686211935882 3.500395279269637 -7.0038812401681305
0.007115531705288197 3.482931387049446 -7.059306091754386
0.008221546615628895 3.46582069714382 -7.113609991286088
0.009304730942957971 3.4490632095527602 -7.166792938763236
0.010365084687275426 3.432658924276266 -7.21885493418583
0.011402607848581265 3.4166078413143386 -7.269795977553871
0.012417300426875482 3.4009099606669757 -7.319616068867361
0.013409162422158076 3.385565282334179 -7.368315208126293
0.014378193834429051 3.370573806315948 -7.4158933953306745
0.015324394663688413 3.3559355326122815 -7.462350630480503
0.01624776490993615 3.341650461223182 -7.507686913575776
0.017148304573172266 3.3277185921486474 -7.551902244616497
0.018026013653396768 3.3141399253886785 -7.594996623602666
0.018880892150609646 3.3009144609432752 -7.636970050534278
0.019712940064810905 3.288042198812438 -7.677822525411338
0.020522157396000544 3.2755231389961663 -7.717554048233845
0.021308544144178557 3.2633572814944602 -7.756164619001798
0.02207210030934496 3.2515446263073198 -7.793654237715199
0.022812825891499734 3.240085173434745 -7.830022904374045
0.023530720890642894 3.228978922876736 -7.865270618978338
0.024225785306774432 3.2182258746332923 -7.899397381528075
0.02489801913989435 3.2078260287044147 -7.932403192023263
0.025547422390002655 3.1977793850901026 -7.964288050463894
0.02617399505709933 3.188085943790356 -7.995051956849974
0.026777737141184386 3.1787457048051753 -8.024694911181498
0.027358648642257833 3.16975866813456 -8.05321691345847
0.02791672956031965 3.1611248337785107 -8.080617963680888
0.028451979895369846 3.1528442017370266 -8.106898061848753
0.028964399647408424 3.1449167720101086 -8.132057207962065
0.029453988816435385 3.137342544597756 -8.156095402020823
0.029920747402450733 3.130121519499969 -8.179012644025027
0.030364675405454452 3.123253696716748 -8.200808933974677
0.03078577282544654 3.1167390762480927 -8.221484271869775
0.031184039662427034 3.1105776580940026 -8.24103865771032
0.03155947591639588 3.1047694422544785 -8.25947209149631
0.03191208158735313 3.09931442872952 -8.276784573227747
0.032241856675298754 3.094212617519127 -8.29297610290463
0.032548801180232755 3.0894640086233 -8.30804668052696
0.03283291510215513 3.085068602042038 -8.321996306094738
0.0330941984410659 3.0810263977753425 -8.33482497960796
0.033332651196965025 3.0773373958232124 -8.346532701066629
0.03354827336985255 3.0740015961856475 -8.357119470470746
0.03374106495972846 3.0710189988626486 -8.366585287820309
0.033911025966592734 3.0683896038542153 -8.374930153115319
0.0340581563904454 3.0661134111603476 -8.382154066355774
0.03418245623128644 3.064190420781046 -8.388257027541677
0.04785543872380087 1.47351072104744 -6.410258801454208
0.04773113888295983 1.4796129561479852 -6.412184094682053
0.047584008459107166 1.4868360099404678 -6.414463013196646
0.04741404745224288 1.4951798824248872 -6.417095556997985
0.04722125586236699 1.5046445736012433 -6.420081726086072
0.04700563368947946 1.515230083469537 -6.423421520460906
0.04676718093358032 1.5269364120297673 -6.427114940122487
0.04650589759466956 1.5397635592819343 -6.431161985070815
0.04622178367274719 1.553711525226038 -6.43556265530589
0.04591483916781318 1.5687803098620798 -6.440316950827712
0.04558506407986756 1.5849699131900574 -6.445424871636281
0.04523245840891033 1.6022803352099724 -6.450886417731598
0.04485702215494147 1.620711575921824 -6.456701589113662
0.04445875531796099 1.6402636353256128 -6.462870385782472
0.044037657897968895 1.6609365134213387 -6.469392807738029
0.04359372989496517 1.6827302102090016 -6.476268854980335
0.04312697130894983 1.705644725688601 -6.483498527509386
0.042637382139922866 1.7296800598601376 -6.491081825325186
0.04212496238788429 1.7548362127236112 -6.499018748427733
0.0415897120528341 1.7811131842790215 -6.507309296817025
0.04103163113477228 1.8085109745263688 -6.5159534704930655
0.040450719633698846 1.8370295834656534 -6.524951269455853
0.03984697754961379 1.8666690110968744 -6.534302693705388
0.03922040488251711 1.8974292574200327 -6.544007743241669
0.03857100163240881 1.9293103224351278 -6.554066418064698
0.0378987677992889 1.9623122061421598 -6.564478718174475
0.037203703383157365 1.9964349085411288 -6.575244643570997
0.036485808384014204 2.0316784296320347 -6.5863641942542674
0.03574508280185943 2.0680427694148777 -6.597837370224284
0.03498152663669304 2.105527927889657 -6.6096641714810485
0.03419513988851502 2.144133905056374 -6.62184459802456
0.033385922557325386 2.1838607009150275 -6.634378649854819
0.03255387464312413 2.2247083154656186 -6.647266326971823
0.031698996145911255 2.2666767487081456 -6.660507629375577
0.030821287065686757 2.30976600064261 -6.674102557066077
0.029920747402450643 2.353976071269012 -6.688051110043324
0.028997377156202913 2.3993069605873503 -6.702353288307318
0.028051176326943553 2.445758668597626 -6.71700909185806
0.027082144914672583 2.4933311952998376 -6.732018520695548
0.026090282919389994 2.542024540693987 -6.747381574819783
0.02507559034109578 2.5918387047800726 -6.763098254230766
0.024038067179789943 2.642773687558096 -6.779168558928496
0.02297771343547249 2.6948294890280557 -6.795592488912973
0.021894529108143417 2.748006109189953 -6.8123700441841955
0.020788514197802723 2.8023035480437866 -6.829501224742166
0.01965966870445041 2.8577218055895575 -6.846986030586885
0.018507992628086476 2.914260881827265 -6.864824461718349
0.017333485968710923 2.97192077675691 -6.883016518136562
0.016136148726323758 3.0307014903784912 -6.901562199841522
0.014915980900924967 3.09060302269201 -6.920461506833228
0.013672982492514555 3.1516253736974655 -6.939714439111682
0.014915980900924969 3.132395469904446 -7.000744050970705
0.016136148726323764 3.1135187684259926 -7.060652710775173
0.017333485968710944 3.0949952692621046 -7.119440418525089
0.0185079926280865 3.076824972412782 -7.177107174220452
0.019659668704450434 3.0590078778780256 -7.23365297786126
0.02078851419780275 3.0415439856578343 -7.289077829447516
0.02189452910814345 3.024433295752209 -7.343381728979218
0.022977713435472526 3.0076758081611494 -7.396564676456366
0.02403806717978998 2.9912715228846554 -7.44862667187896
0.02507559034109582 2.975220439922727 -7.499567715247003
0.02609028291939004 2.9595225592753645 -7.54938780656049
0.02708214491467263 2.9441778809425676 -7.598086945819425
0.028051176326943608 2.9291864049243364 -7.645665133023805
0.02899737715620297 2.9145481312206702 -7.692122368173633
0.029920747402450706 2.90026305983157 -7.737458651268907
0.03082128706568682 2.886331190757036 -7.781673982309627
0.031698996145911325 2.8727525239970673 -7.824768361295796
0.0325538746431242 2.859527059551664 -7.866741788227408
[...]
CELL_DATA 200

VECTORS Vinf float
5.239699001094805 -41.178174782824435 -9.616742906509533
5.225548627519436 -41.194353113212316 -9.662304271799993
5.209255872654098 -41.213236826754446 -9.715469797934878
5.190949129918094 -41.234816704162036 -9.776210112433773
5.170785578427782 -41.25908117334397 -9.844491125209844
5.148953084594663 -41.28601607269561 -9.920274218493228
5.125670949440892 -41.31560449786091 -10.003516678696213
5.101189093253829 -41.34782676826639 -10.09417241684714
5.075785330830658 -41.382660546451945 -10.192193004821906
5.0499389453065175 -41.41998282221516 -10.297793164104649
5.02400169551471 -41.45992468766948 -10.41038726253402
4.997922245838836 -41.50241516151768 -10.530211182012184
4.9720472197789505 -41.54742395215576 -10.657215579911124
4.946724132645366 -41.594919813374474 -10.791355044134164
4.92143341779759 -41.64503161415069 -10.932357317934121
4.898208570316684 -41.697402749868445 -11.080709380764107
4.87635837570065 -41.75217955657727 -11.236145214050923
4.856039102015448 -41.80934471213803 -11.398663154939669
4.8373595842868475 -41.868884660765126 -11.568269659258863
4.820383769087416 -41.93078957338771 -11.7449779748809
4.80513606967356 -41.995053063516096 -11.928806468677841
4.791608664835647 -42.06167171641759 -12.119776817753298
4.779769731360952 -42.1306445053316 -12.31791227059514
4.769571665905132 -42.201972168124975 -12.523236140865134
4.760958589591802 -42.27565660326176 -12.735770629479367
4.753872755770546 -42.35170032123914 -12.955535998931978
4.748259801563554 -42.430105964364294 -13.182550065699287
4.742883820917133 -42.510999001195025 -13.416873153021095
4.7413591809658335 -42.59410427095116 -13.657968788534632
4.7403713286897435 -42.6795870222499 -13.906667149544562
4.739937193017552 -42.76743368197237 -14.163012627478338
4.740070651344136 -42.85763097762377 -14.42705044120937
4.7434636541876385 -42.95016858431463 -14.697754467074697
4.747860563478106 -43.04514169071029 -14.975612072203894
4.7536991221162666 -43.14245721265567 -15.260846797916763
4.76109063110374 -43.242099570399354 -15.553475999684922
4.770134301802657 -43.344054649445134 -15.853518915834607
4.780903112940666 -43.44831107872225 -16.160997984312143
4.794830073436389 -43.55495306696729 -16.475082181558253
4.809330350654885 -43.663904364140556 -16.796935727791258
4.825745282348014 -43.77516395099332 -17.126151155658714
4.843680762988868 -43.88875835597801 -17.462789437157152
4.862469325944647 -44.00473555520775 -17.806930640259328
4.880535023788589 -44.123353873840706 -18.158284168039454
4.897496079513042 -44.24445296367874 -18.517452416769526
4.912008690548419 -44.36820986646383 -18.884311008128034
4.922842121339545 -44.49464748653512 -19.259155167716255
4.930342512263949 -44.62393431400095 -19.641415208758506
4.934648108614332 -44.75599729692728 -20.0311747738998
4.936061885769735 -44.890749786584244 -20.42868275292635
4.937272312824958 -45.15932086670074 -20.561068555313692
4.938682616807865 -45.55670414069921 -20.42592384524133
4.937807984774821 -45.94690663505155 -20.293398846811872
4.933522649507789 -46.33006325982672 -20.16347497779622
4.925360061859333 -46.706246180347094 -20.036112921767163
4.913627633301765 -47.07544581507973 -19.911264795668234
4.898919959893563 -47.43757091351037 -19.789046466083374
4.883062945844188 -47.79252582233269 -19.669129460911844
4.866571442267666 -48.14032466186457 -19.551375091236878
4.851155566775503 -48.48053764448524 -19.436315145689274
4.836814726758329 -48.81328965100109 -19.32368800939129
4.823874956118515 -49.13853856582354 -19.21350467455176
4.812443720819679 -49.45626649643563 -19.105778673867103
4.802489668365047 -49.76647186637057 -19.00052411668714
4.79444549716416 -50.0693470962242 -18.897083894727846
4.787390221588692 -50.36454941803682 -18.796635550905222
4.781636767113137 -50.65221756899357 -18.69875987198611
4.777069110293874 -50.93236679445971 -18.603457531927255
4.773593031849214 -51.2050099837101 -18.510728629734444
4.771131727044992 -51.47015796033854 -18.42057287848263
4.768447318205823 -51.72862544741847 -18.3306402801335
4.767578838892244 -51.97903962283005 -18.24490304483653
4.767705601916865 -52.22199021665561 -18.16164622006377
4.768880982803108 -52.457472828724704 -18.08087269227627
4.771178918178733 -52.685480955442664 -18.00258563697175
4.77469191999983 -52.90600619040502 -17.926788681775637
4.779734880985419 -53.119175526083396 -17.852401751762322
4.786450194865083 -53.32458874317076 -17.78192799951143
4.7945766442785995 -53.52252761005878 -17.71385603723267
4.806509637773703 -53.71425845808276 -17.642381412983347
4.816681395161911 -53.89686419996154 -17.58082182086343
4.829154171557607 -54.07196210869729 -17.521490269754693
4.843868390810383 -54.23954944780047 -17.46442254728755
4.860722393241272 -54.39962755103725 -17.409652992123537
4.879563759734036 -54.55220268086714 -17.357214142752984
4.900184952263638 -54.69728649958182 -17.307136394902205
4.922324146712835 -54.83489606494359 -17.259447707626162
4.945671331529489 -54.96505333546306 -17.21417339146872
4.969878945557581 -55.08778424502583 -17.171335999926935
4.994575703162873 -55.20311746617998 -17.13095533078139
5.019381915059695 -55.311083015332315 -17.093048529693707
5.0436265994334475 -55.4116210562572 -17.05825541391229
5.068394823577735 -55.50481200308696 -17.02547031826239
5.092238178334258 -55.59070416376164 -16.99525549394677
5.1148617017358005 -55.669326244964466 -16.967603423319336
5.136009475849046 -55.74070344131837 -16.942506476502203
5.15546659848905 -55.804857197966655 -16.91995715528336
5.1730584193487665 -55.861805227229894 -16.899948303301578
5.188647661440528 -55.911561724885374 -16.882473278063145
5.20213010424336 -55.954137725417326 -16.867526084788526
5.239699001094805 -41.178174782824435 -9.616742906509533
5.225548627519436 -41.194353113212316 -9.662304271799993
5.209255872654098 -41.213236826754446 -9.715469797934878
5.190949129918094 -41.234816704162036 -9.776210112433773
5.170785578427782 -41.25908117334397 -9.844491125209844
5.148953084594663 -41.28601607269561 -9.920274218493228
5.125670949440892 -41.31560449786091 -10.003516678696213
5.101189093253829 -41.34782676826639 -10.09417241684714
5.075785330830658 -41.382660546451945 -10.192193004821906
5.0499389453065175 -41.41998282221516 -10.297793164104649
5.02400169551471 -41.45992468766948 -10.41038726253402
4.997922245838836 -41.50241516151768 -10.530211182012184
4.9720472197789505 -41.54742395215576 -10.657215579911124
4.946724132645366 -41.594919813374474 -10.791355044134164
4.92143341779759 -41.64503161415069 -10.932357317934121
4.898208570316684 -41.697402749868445 -11.080709380764107
4.87635837570065 -41.75217955657727 -11.236145214050923
4.856039102015448 -41.80934471213803 -11.398663154939669
4.8373595842868475 -41.868884660765126 -11.568269659258863
4.820383769087416 -41.93078957338771 -11.7449779748809
4.80513606967356 -41.995053063516096 -11.928806468677841
4.791608664835647 -42.06167171641759 -12.119776817753298
4.779769731360952 -42.1306445053316 -12.31791227059514
4.769571665905132 -42.201972168124975 -12.523236140865134
4.760958589591802 -42.27565660326176 -12.735770629479367
4.753872755770546 -42.35170032123914 -12.955535998931978
4.748259801563554 -42.430105964364294 -13.182550065699287
4.742883820917133 -42.510999001195025 -13.416873153021095
4.7413591809658335 -42.59410427095116 -13.657968788534632
4.7403713286897435 -42.6795870222499 -13.906667149544562
4.739937193017552 -42.76743368197237 -14.163012627478338
4.740070651344136 -42.85763097762377 -14.42705044120937
4.7434636541876385 -42.95016858431463 -14.697754467074697
4.747860563478106 -43.04514169071029 -14.975612072203894
4.7536991221162666 -43.14245721265567 -15.260846797916763
4.76109063110374 -43.242099570399354 -15.553475999684922
4.770134301802657 -43.344054649445134 -15.853518915834607
4.780903112940666 -43.44831107872225 -16.160997984312143
4.794830073436389 -43.55495306696729 -16.475082181558253
4.809330350654885 -43.663904364140556 -16.796935727791258
4.825745282348014 -43.77516395099332 -17.126151155658714
4.843680762988868 -43.88875835597801 -17.462789437157152
4.862469325944647 -44.00473555520775 -17.806930640259328
4.880535023788589 -44.123353873840706 -18.158284168039454
4.897496079513042 -44.24445296367874 -18.517452416769526
4.912008690548419 -44.36820986646383 -18.884311008128034
4.922842121339545 -44.49464748653512 -19.259155167716255
4.930342512263949 -44.62393431400095 -19.641415208758506
4.934648108614332 -44.75599729692728 -20.0311747738998
4.936061885769735 -44.890749786584244 -20.42868275292635
4.937272312824958 -45.15932086670074 -20.561068555313692
4.938682616807865 -45.55670414069921 -20.42592384524133
4.937807984774821 -45.94690663505155 -20.293398846811872
4.933522649507789 -46.33006325982672 -20.16347497779622
4.925360061859333 -46.706246180347094 -20.036112921767163
4.913627633301765 -47.07544581507973 -19.911264795668234
4.898919959893563 -47.43757091351037 -19.789046466083374
4.883062945844188 -47.79252582233269 -19.669129460911844
4.866571442267666 -48.14032466186457 -19.551375091236878
4.851155566775503 -48.48053764448524 -19.436315145689274
4.836814726758329 -48.81328965100109 -19.32368800939129
4.823874956118515 -49.13853856582354 -19.21350467455176
4.812443720819679 -49.45626649643563 -19.105778673867103
4.802489668365047 -49.76647186637057 -19.00052411668714
4.79444549716416 -50.0693470962242 -18.897083894727846
4.787390221588692 -50.36454941803682 -18.796635550905222
4.781636767113137 -50.65221756899357 -18.69875987198611
4.777069110293874 -50.93236679445971 -18.603457531927255
4.773593031849214 -51.2050099837101 -18.510728629734444
4.771131727044992 -51.47015796033854 -18.42057287848263
4.768447318205823 -51.72862544741847 -18.3306402801335
4.767578838892244 -51.97903962283005 -18.24490304483653
4.767705601916865 -52.22199021665561 -18.16164622006377
4.768880982803108 -52.457472828724704 -18.08087269227627
4.771178918178733 -52.685480955442664 -18.00258563697175
4.77469191999983 -52.90600619040502 -17.926788681775637
4.779734880985419 -53.119175526083396 -17.852401751762322
4.786450194865083 -53.32458874317076 -17.78192799951143
4.7945766442785995 -53.52252761005878 -17.71385603723267
4.806509637773703 -53.71425845808276 -17.642381412983347
4.816681395161911 -53.89686419996154 -17.58082182086343
4.829154171557607 -54.07196210869729 -17.521490269754693
4.843868390810383 -54.23954944780047 -17.46442254728755
4.860722393241272 -54.39962755103725 -17.409652992123537
4.879563759734036 -54.55220268086714 -17.357214142752984
4.900184952263638 -54.69728649958182 -17.307136394902205
4.922324146712835 -54.83489606494359 -17.259447707626162
4.945671331529489 -54.96505333546306 -17.21417339146872
4.969878945557581 -55.08778424502583 -17.171335999926935
4.994575703162873 -55.20311746617998 -17.13095533078139
5.019381915059695 -55.311083015332315 -17.093048529693707
5.0436265994334475 -55.4116210562572 -17.05825541391229
5.068394823577735 -55.50481200308696 -17.02547031826239
5.092238178334258 -55.59070416376164 -16.99525549394677
5.1148617017358005 -55.669326244964466 -16.967603423319336
5.136009475849046 -55.74070344131837 -16.942506476502203
5.15546659848905 -55.804857197966655 -16.91995715528336
5.1730584193487665 -55.861805227229894 -16.899948303301578
5.188647661440528 -55.911561724885374 -16.882473278063145
5.20213010424336 -55.954137725417326 -16.867526084788526

VECTORS L float
0.058711870062000536 0.0 0.0
0.10616137644357852 0.0 0.0
0.15763021719593656 0.0 0.0
0.2148499930770528 0.0 0.0
0.2783145007733191 0.0 0.0
0.3481830502322491 0.0 0.0
0.4244755878073277 0.0 0.0
0.5071321378443824 0.0 0.0
0.5960341089852241 0.0 0.0
0.6910135366012257 0.0 0.0
0.791855740075388 0.0 0.0
0.8983002772920445 0.0 0.0
1.01004660798719 0.0 0.0
1.1267614309707632 0.0 0.0
1.2480919059662503 0.0 0.0
1.3736707158289123 0.0 0.0
1.503109911950083 0.0 0.0
1.6360296416779454 0.0 0.0
1.7720636460707606 0.0 0.0
1.9108650454931568 0.0 0.0
2.0521127526750997 0.0 0.0
2.1955076157650235 0.0 0.0
2.340779478883759 0.0 0.0
2.4876851744717974 0.0 0.0
2.636006055471075 0.0 0.0
2.7855580974461116 0.0 0.0
2.9361465178867783 0.0 0.0
3.0875858755765404 0.0 0.0
3.2398022171897227 0.0 0.0
3.392573907548329 0.0 0.0
3.5457323444264595 0.0 0.0
3.6991279049581234 0.0 0.0
3.852646273698187 0.0 0.0
4.006055760155043 0.0 0.0
4.159091537645048 0.0 0.0
4.31145839228456 0.0 0.0
4.462765705429738 0.0 0.0
4.612521544181865 0.0 0.0
4.760165509234729 0.0 0.0
4.904750611014266 0.0 0.0
5.045431132735079 0.0 0.0
5.18096605629596 0.0 0.0
5.309898432219028 0.0 0.0
5.430559089689423 0.0 0.0
5.541311495460384 0.0 0.0
5.6406643216375105 0.0 0.0
5.727918103049638 0.0 0.0
5.804290721292772 0.0 0.0
5.875349668701801 0.0 0.0
5.965874749524594 0.0 0.0
6.225703595810116 0.0 0.0
6.254451610146404 0.0 0.0
6.299826492943229 0.0 0.0
6.336493302880213 0.0 0.0
6.35801153980626 0.0 0.0
6.362404435592978 0.0 0.0
6.349604151672865 0.0 0.0
6.320425952400306 0.0 0.0
6.276162170127314 0.0 0.0
6.2182325563205865 0.0 0.0
6.147890207250886 0.0 0.0
6.066248942057552 0.0 0.0
5.9743030589682595 0.0 0.0
5.872837415538283 0.0 0.0
5.762529391641892 0.0 0.0
5.643864450922087 0.0 0.0
5.517336196486066 0.0 0.0
5.383305964891285 0.0 0.0
5.242198441271123 0.0 0.0
5.094317973586693 0.0 0.0
4.9399435032262 0.0 0.0
4.779480536180678 0.0 0.0
4.613239473804164 0.0 0.0
4.441562060473669 0.0 0.0
4.2648561157838705 0.0 0.0
4.083495434023197 0.0 0.0
3.8978877191841823 0.0 0.0
3.7085371666136475 0.0 0.0
3.5159739250439888 0.0 0.0
3.3208300928671597 0.0 0.0
3.1236278274917897 0.0 0.0
2.9251710901873778 0.0 0.0
2.7262558199116227 0.0 0.0
2.527723688713536 0.0 0.0
2.33046755436439 0.0 0.0
2.1354313166578947 0.0 0.0
1.9435481140620672 0.0 0.0
1.7557956146956686 0.0 0.0
1.5731345096366929 0.0 0.0
1.3964956923373135 0.0 0.0
1.2267621888378124 0.0 0.0
1.0647547817729286 0.0 0.0
0.9112274544673651 0.0 0.0
0.7668308711139221 0.0 0.0
0.632123211280983 0.0 0.0
0.5075432128688396 0.0 0.0
0.39336401457386294 0.0 0.0
0.2895768490662487 0.0 0.0
0.1955199564439658 0.0 0.0
0.10817107171836883 0.0 0.0
0.058711870062000536 0.0 0.0
0.10616137644357852 0.0 0.0
0.15763021719593656 0.0 0.0
0.2148499930770528 0.0 0.0
0.2783145007733191 0.0 0.0
0.3481830502322491 0.0 0.0
0.4244755878073277 0.0 0.0
0.5071321378443824 0.0 0.0
0.5960341089852241 0.0 0.0
0.6910135366012257 0.0 0.0
0.791855740075388 0.0 0.0
0.8983002772920445 0.0 0.0
1.01004660798719 0.0 0.0
1.1267614309707632 0.0 0.0
1.2480919059662503 0.0 0.0
1.3736707158289123 0.0 0.0
1.503109911950083 0.0 0.0
1.6360296416779454 0.0 0.0
1.7720636460707606 0.0 0.0
1.9108650454931568 0.0 0.0
2.0521127526750997 0.0 0.0
2.1955076157650235 0.0 0.0
2.340779478883759 0.0 0.0
2.4876851744717974 0.0 0.0
2.636006055471075 0.0 0.0
2.7855580974461116 0.0 0.0
2.9361465178867783 0.0 0.0
3.0875858755765404 0.0 0.0
3.2398022171897227 0.0 0.0
3.392573907548329 0.0 0.0
3.5457323444264595 0.0 0.0
3.6991279049581234 0.0 0.0
3.852646273698187 0.0 0.0
4.006055760155043 0.0 0.0
4.159091537645048 0.0 0.0
4.31145839228456 0.0 0.0
4.462765705429738 0.0 0.0
4.612521544181865 0.0 0.0
4.760165509234729 0.0 0.0
4.904750611014266 0.0 0.0
5.045431132735079 0.0 0.0
5.18096605629596 0.0 0.0
5.309898432219028 0.0 0.0
5.430559089689423 0.0 0.0
5.541311495460384 0.0 0.0
5.6406643216375105 0.0 0.0
5.727918103049638 0.0 0.0
5.804290721292772 0.0 0.0
5.875349668701801 0.0 0.0
5.965874749524594 0.0 0.0
6.225703595810116 0.0 0.0
6.254451610146404 0.0 0.0
6.299826492943229 0.0 0.0
6.336493302880213 0.0 0.0
6.35801153980626 0.0 0.0
6.362404435592978 0.0 0.0
6.349604151672865 0.0 0.0
6.320425952400306 0.0 0.0
6.276162170127314 0.0 0.0
6.2182325563205865 0.0 0.0
6.147890207250886 0.0 0.0
6.066248942057552 0.0 0.0
5.9743030589682595 0.0 0.0
5.872837415538283 0.0 0.0
5.762529391641892 0.0 0.0
5.643864450922087 0.0 0.0
5.517336196486066 0.0 0.0
5.383305964891285 0.0 0.0
5.242198441271123 0.0 0.0
5.094317973586693 0.0 0.0
4.9399435032262 0.0 0.0
4.779480536180678 0.0 0.0
4.613239473804164 0.0 0.0
4.441562060473669 0.0 0.0
4.2648561157838705 0.0 0.0
4.083495434023197 0.0 0.0
3.8978877191841823 0.0 0.0
3.7085371666136475 0.0 0.0
3.5159739250439888 0.0 0.0
3.3208300928671597 0.0 0.0
3.1236278274917897 0.0 0.0
2.9251710901873778 0.0 0.0
2.7262558199116227 0.0 0.0
2.527723688713536 0.0 0.0
2.33046755436439 0.0 0.0
2.1354313166578947 0.0 0.0
1.9435481140620672 0.0 0.0
1.7557956146956686 0.0 0.0
1.5731345096366929 0.0 0.0
1.3964956923373135 0.0 0.0
1.2267621888378124 0.0 0.0
1.0647547817729286 0.0 0.0
0.9112274544673651 0.0 0.0
0.7668308711139221 0.0 0.0
0.632123211280983 0.0 0.0
0.5075432128688396 0.0 0.0
0.39336401457386294 0.0 0.0
0.2895768490662487 0.0 0.0
0.1955199564439658 0.0 0.0
0.10817107171836883 0.0 0.0

SCALARS Gamma float
LOOKUP_TABLE default
0.4247249066494092
0.6528182582434136
0.8395026451414567
1.0074846519997065
1.164392477995435
1.3135764871592348
1.4566854791980028
1.5945518974565207
1.7275659902708433
1.8558604828314422
1.9794068524947146
2.098072832091326
2.2116703229182555
2.31999103006166
2.422841429886659
2.520051970483635
2.6114653941139476
2.6969833206659963
2.776563914226548
2.8502198663802454
2.9180169243757215
2.980058841822789
3.0364891374935565
3.087480993199963
3.133228697804535
3.173953948838788
3.209852354307237
3.2411195043169823
3.2680480466531265
3.2907661927390945
3.309449138339388
3.3242806994857523
3.3354636053270292
3.3430915645554244
3.3472337114434105
3.3479404270995716
3.34519766240247
3.3389403615546964
3.329063601975265
3.315254247361212
3.2973002678405847
3.274795792795446
3.2472717340660067
3.214213970670748
3.1752110947276107
3.129999968466503
3.0787733410519444
3.0226305018513235
2.9643351994476235
2.91101228273999
2.905108188132011
2.9460896492690134
2.9915572709677374
3.0347117149256975
3.0729708936413687
3.105406725832406
3.1318825112018254
3.152644902067518
3.168159738190709
3.178956484360448
3.1854864549833097
3.1881349111801924
3.187229859397976
3.182992336749977
3.175585180055135
3.16506348768657
3.1514787549966288
3.134799589035919
3.1150183385552435
3.0920448202698934
3.065755118755532
3.036075920508533
3.002887275262977
2.9660289441215633
2.9253499039697433
2.8807078841242397
2.831910460223486
2.778815138815646
2.7212712984205445
2.659178213712608
2.592321833731738
2.5206843384027176
2.4442305512871063
2.3629528845981094
2.27688401801962
2.186107591085619
2.090707239037071
1.9908294639340243
1.8866314692998802
1.7782699560637878
1.6658788135218743
1.5495423315936685
1.4292707114271266
1.304909024973722
1.1760805143317292
1.0420168609754912
0.9012224612878296
0.7506834730611517
0.5835663985334189
0.3795683020370632
0.4247249066494092
0.6528182582434136
0.8395026451414567
1.0074846519997065
1.164392477995435
1.3135764871592348
1.4566854791980028
1.5945518974565207
1.7275659902708433
1.8558604828314422
1.9794068524947146
2.098072832091326
2.2116703229182555
2.31999103006166
2.422841429886659
2.520051970483635
2.6114653941139476
2.6969833206659963
2.776563914226548
2.8502198663802454
2.9180169243757215
2.980058841822789
3.0364891374935565
3.087480993199963
3.133228697804535
3.173953948838788
3.209852354307237
3.2411195043169823
3.2680480466531265
3.2907661927390945
3.309449138339388
3.3242806994857523
3.3354636053270292
3.3430915645554244
3.3472337114434105
3.3479404270995716
3.34519766240247
3.3389403615546964
3.329063601975265
3.315254247361212
3.2973002678405847
3.274795792795446
3.2472717340660067
3.214213970670748
3.1752110947276107
3.129999968466503
3.0787733410519444
3.0226305018513235
2.9643351994476235
2.91101228273999
2.905108188132011
2.9460896492690134
2.9915572709677374
3.0347117149256975
3.0729708936413687
3.105406725832406
3.1318825112018254
3.152644902067518
3.168159738190709
3.178956484360448
3.1854864549833097
3.1881349111801924
3.187229859397976
3.182992336749977
3.175585180055135
3.16506348768657
3.1514787549966288
3.134799589035919
3.1150183385552435
3.0920448202698934
3.065755118755532
3.036075920508533
3.002887275262977
2.9660289441215633