# vtk DataFile Version 4.0
[MyVLM domain - lattices] 
ASCII
DATASET UNSTRUCTURED_GRID
POINTS 302 float
0.034182456231286504 6.293052339233135 -0.6976931050472632
0.03405815639044547 6.2971663025138 -0.6927921527560386
0.0339110259665928 6.302035891703157 -0.6869910255541805
0.03374106495972852 6.307661106801208 -0.6802897234416894
0.03354827336985262 6.3140419478079535 -0.6726882464185648
0.033332651196965095 6.321178414723391 -0.6641865944848073
0.03309419844106595 6.329070507547523 -0.6547847676404168
0.03283291510215519 6.337718226280348 -0.6444827658853933
0.03254880118023282 6.347121570921867 -0.6332805892197366
0.03224185667529881 6.357280541472079 -0.6211782376434465
0.03191208158735319 6.368195137930985 -0.6081757111565231
0.03155947591639595 6.3798653602985835 -0.594273009758967
0.03118403966242709 6.392291208574877 -0.5794701334507779
0.03078577282544661 6.4054726827598625 -0.5637670822319552
0.030364675405454507 6.419409782853542 -0.5471638561024994
0.029920747402450782 6.434102508855914 -0.5296604550624107
0.029453988816435447 6.449550860766981 -0.5112568791116889
0.02896439964740848 6.465754838586741 -0.49195312825033327
0.028451979895369902 6.482714442315194 -0.47174920247834534
0.0279167295603197 6.5004296719523404 -0.45064510179572403
0.027358648642257878 6.51890052749818 -0.42864082620246946
0.02677773714118443 6.538127008952714 -0.4057363756985819
0.026173995057099376 6.558109116315942 -0.3819317502840611
0.025547422390002694 6.578846849587862 -0.35722694995890714
0.0248980191398944 6.600340208768477 -0.33162197472312016
0.024225785306774477 6.622589193857783 -0.3051168245767
0.02353072089064294 6.6455938048557845 -0.2777114995196467
0.02281282589149978 6.669354041762479 -0.24940599955196005
0.022072100309345 6.693869904577868 -0.2202003246736406
0.0213085441441786 6.719141393301948 -0.1900944748846879
0.02052215739600058 6.745168507934723 -0.15908845018510198
0.01971294006481094 6.771951248476191 -0.12718225057488286
0.018880892150609677 6.799489614926353 -0.09437587605403064
0.0180260136533968 6.827783607285208 -0.060669326622545434
0.0171483045731723 6.856833225552756 -0.026062602280427005
0.01624776490993618 6.886638469728999 0.009444296972324628
0.01532439466368844 6.917199339813935 0.04585137113570947
0.014378193834429082 6.948515835807564 0.0831586202097272
0.013409162422158102 6.980587957709886 0.12136604419437814
0.012417300426875506 7.013415705520901 0.16047364308966217
0.011402607848581287 7.046999079240613 0.20048141689557947
0.010365084687275448 7.081338078869014 0.24138936561212987
0.00930473094295799 7.116432704406112 0.28319748923931337
0.008221546615628907 7.152282955851901 0.32590578777713025
0.0071155317052882085 7.188888833206384 0.36951426122558007
0.005986686211935889 7.226250336469561 0.4140229095846631
0.0048350101355719485 7.264367465641431 0.4594317328543792
0.0036605034761963903 7.303240220721996 0.5057407310347285
0.0024631662338092165 7.342868601711252 0.5529499041257107
0.001242998408410418 7.383252608609203 0.6010592521273261
0.0 7.424392241415846 0.6500687750395748
0.001242998408410418 7.4734172851019425 0.6089476391709233
0.0024631662338092156 7.521541868801968 0.5685817894712879
0.0036605034761963942 7.568765992515921 0.5289712259406684
0.004835010135571953 7.615089656243804 0.49011594857906504
0.0059866862119358905 7.660512859985616 0.4520159573864777
0.007115531705288208 7.705035603741356 0.4146712523629064
0.008221546615628907 7.748657887511025 0.3780818335083512
0.009304730942957985 7.791379711294624 0.34224770082281203
0.010365084687275443 7.83320107509215 0.30716885430628893
0.011402607848581282 7.874121978903607 0.27284529395878176
0.012417300426875501 7.9141424227289905 0.23927701978029078
0.013409162422158099 7.953262406568304 0.2064640317708158
0.014378193834429074 7.991481930421546 0.17440632993035687
0.015324394663688436 8.028800994288718 0.143103914258914
0.016247764909936173 8.065219598169817 0.11255678475648712
0.01714830457317229 8.100737742064846 0.08276494142307644
0.018026013653396792 8.135355425973803 0.05372838425868164
0.018880892150609674 8.16907264989669 0.025447113263302845
0.019712940064810936 8.201889413833506 -0.0020788715630599697
0.020522157396000575 8.23380571778425 -0.028849570220406462
0.02130854414417859 8.264821561748922 -0.05486498270873697
0.02207210030934499 8.294936945727525 -0.08012510902805148
0.022812825891499768 8.324151869720055 -0.10462994917834977
0.02353072089064293 8.352466333726515 -0.1283795031596322
0.024225785306774467 8.379880337746902 -0.15137377097189864
0.02489801913989439 8.40639388178122 -0.17361275261514897
0.025547422390002687 8.432006965829467 -0.1950964480893833
0.026173995057099372 8.456719589891641 -0.21582485739460158
0.02677773714118443 8.480531753967746 -0.23579798053080367
0.02735864864225787 8.503443458057777 -0.25501581749798985
0.027916729560319688 8.52545470216174 -0.2734783682961598
0.02845197989536989 8.54656548627963 -0.29118563292531385
0.028964399647408462 8.56677581041145 -0.3081376113854516
0.029453988816435427 8.586085674557197 -0.3243343036765737
0.02992074740245077 8.604495078716875 -0.33977570979867977
0.030364675405454497 8.62200402289048 -0.35446182975176965
0.030785772825446586 8.638612507078014 -0.3683926635358432
0.03118403966242708 8.654320531279478 -0.3815682111509011
0.031559475916395935 8.66912809549487 -0.3939884725969425
0.03191208158735318 8.683035199724191 -0.4056534478739684
0.032241856675298795 8.696041843967441 -0.41656313698197794
0.0325488011802328 8.70814802822462 -0.4267175399209715
0.03283291510215518 8.719353752495728 -0.4361166566909489
0.03309419844106594 8.729659016780765 -0.4447604872919104
0.033332651196965074 8.739063821079728 -0.4526490317238557
0.033548273369852596 8.747568165392623 -0.4597822899867849
0.033741064959728506 8.755172049719446 -0.46616026208069844
0.03391102596659278 8.761875474060199 -0.4717829480055957
0.03405815639044545 8.76767843841488 -0.47665034776147697
0.03418245623128649 8.77258094278349 -0.4807624613483419
0.04785543872380111 6.336422099070121 -1.1934117283422143
0.047731138882960066 6.340536062350786 -1.1885107760509896
0.04758400845910741 6.345405651540143 -1.1827096488491315
0.04741404745224312 6.351030866638195 -1.1760083467366402
0.04722125586236722 6.357411707644939 -1.168406869713516
0.047005633689479694 6.364548174560378 -1.1599052177797584
0.04676718093358056 6.372440267384509 -1.150503390935368
0.0465058975946698 6.381087986117334 -1.1402013891803444
0.046221783672747416 6.390491330758853 -1.1289992125146877
0.045914839167813415 6.400650301309065 -1.1168968609383976
0.04558506407986779 6.411564897767971 -1.1038943344514744
0.045232458408910554 6.42323512013557 -1.0899916330539183
0.044857022154941695 6.435660968411862 -1.075188756745729
0.04445875531796121 6.448842442596848 -1.0594857055269062
0.04403765789796911 6.462779542690528 -1.0428824793974507
0.04359372989496539 6.4774722686929005 -1.0253790783573618
0.043126971308950046 6.492920620603967 -1.00697550240664
0.04263738213992308 6.509124598423726 -0.9876717515452845
0.042124962387884504 6.526084202152179 -0.9674678257732965
0.04158971205283431 6.543799431789327 -0.9463637250906752
0.041031631134772484 6.562270287335167 -0.9243594494974208
0.04045071963369904 6.581496768789701 -0.9014549989935329
0.039846977549613985 6.601478876152929 -0.8776503735790122
0.0392204048825173 6.622216609424848 -0.8529455732538582
0.038571001632409 6.643709968605463 -0.8273405980180714
0.03789876779928908 6.66595895369477 -0.8008354478716511
0.037203703383157545 6.68896356469277 -0.7734301228145977
0.036485808384014384 6.7127238015994655 -0.7451246228469113
0.035745082801859604 6.737239664414854 -0.7159189479685915
0.03498152663669321 6.762511153138935 -0.6858130981796391
0.034195139888515184 6.788538267771709 -0.6548070734800531
0.033385922557325545 6.8153210083131786 -0.6229008738698341
0.03255387464312428 6.84285937476334 -0.5900944993489816
0.0316989961459114 6.871153367122194 -0.5563879499174966
0.030821287065686896 6.900202985389743 -0.521781225575378
0.029920747402450782 6.930008229565987 -0.48627432632262657
0.02899737715620305 6.960569099650921 -0.44986725215924195
0.028051176326943685 6.99188559564455 -0.4125600030852237
0.027082144914672708 7.023957717546873 -0.37435257910057307
0.026090282919390112 7.056785465357889 -0.3352449802052889
0.025075590341095893 7.090368839077598 -0.2952372063993717
0.024038067179790054 7.124707838706 -0.2543292576828212
0.022977713435472596 7.159802464243097 -0.21252113405563777
0.021894529108143507 7.195652715688887 -0.1698128355178209
0.02078851419780281 7.232258593043372 -0.12620436206937102
0.01965966870445049 7.269620096306547 -0.08169571371028805
0.018507992628086552 7.307737225478418 -0.036286890440571984
0.017333485968710993 7.34660998055898 0.010022107739777408
0.01613614872632382 7.386238361548239 0.05723128083075946
0.01491598090092502 7.426622368446188 0.10534062883237505
0.013672982492514602 7.467762001252833 0.1543501517446237
0.01491598090092502 7.51678704493893 0.11322901587597213
0.01613614872632382 7.564911628638954 0.0728631661763367
0.017333485968710996 7.612135752352908 0.03325260264571728
0.018507992628086556 7.65845941608079 -0.005602674715886158
0.019659668704450493 7.703882619822601 -0.04370266590847349
0.02078851419780281 7.748405363578343 -0.08104737093204462
0.02189452910814351 7.792027647348011 -0.11763678978659997
0.022977713435472585 7.83474947113161 -0.15347092247213912
0.024038067179790044 7.8765708349291375 -0.18854976898866216
0.025075590341095886 7.917491738740592 -0.2228733293361694
0.0260902829193901 7.957512182565976 -0.2564416035146604
0.027082144914672698 7.9966321664052895 -0.28925459152413524
0.02805117632694367 8.034851690258533 -0.3213122933645941
0.028997377156203034 8.072170754125704 -0.3526147090360372
0.02992074740245078 8.108589358006803 -0.38316183853846386
0.030821287065686893 8.144107501901832 -0.4129536818718747
0.0316989961459114 8.178725185810789 -0.4419902390362695
[...]
CELL_DATA 200

VECTORS Vvpm float
-0.5661350671131101 0.10928742796850462 -0.04535622237447446
-0.5845004008984314 0.11056270404069192 -0.04775099899228121
-0.6055573547686626 0.1119798068860416 -0.05049630849342233
-0.6290997566533644 0.113504720605617 -0.053565292403045466
-0.6548797337403185 0.11509879247197721 -0.05692584706664387
-0.6826057803354258 0.11671917609616426 -0.06054046130501938
-0.7119423664525617 0.11831951030283748 -0.06436626764250959
-0.7425116028311269 0.11985086372398389 -0.06835536917833526
-0.7738974019356711 0.12126295494631575 -0.07245549105944839
-0.8152508523711284 0.1242384363647907 -0.07671254654959449
-0.8441274227642418 0.1255065637218485 -0.0806695795355906
-0.872817923322163 0.12624893655031127 -0.08486306815369478
-0.9008354079372701 0.12635754820850048 -0.08927908341570066
-0.9269398907160733 0.12487982648879267 -0.09263834343918186
-0.9535485563230542 0.12464785995105912 -0.0962256383237575
-0.9778741055180731 0.124042625849648 -0.09955335649457273
-0.9996119034759287 0.12305847733491165 -0.10258807935414295
-1.0185254885251258 0.1216986963702894 -0.10530485971054114
-1.034449185660557 0.11997449793395835 -0.10768722786810303
-1.0472860953403542 0.11790354244318565 -0.10972663880206741
-1.0630978291069033 0.1139784749163426 -0.10766727403582779
-1.0670494329583626 0.11474905265194121 -0.10857026533163472
-1.0683325280296072 0.11453585613853715 -0.10935571463471294
-1.066965077548413 0.11327592000538741 -0.11004377212936449
-1.0630050149223873 0.11090513043780531 -0.11065996407920198
-1.0565370964638414 0.10735621927565817 -0.11123367217326245
-1.047659771658592 0.102557012477042 -0.11179649247262445
-1.033863236545023 0.08479006215271712 -0.1279945021138799
-1.029339210643779 0.08311380461320006 -0.12638456003764656
-1.0210433627471869 0.08100755972006195 -0.12438503326496447
-1.0090957270433625 0.07847106597198462 -0.12199527729307508
-0.9936010241538558 0.07550304012091257 -0.11920799480996237
-0.9746327321685351 0.0721029167971519 -0.11600713393514804
-0.938319183351338 0.06295680090067414 -0.10713524729612826
-0.9114476814716598 0.058204529554720344 -0.10240860818038791
-0.8811079003082646 0.05320121050432891 -0.09774619251678349
-0.8473532378395194 0.04802490758190078 -0.09316856533169456
-0.8192533554945975 0.03333638537085292 -0.10130464778159508
-0.7805768449741233 0.027945328133961292 -0.09520723760405099
-0.7367203377103038 0.02274355764060579 -0.08852191242344874
-0.688367888987924 0.017880371461234865 -0.08135695486868576
-0.6366868105276644 0.013511312897327784 -0.07388173948170824
-0.5833851109296314 0.00978713884896444 -0.06632264213146569
-0.5426715463301669 0.011701830652022776 -0.05098249193955552
-0.49366112896846004 0.007633852616362851 -0.043061100408704374
-0.44481714782983 0.0071737941878872976 -0.04686848889475862
-0.40588430823880817 0.005522103634799365 -0.0411448780451169
-0.37287170144256404 0.004322072529950348 -0.03624695271220653
-0.34564312268737357 0.0034585267553269637 -0.03215046606423512
-0.32322158126330647 0.0027988633052480083 -0.028743272640216564
-0.3197602387764403 0.002645018882264943 -0.028377351736289108
-0.3344978729845065 0.00044866098121334455 -0.031116686442344228
-0.35166224623826126 0.0005010607824100121 -0.03396354961505654
-0.3726480456981451 0.0004894762178655051 -0.037337988349269075
-0.3976208442645814 0.0003109158120031722 -0.04124650048325712
-0.42582757251335907 -0.00010577934512162075 -0.045588242077177314
-0.4572088394933821 -0.005228558042925874 -0.04002828096348457
-0.4907341247175711 -0.007638705679171925 -0.04503805396320047
-0.5168387227764141 -0.003441329708418173 -0.05565044919715524
-0.5488654656591277 -0.006241772235467083 -0.05928130153240077
-0.5780899553172683 -0.009086674173332155 -0.06248894793895574
-0.6039985886294396 -0.011895255132862726 -0.06521000189119161
-0.6263632504326994 -0.014597102005518319 -0.067427273312953
-0.6451278606543295 -0.017136468876636588 -0.06915574166918097
-0.6603270996681487 -0.01947357782732555 -0.07042921211480818
-0.6720391870637773 -0.021583526239317134 -0.07128988757649989
-0.6941484174140521 -0.03280291775001699 -0.06689913793608658
-0.7110134182088893 -0.03252409549759896 -0.06979133959672393
-0.7203730267366079 -0.034269540454656175 -0.07055232743130276
-0.7270730956006861 -0.035777627708442505 -0.07117953345752753
-0.7311795901547602 -0.03706666067778392 -0.0716855201306117
-0.732759278937218 -0.038154266669275703 -0.07207861362638573
-0.7318785840434061 -0.039056619425644014 -0.07236377659896392
-0.7286024171561218 -0.03978802723916524 -0.07254337122997484
-0.7229929612909398 -0.04036075406621894 -0.07261775648743932
-0.7151084988287856 -0.040784976771261416 -0.07258572456816148
-0.7050026389438272 -0.041068825050236464 -0.07244482844803053
-0.6927245532262656 -0.041218491925338954 -0.07219168344334267
-0.6988668303420422 -0.044972993323058194 -0.05876385111977838
-0.6817912444655279 -0.04377790228216969 -0.05994806358118226
-0.6662490019520166 -0.04430147598910311 -0.05756060432248167
-0.6478836155240669 -0.04437611511732691 -0.05507620423052601
-0.6269036856939377 -0.04404003760935743 -0.05250197314972373
-0.6035468776732245 -0.04333112440246944 -0.04984756209938145
-0.5780885381165634 -0.042287601468190994 -0.047125928205894674
-0.5508461034049735 -0.0409485681858313 -0.044353741740147806
-0.5157573463749022 -0.04625756879152474 -0.038687212783049645
-0.4833476308598826 -0.04575893870089304 -0.03557586808065017
-0.44986802514237284 -0.045140046771738454 -0.03241610531215036
-0.41578208961279195 -0.044418462794318964 -0.029244801603771884
-0.37862039362226463 -0.047254638013335994 -0.024118573496247235
-0.3440178043135416 -0.044946449328464984 -0.020609038799505895
-0.3103472240136577 -0.04263379250533542 -0.01721028986026874
-0.2780446554021038 -0.040355853616091314 -0.013961262865835058
-0.24749109620223472 -0.03814894830575288 -0.010896085535918103
-0.21901003934629767 -0.03604614668436457 -0.008043890869772495
-0.19286826068194782 -0.03407704792833537 -0.005428897987790366
-0.16927928785084514 -0.03226769241046475 -0.00307070963167154
-0.14840880977020504 -0.030640588192540792 -0.0009847653043240057
-0.130381263921478 -0.029214823005049302 0.0008171123960448212
-0.5661350671131101 0.10928742796850462 -0.04535622237447446
-0.5845004008984314 0.11056270404069192 -0.04775099899228121
-0.6055573547686626 0.1119798068860416 -0.05049630849342233
-0.6290997566533644 0.113504720605617 -0.053565292403045466
-0.6548797337403185 0.11509879247197721 -0.05692584706664387
-0.6826057803354258 0.11671917609616426 -0.06054046130501938
-0.7119423664525617 0.11831951030283748 -0.06436626764250959
-0.7425116028311269 0.11985086372398389 -0.06835536917833526
-0.7738974019356711 0.12126295494631575 -0.07245549105944839
-0.8152508523711284 0.1242384363647907 -0.07671254654959449
-0.8441274227642418 0.1255065637218485 -0.0806695795355906
-0.872817923322163 0.12624893655031127 -0.08486306815369478
-0.9008354079372701 0.12635754820850048 -0.08927908341570066
-0.9269398907160733 0.12487982648879267 -0.09263834343918186
-0.9535485563230542 0.12464785995105912 -0.0962256383237575
-0.9778741055180731 0.124042625849648 -0.09955335649457273
-0.9996119034759287 0.12305847733491165 -0.10258807935414295
-1.0185254885251258 0.1216986963702894 -0.10530485971054114
-1.034449185660557 0.11997449793395835 -0.10768722786810303
-1.0472860953403542 0.11790354244318565 -0.10972663880206741
-1.0630978291069033 0.1139784749163426 -0.10766727403582779
-1.0670494329583626 0.11474905265194121 -0.10857026533163472
-1.0683325280296072 0.11453585613853715 -0.10935571463471294
-1.066965077548413 0.11327592000538741 -0.11004377212936449
-1.0630050149223873 0.11090513043780531 -0.11065996407920198
-1.0565370964638414 0.10735621927565817 -0.11123367217326245
-1.047659771658592 0.102557012477042 -0.11179649247262445
-1.033863236545023 0.08479006215271712 -0.1279945021138799
-1.029339210643779 0.08311380461320006 -0.12638456003764656
-1.0210433627471869 0.08100755972006195 -0.12438503326496447
-1.0090957270433625 0.07847106597198462 -0.12199527729307508
-0.9936010241538558 0.07550304012091257 -0.11920799480996237
-0.9746327321685351 0.0721029167971519 -0.11600713393514804
-0.938319183351338 0.06295680090067414 -0.10713524729612826
-0.9114476814716598 0.058204529554720344 -0.10240860818038791
-0.8811079003082646 0.05320121050432891 -0.09774619251678349
-0.8473532378395194 0.04802490758190078 -0.09316856533169456
-0.8192533554945975 0.03333638537085292 -0.10130464778159508
-0.7805768449741233 0.027945328133961292 -0.09520723760405099
-0.7367203377103038 0.02274355764060579 -0.08852191242344874
-0.688367888987924 0.017880371461234865 -0.08135695486868576
-0.6366868105276644 0.013511312897327784 -0.07388173948170824
-0.5833851109296314 0.00978713884896444 -0.06632264213146569
-0.5426715463301669 0.011701830652022776 -0.05098249193955552
-0.49366112896846004 0.007633852616362851 -0.043061100408704374
-0.44481714782983 0.0071737941878872976 -0.04686848889475862
-0.40588430823880817 0.005522103634799365 -0.0411448780451169
-0.37287170144256404 0.004322072529950348 -0.03624695271220653
-0.34564312268737357 0.0034585267553269637 -0.03215046606423512
-0.32322158126330647 0.0027988633052480083 -0.028743272640216564
-0.3197602387764403 0.002645018882264943 -0.028377351736289108
-0.3344978729845065 0.00044866098121334455 -0.031116686442344228
-0.35166224623826126 0.0005010607824100121 -0.03396354961505654
-0.3726480456981451 0.0004894762178655051 -0.037337988349269075
-0.3976208442645814 0.0003109158120031722 -0.04124650048325712
-0.42582757251335907 -0.00010577934512162075 -0.045588242077177314
-0.4572088394933821 -0.005228558042925874 -0.04002828096348457
-0.4907341247175711 -0.007638705679171925 -0.04503805396320047
-0.5168387227764141 -0.003441329708418173 -0.05565044919715524
-0.5488654656591277 -0.006241772235467083 -0.05928130153240077
-0.5780899553172683 -0.009086674173332155 -0.06248894793895574
-0.6039985886294396 -0.011895255132862726 -0.06521000189119161
-0.6263632504326994 -0.014597102005518319 -0.067427273312953
-0.6451278606543295 -0.017136468876636588 -0.06915574166918097
-0.6603270996681487 -0.01947357782732555 -0.07042921211480818
-0.6720391870637773 -0.021583526239317134 -0.07128988757649989
-0.6941484174140521 -0.03280291775001699 -0.06689913793608658
-0.7110134182088893 -0.03252409549759896 -0.06979133959672393
-0.7203730267366079 -0.034269540454656175 -0.07055232743130276
-0.7270730956006861 -0.035777627708442505 -0.07117953345752753
-0.7311795901547602 -0.03706666067778392 -0.0716855201306117
-0.732759278937218 -0.038154266669275703 -0.07207861362638573
-0.7318785840434061 -0.039056619425644014 -0.07236377659896392
-0.7286024171561218 -0.03978802723916524 -0.07254337122997484
-0.7229929612909398 -0.04036075406621894 -0.07261775648743932
-0.7151084988287856 -0.040784976771261416 -0.07258572456816148
-0.7050026389438272 -0.041068825050236464 -0.07244482844803053
-0.6927245532262656 -0.041218491925338954 -0.07219168344334267
-0.6988668303420422 -0.044972993323058194 -0.05876385111977838
-0.6817912444655279 -0.04377790228216969 -0.05994806358118226
-0.6662490019520166 -0.04430147598910311 -0.05756060432248167
-0.6478836155240669 -0.04437611511732691 -0.05507620423052601
-0.6269036856939377 -0.04404003760935743 -0.05250197314972373
-0.6035468776732245 -0.04333112440246944 -0.04984756209938145
-0.5780885381165634 -0.042287601468190994 -0.047125928205894674
-0.5508461034049735 -0.0409485681858313 -0.044353741740147806
-0.5157573463749022 -0.04625756879152474 -0.038687212783049645
-0.4833476308598826 -0.04575893870089304 -0.03557586808065017
-0.44986802514237284 -0.045140046771738454 -0.03241610531215036
-0.41578208961279195 -0.044418462794318964 -0.029244801603771884
-0.37862039362226463 -0.047254638013335994 -0.024118573496247235
-0.3440178043135416 -0.044946449328464984 -0.020609038799505895
-0.3103472240136577 -0.04263379250533542 -0.01721028986026874
-0.2780446554021038 -0.040355853616091314 -0.013961262865835058
-0.24749109620223472 -0.03814894830575288 -0.010896085535918103
-0.21901003934629767 -0.03604614668436457 -0.008043890869772495
-0.19286826068194782 -0.03407704792833537 -0.005428897987790366
-0.16927928785084514 -0.03226769241046475 -0.00307070963167154
-0.14840880977020504 -0.030640588192540792 -0.0009847653043240057
-0.130381263921478 -0.029214823005049302 0.0008171123960448212

VECTORS Vvpm_BBp float
-0.5227246274714102 0.10696024567585917 -0.038070142340891455
-0.5393716544236381 0.10771482135627662 -0.04023981418172809
-0.5581791133781852 0.10851575630368494 -0.042691449121879985
-0.5789486148558494 0.10933373140248613 -0.045399668089046254
-0.6014477589027127 0.11013663185884376 -0.04833493829543043
-0.6254101004397178 0.11089021211430378 -0.05146364773598663
-0.6505365667705297 0.11155893032133242 -0.05474837001377898
-0.6764986216244459 0.11210694432399498 -0.05814835055325847
-0.7029433580901675 0.11249924105353266 -0.0616202286688598
-0.729500540253385 0.11270284878252065 -0.06511898738337046
-0.7557914091157693 0.11268805966040217 -0.06859909599925355
-0.7814388425252847 0.11242957224863968 -0.07201578233084054
-0.8060782424251062 0.11190745472341906 -0.07532634660423242
-0.8293683541677002 0.11110783290982525 -0.07849141238399196
-0.8510011406214714 0.11002322562425 -0.08147600612791289
-0.8707098674396716 0.10865248244187085 -0.08425036895324513
-0.8882747146769561 0.1070003220543501 -0.0867904317117822
-0.9035254970596838 0.10507651572984128 -0.08907792357727462
-0.9163414073506659 0.102894801111837 -0.09110012774790215
-0.926648033105458 0.10047163830555604 -0.09284933648354322
-0.935354554478598 0.10559823389991584 -0.08812220355624285
-0.9378940991401956 0.10449644692019647 -0.08916723935408516
-0.9384114860899883 0.10243230455886705 -0.09018853249744704
-0.9369249529159481 0.0993372238495935 -0.09120622625493952
-0.9226528180328651 0.07547461748199714 -0.11098764355339734
-0.9259134544434403 0.0744620799273063 -0.11025627889962478
-0.925858125171706 0.07310777913526084 -0.10919871592077228
-0.9225239553648449 0.0714106233826664 -0.1078136750836545
-0.9159606774715466 0.06936907109815806 -0.10609865921873442
-0.906218896716689 0.06698137098602938 -0.10404834762795159
-0.8933380178275294 0.06424635962563702 -0.10165311236063533
-0.877333784588924 0.06116486708576469 -0.0988978767435014
-0.8581861208687805 0.057741721531219245 -0.09576166202125087
-0.8226173838658248 0.04886140897007954 -0.08609813323393986
-0.7953676366406176 0.04467300492960706 -0.08249877543492494
-0.7713839044576433 0.03336007896676197 -0.08972305075168557
-0.7422525248707149 0.0287437116871215 -0.08515369952139815
-0.7085794574306892 0.024257899302127843 -0.0800992934471905
-0.6707116338242296 0.020009494074980847 -0.07461071039217414
-0.6292837252545416 0.01611465960442089 -0.06877730913442348
-0.585291912364857 0.012693159684057176 -0.06273069868023906
-0.5401193291447155 0.009861049858121576 -0.056641670593502974
-0.4954796959611589 0.00772226099059557 -0.05070863948874717
-0.4596990672713282 0.007973846500818012 -0.0480594291890903
-0.42149824877022385 0.006226459142226796 -0.0425827426062898
-0.3871984197098727 0.004883403136729272 -0.0376722291654245
-0.3574913268366549 0.003884566197042961 -0.033400851597923574
-0.33234634289242915 0.0031387861531626394 -0.029762717266408455
-0.3110973206775967 0.002543146630308954 -0.02668499610110577
-0.29271965748306705 0.0020063501860617425 -0.024057704593662514
-0.30506196380017625 0.0021964424398897256 -0.026059742262092338
-0.3191316501215428 0.000245203188637348 -0.028472389816680127
-0.3351881646637208 0.00024568522104454003 -0.030997067485123278
-0.35418892290333354 0.00022575417228568205 -0.0339301012000381
-0.3762438023525806 0.00010208923953090748 -0.037273821125690804
-0.400780514525648 -0.00018668856841699198 -0.04095245107044041
-0.42671441857170284 -0.0006684714096501994 -0.04482825935493378
-0.4527571505074817 -0.0013366615001559137 -0.04873420010162523
-0.47756409406420863 -0.004117945411985223 -0.04740605617525533
-0.5047028238709046 -0.006542779304032579 -0.05034554542069734
-0.5296611233148528 -0.009024041939470942 -0.05297081475166039
-0.5519660736047424 -0.011500530978330622 -0.055226202542509366
-0.5713871169133117 -0.013917254576770795 -0.05709089271798079
-0.5878506174766811 -0.01622870700822955 -0.058569461733647715
-0.6013731962173191 -0.018400187844943787 -0.05968254520468948
-0.612019083660335 -0.020407536869952718 -0.06045924071257366
-0.6198776273055465 -0.02223580996234115 -0.06093177959106427
-0.6364477877892638 -0.02556408178675485 -0.06062738247377546
-0.6508245054895735 -0.03148990096137675 -0.05955975132918303
-0.6566660744290872 -0.032999260937918655 -0.06010251587570586
-0.6602524669903697 -0.03432382643309655 -0.06054292040066227
-0.6616436251413467 -0.03547710527591276 -0.06088783103023044
-0.6609014467611395 -0.0364720740121604 -0.06114164402291922
-0.658089574282502 -0.03732070890381482 -0.06130683644505422
-0.6532729871441458 -0.03803371192841684 -0.06138443831213697
-0.6465175114198652 -0.03862036669028666 -0.06137441274267743
-0.6378894668945069 -0.03908848143623991 -0.06127596219317215
-0.62745578554256 -0.03944440057757377 -0.06108779967816584
-0.6225090479285658 -0.041041939372213586 -0.0514631343810824
-0.609807423704911 -0.04187612688217746 -0.04975128579585774
-0.5950915808633556 -0.04260346797617523 -0.047901748448714095
-0.5783832971986475 -0.04321903684009954 -0.04591822165476516
-0.553846113204366 -0.04176141771133163 -0.04512352215247422
-0.5345376063845606 -0.04201883234483869 -0.042412503762882844
-0.5135806001594739 -0.041945516492315885 -0.03968379729694381
-0.49124527175164934 -0.041577053031191885 -0.03695085444721757
-0.4684046710192088 -0.04451903915151161 -0.03431764391981066
-0.44244835374778474 -0.04443047387229061 -0.031774075959799586
-0.41581717822775693 -0.04423980884875061 -0.029208900695900427
-0.3888512145837269 -0.04395820529517567 -0.026649376010191787
-0.3619031666181772 -0.04359888259189086 -0.024123527420973494
-0.3353262442070831 -0.04317661105129151 -0.02165918892519586
-0.30946285686037966 -0.04270714564179662 -0.01928311848619154
-0.28463499090736255 -0.04220665291546142 -0.01702025670638837
-0.2611368295545744 -0.0416911751458329 -0.014893172081192705
-0.23922985472814567 -0.04117616359189029 -0.012921710011000167
-0.21914038178647316 -0.04067609947055927 -0.011122839444975378
-0.1872860483369452 -0.043357873268297535 -0.004662085027292511
-0.17103580608914284 -0.04255654679034568 -0.0028412120947818183
-0.1571200820740311 -0.0418494227470614 -0.00128501262164549
-0.5227246274714102 0.10696024567585917 -0.038070142340891455
-0.5393716544236381 0.10771482135627662 -0.04023981418172809
-0.5581791133781852 0.10851575630368494 -0.042691449121879985
-0.5789486148558494 0.10933373140248613 -0.045399668089046254
-0.6014477589027127 0.11013663185884376 -0.04833493829543043
-0.6254101004397178 0.11089021211430378 -0.05146364773598663
-0.6505365667705297 0.11155893032133242 -0.05474837001377898
-0.6764986216244459 0.11210694432399498 -0.05814835055325847
-0.7029433580901675 0.11249924105353266 -0.0616202286688598
-0.729500540253385 0.11270284878252065 -0.06511898738337046
-0.7557914091157693 0.11268805966040217 -0.06859909599925355
-0.7814388425252847 0.11242957224863968 -0.07201578233084054
-0.8060782424251062 0.11190745472341906 -0.07532634660423242
-0.8293683541677002 0.11110783290982525 -0.07849141238399196
-0.8510011406214714 0.11002322562425 -0.08147600612791289
-0.8707098674396716 0.10865248244187085 -0.08425036895324513
-0.8882747146769561 0.1070003220543501 -0.0867904317117822
-0.9035254970596838 0.10507651572984128 -0.08907792357727462
-0.9163414073506659 0.102894801111837 -0.09110012774790215
-0.926648033105458 0.10047163830555604 -0.09284933648354322
-0.935354554478598 0.10559823389991584 -0.08812220355624285
-0.9378940991401956 0.10449644692019647 -0.08916723935408516