# vtk DataFile Version 4.0
[MyVLM domain - lattices] 
ASCII
DATASET UNSTRUCTURED_GRID
POINTS 302 float
0.03418245623128632 1.1130739225864312 -6.378795536412949
0.034058156390445286 1.1188726510258247 -6.381500860002038
0.03391102596659262 1.125736452035719 -6.384703079760554
0.03374106495972834 1.1336653256161142 -6.388402195688493
0.033548273369852444 1.14265927176701 -6.392598207785857
0.033332651196964914 1.152718290488407 -6.397291116052646
0.03309419844106578 1.1638423817803045 -6.40248092048886
0.03283291510215502 1.1760315456427028 -6.408167621094498
0.03254880118023264 1.189285782075602 -6.414351217869561
0.032241856675298636 1.203605091079002 -6.421031710814049
0.031912081587353015 1.218989472652903 -6.428209099927962
0.031559475916395775 1.2354389267973047 -6.435883385211299
0.03118403966242692 1.252953453512207 -6.444054566664061
0.030785772825446447 1.2715330527976105 -6.452722644286247
0.030364675405454344 1.2911777246535145 -6.461887618077858
0.029920747402450626 1.3118874690799198 -6.471549488038894
0.029453988816435284 1.3336622860768257 -6.481708254169355
0.02896439964740833 1.3565021756442326 -6.492363916469241
0.02845197989536975 1.38040713778214 -6.503516474938551
0.027916729560319556 1.4053771724905482 -6.515165929577286
0.027358648642257732 1.4314122797694575 -6.527312280385446
0.026777737141184296 1.4585124596188677 -6.53995552736303
0.02617399505709924 1.4866777120387784 -6.5530956705100385
0.025547422390002558 1.5159080370291902 -6.566732709826473
0.024898019139894263 1.5462034345901026 -6.580866645312331
0.024225785306774352 1.577563904721516 -6.595497476967613
0.023530720890642814 1.60998944742343 -6.610625204792322
0.022812825891499657 1.6434800626958452 -6.626249828786455
0.022072100309344884 1.678035750538761 -6.642371348950012
0.021308544144178487 1.7136565109521773 -6.6589897652829935
0.020522157396000468 1.750342343936095 -6.6761050777854
0.019712940064810835 1.7880932494905137 -6.693717286457232
0.01888089215060958 1.8269092276154328 -6.711826391298487
0.018026013653396702 1.8667902783108523 -6.73043239230917
0.01714830457317221 1.9077364015767733 -6.749535289489274
0.016247764909936093 1.949747597413195 -6.7691350828388055
0.015324394663688356 1.9928238658201178 -6.789231772357758
0.014378193834429004 2.036965206797541 -6.809825358046139
0.013409162422158031 2.082171620345465 -6.830915839903944
0.01241730042687544 2.12844310646389 -6.852503217931172
0.011402607848581226 2.175779665152816 -6.8745874921278265
0.010365084687275393 2.224181296412242 -6.897168662493905
0.009304730942957942 2.2736480002421695 -6.920246729029408
0.008221546615628864 2.3241797766425982 -6.943821691734337
0.00711553170528817 2.3757766256135273 -6.967893550608688
0.005986686211935857 2.428438547154957 -6.992462305652466
0.004835010135571923 2.482165541266888 -7.017527956865668
0.00366050347619637 2.53695760794932 -7.043090504248294
0.002463166233809204 2.592814747202252 -7.069149947800347
0.0012429984084104113 2.6497369590256854 -7.095706287521823
0.0 2.7077242434196194 -7.122759523412722
0.0012429984084104157 2.680692891270699 -7.180757012363132
0.002463166233809211 2.654158033344922 -7.2376892413124105
0.0036605034761963873 2.6281196696422886 -7.29355621026056
0.004835010135571942 2.602577800162799 -7.348357919207578
0.005986686211935878 2.577532424906452 -7.402094368153468
0.007115531705288193 2.552983543873249 -7.454765557098226
0.00822154661562889 2.528931157063189 -7.506371486041856
0.009304730942957966 2.505375264476273 -7.556912154984355
0.010365084687275422 2.4823158661125 -7.606387563925724
0.01140260784858126 2.4597529619718705 -7.654797712865963
0.012417300426875477 2.4376865520543847 -7.702142601805073
0.01340916242215807 2.416116636360042 -7.748422230743051
0.014378193834429046 2.395043214888843 -7.7936365996799015
0.015324394663688404 2.3744662876407876 -7.837785708615621
0.01624776490993614 2.354385854615875 -7.88086955755021
0.017148304573172256 2.3348019158141065 -7.922888146483668
0.018026013653396757 2.315714471235481 -7.9638414754159985
0.018880892150609636 2.297123520879999 -8.003729544347198
0.019712940064810894 2.2790290647476605 -8.042552353277268
0.020522157396000534 2.2614311028384657 -8.080309902206208
0.02130854414417855 2.244329635152414 -8.117002191134016
0.022072100309344946 2.2277246616895057 -8.152629220060696
0.022812825891499723 2.211616182449741 -8.187190988986247
0.02353072089064288 2.19600419743312 -8.220687497910667
0.024225785306774418 2.180888706639642 -8.253118746833955
0.02489801913989434 2.166269710069307 -8.284484735756116
0.025547422390002638 2.152147207722116 -8.314785464677147
0.026173995057099313 2.1385211995980686 -8.344020933597045
0.026777737141184376 2.1253916856971644 -8.372191142515817
0.027358648642257823 2.112758666019404 -8.399296091433456
0.027916729560319632 2.1006221405647865 -8.425335780349966
0.028451979895369833 2.0889821093333127 -8.450310209265346
0.028964399647408406 2.0778385723249824 -8.474219378179596
0.02945398881643537 2.0671915295397953 -8.497063287092717
0.029920747402450716 2.0570409809777517 -8.518841936004707
0.030364675405454435 2.0473869266388514 -8.539555324915568
0.030785772825446523 2.038229366523095 -8.559203453825297
0.03118403966242701 2.0295683006304817 -8.577786322733898
0.03155947591639587 2.021403728961012 -8.595303931641368
0.03191208158735312 2.0137356515146854 -8.61175628054771
0.03224185667529873 2.0065640682915022 -8.62714336945292
0.032548801180232734 1.999888979291463 -8.641465198357
0.032832915102155115 1.9937103845145672 -8.65472176725995
0.03309419844106588 1.988028283960814 -8.666913076161771
0.033332651196965005 1.9828426776302053 -8.678039125062462
0.033548273369852534 1.9781535655227398 -8.688099913962022
0.03374106495972844 1.973960947638417 -8.697095442860453
0.03391102596659271 1.9702648239772382 -8.705025711757754
0.034058156390445384 1.9670651945392026 -8.711890720653924
0.03418245623128642 1.9643620593243107 -8.717690469548966
0.047855438723800874 0.6454714216007318 -6.548988928240242
0.04773113888295984 0.6512701500401255 -6.551694251829333
0.04758400845910718 0.6581339510500195 -6.554896471587848
0.04741404745224289 0.6660628246304148 -6.558595587515787
0.047221255862366994 0.6750567707813104 -6.56279159961315
0.04700563368947947 0.6851157895027074 -6.567484507879939
0.04676718093358033 0.6962398807946046 -6.572674312316153
0.04650589759466957 0.7084290446570034 -6.578361012921791
0.046221783672747194 0.7216832810899025 -6.584544609696855
0.04591483916781319 0.7360025900933025 -6.591225102641342
0.045585064079867565 0.7513869716672035 -6.598402491755255
0.04523245840891033 0.767836425811605 -6.606076777038592
0.04485702215494147 0.7853509525265077 -6.6142479584913545
0.04445875531796099 0.8039305518119111 -6.62291603611354
0.0440376578979689 0.8235752236678151 -6.632081009905153
0.04359372989496518 0.8442849680942204 -6.641742879866188
0.043126971308949845 0.866059785091126 -6.65190164599665
0.04263738213992288 0.8888996746585328 -6.662557308296535
0.0421249623878843 0.9128046367964404 -6.6737098667658445
0.041589712052834106 0.9377746715048487 -6.685359321404579
0.04103163113477229 0.9638097787837581 -6.697505672212739
0.040450719633698846 0.990909958633168 -6.710148919190322
0.03984697754961379 1.019075211053079 -6.723289062337333
0.039220404882517115 1.0483055360434907 -6.736926101653767
0.03857100163240882 1.0786009336044031 -6.7510600371396245
0.0378987677992889 1.1099614037358165 -6.765690868794906
0.037203703383157365 1.1423869464377305 -6.780818596619616
0.03648580838401421 1.1758775617101456 -6.796443220613749
0.03574508280185943 1.2104332495530614 -6.8125647407773045
0.03498152663669304 1.2460540099664779 -6.829183157110287
0.034195139888515025 1.2827398429503956 -6.846298469612694
0.03338592255732539 1.320490748504814 -6.863910678284524
0.03255387464312413 1.3593067266297332 -6.882019783125781
0.031698996145911255 1.3991877773251529 -6.900625784136462
0.03082128706568676 1.440133900591074 -6.919728681316568
0.029920747402450647 1.4821450964274956 -6.939328474666099
0.028997377156202913 1.5252213648344182 -6.9594251641850535
0.028051176326943553 1.5693627058118416 -6.980018749873433
0.027082144914672583 1.6145691193597655 -7.0011092317312364
0.026090282919389994 1.6608406054781903 -7.022696609758466
0.02507559034109578 1.7081771641671157 -7.04478088395512
0.024038067179789947 1.7565787954265426 -7.067362054321198
0.022977713435472495 1.80604549925647 -7.090440120856702
0.021894529108143414 1.8565772756568988 -7.11401508356163
0.020788514197802723 1.9081741246278279 -7.138086942435983
0.01965966870445041 1.9608360461692576 -7.162655697479759
0.018507992628086476 2.0145630402811885 -7.1877213486929605
0.01733348596871092 2.06935510696362 -7.213283896075589
0.016136148726323758 2.1252122462165524 -7.23934333962764
0.014915980900924964 2.182134458039986 -7.265899679349116
0.013672982492514552 2.24012174243392 -7.292952915240016
0.014915980900924967 2.2130903902849997 -7.350950404190426
0.016136148726323764 2.1865555323592227 -7.407882633139705
0.01733348596871094 2.160517168656589 -7.463749602087853
0.018507992628086497 2.1349752991770994 -7.518551311034873
0.01965966870445043 2.1099299239207525 -7.572287759980761
0.020788514197802744 2.0853810428875494 -7.624958948925522
0.021894529108143445 2.0613286560774897 -7.676564877869149
0.02297771343547252 2.0377727634905733 -7.727105546811648
0.024038067179789974 2.0147133651268008 -7.776580955753017
0.025075590341095813 1.992150460986171 -7.824991104693258
0.026090282919390025 1.9700840510686852 -7.872335993632366
0.027082144914672625 1.948514135374343 -7.918615622570346
0.028051176326943598 1.9274407139031435 -7.963829991507194
0.028997377156202958 1.9068637866550882 -8.007979100442913
0.029920747402450692 1.886783353630176 -8.051062949377503
0.030821287065686806 1.867199414828407 -8.093081538310964
0.03169899614591131 1.8481119702497817 -8.134034867243292
0.03255387464312419 1.8295210198942997 -8.173922936174492
[...]
CELL_DATA 200

VECTORS Vinf float
5.1719156916173175 -42.087542684264825 -4.162379233947369
5.15795756427195 -42.10949612504857 -4.205457404332799
5.141885845219559 -42.13511884267006 -4.255726053432821
5.123826981430401 -42.16439794787805 -4.313157946402653
5.1039662203806015 -42.19728340116584 -4.377883133886235
5.082421443134899 -42.23383487057267 -4.449508701512196
5.059347153790317 -42.2739975219692 -4.528191826073231
5.03497993531553 -42.31774702847195 -4.613888874695522
5.009590404251662 -42.36505540338955 -4.706553148814423
4.983479713701675 -42.41589131659777 -4.8061360258110275
4.958533704939661 -42.470010949475196 -4.912674252320718
4.932561537118798 -42.52771947436486 -5.02602774017024
4.9069197956426915 -42.588844314271036 -5.146185889409574
4.881909614721162 -42.6533535614576 -5.273117732975543
4.8578070609849 -42.721217684933 -5.406799544617613
4.834853692757346 -42.79241051848499 -5.547215749160163
4.813249384640665 -42.86691003075123 -5.694359285087982
4.793148160647614 -42.94469879935904 -5.848231363669148
4.774657402271371 -43.025764147977505 -6.008840647363726
4.757840342971229 -43.11009795026272 -6.176201949984485
4.7445468109942 -43.197585945855586 -6.349643315658533
4.730130007481869 -43.28855644334236 -6.53058600903662
4.709977839307866 -43.382950249055135 -6.724160940354177
4.702848012389028 -43.480199396796536 -6.916984178040155
4.696375833526465 -43.58079118672268 -7.116996730617483
4.690684322607077 -43.6847065864696 -7.324244993870337
4.685872953584939 -43.79192852005974 -7.538780725574043
4.6820227105877885 -43.90244139672223 -7.760659686837311
4.67920313247278 -44.01623042162649 -7.989940280443072
4.677480124376517 -44.13328080932244 -8.226682390033007
4.676923274697425 -44.253577027735595 -8.470946572732815
4.6783185727523335 -44.377468289803495 -8.718586039096406
4.6808688410881665 -44.50444290450846 -8.975408050945196
4.684870770129012 -44.634695819519834 -9.239175272906344
4.690405240298688 -44.76821763240156 -9.5098868802436
4.697569683738144 -44.90499724425059 -9.787541972542929
4.706467621357323 -45.04502301820935 -10.072140926810368
4.714761795976833 -45.188753509752694 -10.363826439566362
4.728253253665702 -45.33485525793597 -10.662490333758587
4.742916151647403 -45.48459268863619 -10.967837927544736
4.759268712938834 -45.637577673395015 -11.280200561905149
4.776885803222875 -45.793849876724344 -11.59963555393033
4.795087191333243 -45.953472182515675 -11.926213904011382
4.81293117589352 -46.11653029856484 -12.260017259995276
4.829497668896413 -46.28311432767564 -12.600901362384217
4.843610267096921 -46.453297181769706 -12.949224643661436
4.854479607764705 -46.62717368015745 -13.304917704962929
4.8616240049931925 -46.8047952148863 -13.667971172621543
4.865230744753288 -46.98615668305758 -14.038323888449701
4.867863196851446 -47.17090490661781 -14.415646957709514
4.86929501864245 -47.454120652848765 -14.512755762038337
4.871133555563744 -47.830287542675705 -14.327875068135421
4.870731211416379 -48.19967973609249 -14.146498807651774
4.867183348308828 -48.56251292992779 -13.968684120184967
4.86003058363017 -48.91863184655507 -13.794079984270233
4.8479437822275315 -49.26825250748488 -13.622789055997215
4.8344945071335115 -49.611095077130194 -13.455165373078136
4.819539594613033 -49.947161784905276 -13.290818039120909
4.804265819148768 -50.276328298748574 -13.129752440253917
4.789606755873458 -50.598493057791195 -12.971982197295725
4.775645301199145 -50.91361279019428 -12.81759269128202
4.763435510803676 -51.221612466822116 -12.6665281761847
4.75278423173294 -51.52248902187904 -12.518821313839277
4.743655025986065 -51.816241871327975 -12.374480005710355
4.735944444115414 -52.102878447482034 -12.233511284380674
4.729774884860883 -52.382442839536104 -12.096187631032844
4.724404739290718 -52.654899811811816 -11.961852089402102
4.7182120156533305 -52.92075137256471 -11.828673751745649
4.715890350104788 -53.17876532723157 -11.70238397322854
4.714188817992645 -53.429796499236105 -11.579120899832219
4.713119994504753 -53.67384071234922 -11.458921722478323
4.712710715816775 -53.9108920672384 -11.341822978566444
4.712989636763167 -54.14094416583061 -11.227860492608972
4.713973019967128 -54.363991523266314 -11.117069145067772
4.715650602982387 -54.580030980636536 -11.009482503338809
4.721843779356904 -54.788385457128484 -10.906856226420585
4.727039637036912 -54.9900344533258 -10.806730712215595
4.733646947697189 -55.18457344131826 -10.71004269366287
4.74178915848883 -55.37199126706811 -10.616800070213603
4.751586899175175 -55.552276952902695 -10.527011403016166
4.763147332529188 -55.725420654114785 -10.440685699376965
4.77655167636843 -55.89141478470023 -10.357832086750527
4.791842080855523 -56.05025520888606 -10.278459393129497
4.809009498977519 -56.20194235253395 -10.202575670504254
4.830609607982487 -56.34627588248797 -10.130955577290708
4.848631373720633 -56.48388615142084 -10.061300626714944
4.870750059034555 -56.614172302323105 -9.995917504281133
4.894080114386526 -56.737363705253216 -9.934039240249874
4.918312060452086 -56.85348808582163 -9.875664505551093
4.943101244581607 -56.962576472774614 -9.820789875248424
4.968083763418815 -57.06466177334311 -9.769410086260095
4.992892545108018 -57.159777322940755 -9.721518388854724
5.017172059807184 -57.247955548183995 -9.67710695044804
5.040590510892853 -57.329226848647714 -9.636167271567741
5.062848828315555 -57.40361876106832 -9.598690580206302
5.083686247873626 -57.471155428167194 -9.56466817996993
5.102882649063205 -57.531857358992035 -9.5340917374306
5.120258104065124 -57.58574144198243 -9.50695350332535
5.13567025389964 -57.63282115664875 -9.483246469678877
5.149010187708345 -57.673106923767726 -9.462964470236612
5.1719156916173175 -42.087542684264825 -4.162379233947369
5.15795756427195 -42.10949612504857 -4.205457404332799
5.141885845219559 -42.13511884267006 -4.255726053432821
5.123826981430401 -42.16439794787805 -4.313157946402653
5.1039662203806015 -42.19728340116584 -4.377883133886235
5.082421443134899 -42.23383487057267 -4.449508701512196
5.059347153790317 -42.2739975219692 -4.528191826073231
5.03497993531553 -42.31774702847195 -4.613888874695522
5.009590404251662 -42.36505540338955 -4.706553148814423
4.983479713701675 -42.41589131659777 -4.8061360258110275
4.958533704939661 -42.470010949475196 -4.912674252320718
4.932561537118798 -42.52771947436486 -5.02602774017024
4.9069197956426915 -42.588844314271036 -5.146185889409574
4.881909614721162 -42.6533535614576 -5.273117732975543
4.8578070609849 -42.721217684933 -5.406799544617613
4.834853692757346 -42.79241051848499 -5.547215749160163
4.813249384640665 -42.86691003075123 -5.694359285087982
4.793148160647614 -42.94469879935904 -5.848231363669148
4.774657402271371 -43.025764147977505 -6.008840647363726
4.757840342971229 -43.11009795026272 -6.176201949984485
4.7445468109942 -43.197585945855586 -6.349643315658533
4.730130007481869 -43.28855644334236 -6.53058600903662
4.709977839307866 -43.382950249055135 -6.724160940354177
4.702848012389028 -43.480199396796536 -6.916984178040155
4.696375833526465 -43.58079118672268 -7.116996730617483
4.690684322607077 -43.6847065864696 -7.324244993870337
4.685872953584939 -43.79192852005974 -7.538780725574043
4.6820227105877885 -43.90244139672223 -7.760659686837311
4.67920313247278 -44.01623042162649 -7.989940280443072
4.677480124376517 -44.13328080932244 -8.226682390033007
4.676923274697425 -44.253577027735595 -8.470946572732815
4.6783185727523335 -44.377468289803495 -8.718586039096406
4.6808688410881665 -44.50444290450846 -8.975408050945196
4.684870770129012 -44.634695819519834 -9.239175272906344
4.690405240298688 -44.76821763240156 -9.5098868802436
4.697569683738144 -44.90499724425059 -9.787541972542929
4.706467621357323 -45.04502301820935 -10.072140926810368
4.714761795976833 -45.188753509752694 -10.363826439566362
4.728253253665702 -45.33485525793597 -10.662490333758587
4.742916151647403 -45.48459268863619 -10.967837927544736
4.759268712938834 -45.637577673395015 -11.280200561905149
4.776885803222875 -45.793849876724344 -11.59963555393033
4.795087191333243 -45.953472182515675 -11.926213904011382
4.81293117589352 -46.11653029856484 -12.260017259995276
4.829497668896413 -46.28311432767564 -12.600901362384217
4.843610267096921 -46.453297181769706 -12.949224643661436
4.854479607764705 -46.62717368015745 -13.304917704962929
4.8616240049931925 -46.8047952148863 -13.667971172621543
4.865230744753288 -46.98615668305758 -14.038323888449701
4.867863196851446 -47.17090490661781 -14.415646957709514
4.86929501864245 -47.454120652848765 -14.512755762038337
4.871133555563744 -47.830287542675705 -14.327875068135421
4.870731211416379 -48.19967973609249 -14.146498807651774
4.867183348308828 -48.56251292992779 -13.968684120184967
4.86003058363017 -48.91863184655507 -13.794079984270233
4.8479437822275315 -49.26825250748488 -13.622789055997215
4.8344945071335115 -49.611095077130194 -13.455165373078136
4.819539594613033 -49.947161784905276 -13.290818039120909
4.804265819148768 -50.276328298748574 -13.129752440253917
4.789606755873458 -50.598493057791195 -12.971982197295725
4.775645301199145 -50.91361279019428 -12.81759269128202
4.763435510803676 -51.221612466822116 -12.6665281761847
4.75278423173294 -51.52248902187904 -12.518821313839277
4.743655025986065 -51.816241871327975 -12.374480005710355
4.735944444115414 -52.102878447482034 -12.233511284380674
4.729774884860883 -52.382442839536104 -12.096187631032844
4.724404739290718 -52.654899811811816 -11.961852089402102
4.7182120156533305 -52.92075137256471 -11.828673751745649
4.715890350104788 -53.17876532723157 -11.70238397322854
4.714188817992645 -53.429796499236105 -11.579120899832219
4.713119994504753 -53.67384071234922 -11.458921722478323
4.712710715816775 -53.9108920672384 -11.341822978566444
4.712989636763167 -54.14094416583061 -11.227860492608972
4.713973019967128 -54.363991523266314 -11.117069145067772
4.715650602982387 -54.580030980636536 -11.009482503338809
4.721843779356904 -54.788385457128484 -10.906856226420585
4.727039637036912 -54.9900344533258 -10.806730712215595
4.733646947697189 -55.18457344131826 -10.71004269366287
4.74178915848883 -55.37199126706811 -10.616800070213603
4.751586899175175 -55.552276952902695 -10.527011403016166
4.763147332529188 -55.725420654114785 -10.440685699376965
4.77655167636843 -55.89141478470023 -10.357832086750527
4.791842080855523 -56.05025520888606 -10.278459393129497
4.809009498977519 -56.20194235253395 -10.202575670504254
4.830609607982487 -56.34627588248797 -10.130955577290708
4.848631373720633 -56.48388615142084 -10.061300626714944
4.870750059034555 -56.614172302323105 -9.995917504281133
4.894080114386526 -56.737363705253216 -9.934039240249874
4.918312060452086 -56.85348808582163 -9.875664505551093
4.943101244581607 -56.962576472774614 -9.820789875248424
4.968083763418815 -57.06466177334311 -9.769410086260095
4.992892545108018 -57.159777322940755 -9.721518388854724
5.017172059807184 -57.247955548183995 -9.67710695044804
5.040590510892853 -57.329226848647714 -9.636167271567741
5.062848828315555 -57.40361876106832 -9.598690580206302
5.083686247873626 -57.471155428167194 -9.56466817996993
5.102882649063205 -57.531857358992035 -9.5340917374306
5.120258104065124 -57.58574144198243 -9.50695350332535
5.13567025389964 -57.63282115664875 -9.483246469678877
5.149010187708345 -57.673106923767726 -9.462964470236612

VECTORS L float
0.05772693272752936 0.0 0.0
0.10437902948892282 0.0 0.0
0.154980514565809 0.0 0.0
0.2112341267140955 0.0 0.0
0.27362507839851347 0.0 0.0
0.3423093433027762 0.0 0.0
0.41730563706766516 0.0 0.0
0.4985539403950895 0.0 0.0
0.5859365905119844 0.0 0.0
0.6792861510187348 0.0 0.0
0.7783974996881569 0.0 0.0
0.8830099850933062 0.0 0.0
0.992831472903259 0.0 0.0
1.107535032996282 0.0 0.0
1.2267668864790717 0.0 0.0
1.3501581582526865 0.0 0.0
1.4773333692919473 0.0 0.0
1.607920652262903 0.0 0.0
1.7415528372631885 0.0 0.0
1.8778897233564142 0.0 0.0
2.016625803622797 0.0 0.0
2.157397444534876 0.0 0.0
2.299895086194901 0.0 0.0
2.4441915473831557 0.0 0.0
2.5899187500095704 0.0 0.0
2.7368366950622023 0.0 0.0
2.8847490980980335 0.0 0.0
3.033485027200838 0.0 0.0
3.182890273107126 0.0 0.0
3.3328199352620036 0.0 0.0
3.483130234696036 0.0 0.0
3.6336689995964515 0.0 0.0
3.784261687903891 0.0 0.0
3.93471562891817 0.0 0.0
4.084757043224765 0.0 0.0
4.234154648787156 0.0 0.0
4.382491943732708 0.0 0.0
4.529218672992169 0.0 0.0
4.673999458783835 0.0 0.0
4.815839370887957 0.0 0.0
4.953802382657346 0.0 0.0
5.086666241226593 0.0 0.0
5.213076218466088 0.0 0.0
5.331407624246715 0.0 0.0
5.440064490824822 0.0 0.0
5.537531254625269 0.0 0.0
5.623160723449265 0.0 0.0
5.698122102869763 0.0 0.0
5.767884763536776 0.0 0.0
5.856745506243147 0.0 0.0
6.1069390741344165 0.0 0.0
6.1357101936928835 0.0 0.0
6.180646745561702 0.0 0.0
6.217081709820512 0.0 0.0
6.238719866458891 0.0 0.0
6.243430252504407 0.0 0.0
6.2313373079109295 0.0 0.0
6.20323070387638 0.0 0.0
6.160347385927849 0.0 0.0
6.104031104672105 0.0 0.0
6.035481887452626 0.0 0.0
5.955824194818965 0.0 0.0
5.865865054171455 0.0 0.0
5.7666365404722395 0.0 0.0
5.658715976960699 0.0 0.0
5.542632757112057 0.0 0.0
5.4187670709113185 0.0 0.0
5.287479869512911 0.0 0.0
5.149344784711278 0.0 0.0
5.004547562978179 0.0 0.0
4.853382345753886 0.0 0.0
4.696142985687541 0.0 0.0
4.5331717713580755 0.0 0.0
4.364804173147747 0.0 0.0
4.191432992622988 0.0 0.0
4.013547842252194 0.0 0.0
3.8314038716132095 0.0 0.0
3.645526756696572 0.0 0.0
3.456462421590577 0.0 0.0
3.264794396347055 0.0 0.0
3.071168929012706 0.0 0.0
2.87628720422558 0.0 0.0
2.6809236667592065 0.0 0.0
2.485898800921832 0.0 0.0
2.2921118995077685 0.0 0.0
2.100373275069963 0.0 0.0
1.9117450556859785 0.0 0.0
1.727159928898391 0.0 0.0
1.5475625441393677 0.0 0.0
1.3738693865247933 0.0 0.0
1.20695024284165 0.0 0.0
1.047613596475439 0.0 0.0
0.8965946786937719 0.0 0.0
0.7545444126625777 0.0 0.0
0.6220160078228275 0.0 0.0
0.4994439666202141 0.0 0.0
0.3870991371132512 0.0 0.0
0.28497416169437817 0.0 0.0
0.19241950900123558 0.0 0.0
0.10646169348827038 0.0 0.0
0.05772693272752936 0.0 0.0
0.10437902948892282 0.0 0.0
0.154980514565809 0.0 0.0
0.2112341267140955 0.0 0.0
0.27362507839851347 0.0 0.0
0.3423093433027762 0.0 0.0
0.41730563706766516 0.0 0.0
0.4985539403950895 0.0 0.0
0.5859365905119844 0.0 0.0
0.6792861510187348 0.0 0.0
0.7783974996881569 0.0 0.0
0.8830099850933062 0.0 0.0
0.992831472903259 0.0 0.0
1.107535032996282 0.0 0.0
1.2267668864790717 0.0 0.0
1.3501581582526865 0.0 0.0
1.4773333692919473 0.0 0.0
1.607920652262903 0.0 0.0
1.7415528372631885 0.0 0.0
1.8778897233564142 0.0 0.0
2.016625803622797 0.0 0.0
2.157397444534876 0.0 0.0
2.299895086194901 0.0 0.0
2.4441915473831557 0.0 0.0
2.5899187500095704 0.0 0.0
2.7368366950622023 0.0 0.0
2.8847490980980335 0.0 0.0
3.033485027200838 0.0 0.0
3.182890273107126 0.0 0.0
3.3328199352620036 0.0 0.0
3.483130234696036 0.0 0.0
3.6336689995964515 0.0 0.0
3.784261687903891 0.0 0.0
3.93471562891817 0.0 0.0
4.084757043224765 0.0 0.0
4.234154648787156 0.0 0.0
4.382491943732708 0.0 0.0
4.529218672992169 0.0 0.0
4.673999458783835 0.0 0.0
4.815839370887957 0.0 0.0
4.953802382657346 0.0 0.0
5.086666241226593 0.0 0.0
5.213076218466088 0.0 0.0
5.331407624246715 0.0 0.0
5.440064490824822 0.0 0.0
5.537531254625269 0.0 0.0
5.623160723449265 0.0 0.0
5.698122102869763 0.0 0.0
5.767884763536776 0.0 0.0
5.856745506243147 0.0 0.0
6.1069390741344165 0.0 0.0
6.1357101936928835 0.0 0.0
6.180646745561702 0.0 0.0
6.217081709820512 0.0 0.0
6.238719866458891 0.0 0.0
6.243430252504407 0.0 0.0
6.2313373079109295 0.0 0.0
6.20323070387638 0.0 0.0
6.160347385927849 0.0 0.0
6.104031104672105 0.0 0.0
6.035481887452626 0.0 0.0
5.955824194818965 0.0 0.0
5.865865054171455 0.0 0.0
5.7666365404722395 0.0 0.0
5.658715976960699 0.0 0.0
5.542632757112057 0.0 0.0
5.4187670709113185 0.0 0.0
5.287479869512911 0.0 0.0
5.149344784711278 0.0 0.0
5.004547562978179 0.0 0.0
4.853382345753886 0.0 0.0
4.696142985687541 0.0 0.0
4.5331717713580755 0.0 0.0
4.364804173147747 0.0 0.0
4.191432992622988 0.0 0.0
4.013547842252194 0.0 0.0
3.8314038716132095 0.0 0.0
3.645526756696572 0.0 0.0
3.456462421590577 0.0 0.0
3.264794396347055 0.0 0.0
3.071168929012706 0.0 0.0
2.87628720422558 0.0 0.0
2.6809236667592065 0.0 0.0
2.485898800921832 0.0 0.0
2.2921118995077685 0.0 0.0
2.100373275069963 0.0 0.0
1.9117450556859785 0.0 0.0
1.727159928898391 0.0 0.0
1.5475625441393677 0.0 0.0
1.3738693865247933 0.0 0.0
1.20695024284165 0.0 0.0
1.047613596475439 0.0 0.0
0.8965946786937719 0.0 0.0
0.7545444126625777 0.0 0.0
0.6220160078228275 0.0 0.0
0.4994439666202141 0.0 0.0
0.3870991371132512 0.0 0.0
0.28497416169437817 0.0 0.0
0.19241950900123558 0.0 0.0
0.10646169348827038 0.0 0.0

SCALARS Gamma float
LOOKUP_TABLE default
0.4175056672649539
0.6417163568881951
0.8252174444007887
0.9903292452418702
1.144549794062265
1.2911711428344685
1.4318124846863838
1.5672906218253182
1.6979881158243986
1.8240318706107241
1.9454107754515464
2.0619838949742966
2.173574697899202
2.279979440181274
2.380994357231605
2.4764410706709548
2.566178642832023
2.6501142856545714
2.7281971328912986
2.8004432783510462
2.866931845794253
2.927673298658303
2.9827709231420956
3.0327849232646025
3.077696842120057
3.1176523249978083
3.1528408386782134
3.1834681062730117
3.209743965658981
3.231873868856514
3.2500514236247877
3.2644513382960745
3.2752202840691935
3.282484267170531
3.286302959336865
3.2867731828966185
3.2838559307766486
3.277437169897989
3.2675758012194915
3.253899743819521
3.2361362242596097
3.2139043629580817
3.186751922123179
3.154198902911708
3.1158446981600183
3.0714070160128655
3.0210985804421857
2.9659803646061818
2.9087761820110165
2.8565581720155824
2.8508851023713797
2.891273241119245
2.936102968379184
2.978698370637475
3.0165276922438515
3.0485863937435145
3.074830873194739
3.095499807682953
3.1110363250698345
3.121936148236335
3.128627169020445
3.1315033198332074
3.13079801976498
3.126864032023601
3.11981697103993
3.1097403784481874
3.0966281817313845
3.0804517436333443
3.0612944324460294
3.0390052509463263
3.013475237338983
2.9845758761146
2.952187667993181
2.9161650259895335
2.8763758894571345
2.832731039705569
2.7849536784541904
2.7329214612570984
2.6765029576924158
2.615568811606941
2.550012842171733
2.479750337570182
2.404739005727614
2.3249637752812586
2.2404750786861802
2.1512370334567215
2.057466462372567
1.9592796146091158
1.8568292456048385
1.750268630876825
1.639728799576819
1.5252915592397853
1.4069537168341053
1.284573962458252
1.1577846364390922
1.0258314081535103
0.8872432367313928
0.7390530247961982
0.5745345406633093
0.3736989936909541
0.4175056672649539
0.6417163568881951
0.8252174444007887
0.9903292452418702
1.144549794062265
1.2911711428344685
1.4318124846863838
1.5672906218253182
1.6979881158243986
1.8240318706107241
1.9454107754515464
2.0619838949742966
2.173574697899202
2.279979440181274
2.380994357231605
2.4764410706709548
2.566178642832023
2.6501142856545714
2.7281971328912986
2.8004432783510462
2.866931845794253
2.927673298658303
2.9827709231420956
3.0327849232646025
3.077696842120057
3.1176523249978083
3.1528408386782134
3.1834681062730117
3.209743965658981
3.231873868856514
3.2500514236247877
3.2644513382960745
3.2752202840691935
3.282484267170531
3.286302959336865
3.2867731828966185
3.2838559307766486
3.277437169897989
3.2675758012194915
3.253899743819521
3.2361362242596097
3.2139043629580817
3.186751922123179
3.154198902911708
3.1158446981600183
3.0714070160128655
3.0210985804421857
2.9659803646061818
2.9087761820110165
2.8565581720155824
2.8508851023713797
2.891273241119245
2.936102968379184
2.978698370637475
3.0165276922438515
3.0485863937435145
3.074830873194739
3.095499807682953
3.1110363250698345
3.121936148236335
3.128627169020445
3.1315033198332074
3.13079801976498
3.126864032023601
3.11981697103993
3.1097403784481874
3.0966281817313845
3.0804517436333443
3.0612944324460294
3.0390052509463263
3.013475237338983
2.9845758761146
2.952187667993181
2.9161650259895335
2.8763758894571345
2.832731039705569
2.7849536784541904