# vtk DataFile Version 4.0
[MyVLM domain - lattices] 
ASCII
DATASET UNSTRUCTURED_GRID
POINTS 302 float
0.0341824562312864 -4.664930911039149 4.091617849789706
0.03405815639044536 -4.671178248270008 4.090234085084482
0.0339110259665927 -4.678573055604496 4.088596159515032
0.033741064959728416 -4.687115333042612 4.086704073081358
0.03354827336985251 -4.696805080584354 4.084557825783459
0.033332651196964984 -4.7076422982297235 4.0821574176213336
0.03309419844106585 -4.719626985978721 4.079502848594985
0.03283291510215509 -4.732759143831345 4.076594118704411
0.03254880118023271 -4.747038771787597 4.073431227949611
0.032241856675298705 -4.762465869847476 4.070014176330587
0.031912081587353085 -4.779040438010983 4.0663429638473385
0.031559475916395845 -4.796762476278117 4.062417590499864
0.031184039662426992 -4.815631984648878 4.0582380562881655
0.030785772825446513 -4.835648963123267 4.053804361212242
0.03036467540545441 -4.856813411701284 4.049116505272093
0.029920747402450692 -4.8791253303829265 4.0441744884677195
0.029453988816435354 -4.902584719168198 4.038978310799121
0.028964399647408386 -4.927191578057096 4.033527972266297
0.028451979895369805 -4.952945907049622 4.027823472869249
0.027916729560319615 -4.979847706145775 4.0218648126079755
0.027358648642257795 -5.007896975345556 4.0156519914824775
0.026777737141184355 -5.037093714648964 4.009185009492754
0.0261739950570993 -5.067437924055999 4.002463866638806
0.025547422390002614 -5.098929603566662 3.9954885629206323
0.024898019139894322 -5.131568753180951 3.988259098338234
0.024225785306774404 -5.165355372898869 3.9807754728916125
0.02353072089064287 -5.200289462720413 3.9730376865807635
0.022812825891499706 -5.236371022645585 3.9650457394056913
0.022072100309344932 -5.273600052674385 3.956799631366394
0.021308544144178532 -5.3119765528068115 3.9482993624628704
0.020522157396000516 -5.3515005230428665 3.9395449326951235
0.019712940064810877 -5.392171963382548 3.9305363420631507
0.01888089215060962 -5.433990873825857 3.921273590566954
0.018026013653396743 -5.476957254372794 3.9117566782065305
0.01714830457317225 -5.521071105023357 3.9019856049818835
0.016247764909936128 -5.566332425777548 3.8919603708930115
0.01532439466368839 -5.612741216635367 3.8816809759399136
0.014378193834429035 -5.660297477596813 3.871147420122592
0.013409162422158062 -5.709001208661887 3.860359703441045
0.012417300426875468 -5.758852409830587 3.8493178258952736
0.011402607848581253 -5.809851081102915 3.8380217874852756
0.010365084687275417 -5.861997222478871 3.8264715882110543
0.009304730942957962 -5.915290833958453 3.814667228072607
0.008221546615628881 -5.969731915541664 3.8026087070699357
0.007115531705288186 -6.025320467228502 3.7902960252030393
0.0059866862119358705 -6.082056489018966 3.777729182471917
0.004835010135571934 -6.139939980913059 3.764908178876571
0.003660503476196378 -6.198970942910779 3.7518330144169996
0.0024631662338092087 -6.259149375012126 3.7385036890932035
0.0012429984084104144 -6.320475277217101 3.724920202905182
0.0 -6.382948649525702 3.711082555852936
0.0012429984084104118 -6.396809870258129 3.773550702002463
0.0024631662338092035 -6.4104164971403685 3.8348714740390397
0.0036605034761963756 -6.42376853017242 3.895044871962666
0.0048350101355719285 -6.436865969354284 3.9540708957733415
0.00598668621193586 -6.449708814685961 4.011949545471067
0.007115531705288174 -6.462297066167451 4.068680821055842
0.008221546615628865 -6.474630723798753 4.124264722527665
0.009304730942957938 -6.486709787579867 4.178701249886539
0.01036508468727539 -6.498534257510794 4.231990403132462
0.011402607848581226 -6.510104133591534 4.284132182265435
0.012417300426875439 -6.521419415822085 4.335126587285457
0.01340916242215803 -6.53248010420245 4.384973618192529
0.014378193834429004 -6.543286198732629 4.43367327498665
0.01532439466368836 -6.553837699412619 4.481225557667821
0.016247764909936093 -6.564134606242421 4.527630466236041
0.017148304573172204 -6.574176919222038 4.572888000691311
0.018026013653396702 -6.583964638351465 4.61699816103363
0.01888089215060958 -6.593497763630705 4.659960947262999
0.01971294006481084 -6.6027762950597575 4.701776359379417
0.02052215739600047 -6.611800232638624 4.742444397382885
0.021308544144178484 -6.620569576367301 4.781965061273402
0.022072100309344884 -6.629084326245791 4.820338351050968
0.022812825891499654 -6.637344482274095 4.857564266715585
0.02353072089064281 -6.64535004445221 4.89364280826725
0.024225785306774345 -6.65310101278014 4.928573975705966
0.024898019139894267 -6.66059738725788 4.96235776903173
0.025547422390002565 -6.667839167885433 4.9949941882445446
0.026173995057099237 -6.6748263546628 5.026483233344408
0.026777737141184296 -6.681558947589979 5.056824904331322
0.027358648642257736 -6.688036946666969 5.086019201205284
0.027916729560319556 -6.694260351893773 5.114066123966296
0.028451979895369742 -6.700229163270389 5.1409656726143576
0.028964399647408323 -6.705943380796818 5.166717847149469
0.02945398881643528 -6.711403004473061 5.19132264757163
0.02992074740245062 -6.716608034299113 5.21478007388084
0.030364675405454337 -6.721558470274981 5.237090126077099
0.030785772825446433 -6.726254312400659 5.258252804160408
0.03118403966242692 -6.7306955606761525 5.278268108130767
0.031559475916395775 -6.734882215101455 5.297136037988175
0.03191208158735302 -6.738814275676573 5.3148565937326335
0.032241856675298636 -6.742491742401501 5.331429775364141
0.032548801180232644 -6.745914615276244 5.346855582882697
0.03283291510215502 -6.749082894300799 5.361134016288304
0.03309419844106578 -6.751996579475166 5.37426507558096
0.033332651196964914 -6.7546556707993455 5.386248760760664
0.03354827336985244 -6.757060168273338 5.397085071827419
0.03374106495972833 -6.759210071897144 5.406774008781223
0.03391102596659261 -6.7611053816707605 5.415315571622077
0.03405815639044528 -6.76274609759419 5.4227097603499805
0.034182456231286316 -6.764132219667434 5.428956574964934
0.04785543872380095 -4.397564077370184 4.5112997123994605
0.047731138882959906 -4.403811414601044 4.509915947694235
0.04758400845910725 -4.411206221935531 4.508278022124786
0.047414047452242966 -4.419748499373647 4.506385935691112
0.047221255862367056 -4.429438246915389 4.504239688393212
0.047005633689479534 -4.440275464560759 4.501839280231088
0.0467671809335804 -4.452260152309756 4.499184711204738
0.04650589759466964 -4.465392310162381 4.496275981314164
0.046221783672747256 -4.479671938118632 4.4931130905593655
0.045914839167813255 -4.4950990361785115 4.489696038940341
0.045585064079867635 -4.511673604342018 4.486024826457092
0.0452324584089104 -4.529395642609153 4.482099453109618
0.04485702215494154 -4.548265150979914 4.4779199188979195
0.044458755317961056 -4.568282129454302 4.473486223821996
0.04403765789796896 -4.589446578032319 4.468798367881847
0.04359372989496524 -4.611758496713962 4.463856351077474
0.0431269713089499 -4.635217885499233 4.458660173408875
0.042637382139922936 -4.659824744388132 4.453209834876051
0.04212496238788436 -4.685579073380657 4.447505335479002
0.04158971205283416 -4.71248087247681 4.4415466752177295
0.04103163113477234 -4.740530141676591 4.435333854092231
0.0404507196336989 -4.769726880979999 4.428866872102508
0.039846977549613846 -4.800071090387034 4.42214572924856
0.039220404882517164 -4.831562769897697 4.415170425530387
0.03857100163240887 -4.864201919511986 4.407940960947989
0.03789876779928895 -4.897988539229904 4.400457335501366
0.03720370338315741 -4.932922629051449 4.3927195491905175
0.03648580838401426 -4.969004188976621 4.384727602015445
0.03574508280185948 -5.00623321900542 4.376481493976147
0.03498152663669308 -5.044609719137847 4.367981225072625
0.03419513988851506 -5.0841336893739015 4.359226795304877
0.03338592255732543 -5.124805129713583 4.350218204672904
0.03255387464312416 -5.166624040156893 4.340955453176707
0.0316989961459113 -5.209590420703829 4.3314385408162845
0.030821287065686792 -5.253704271354392 4.321667467591637
0.029920747402450678 -5.298965592108583 4.311642233502765
0.02899737715620294 -5.345374382966403 4.301362838549668
0.02805117632694358 -5.392930643927849 4.2908292827323455
0.027082144914672607 -5.441634374992922 4.280041566050799
0.026090282919390015 -5.491485576161622 4.268999688505026
0.025075590341095803 -5.542484247433951 4.25770365009503
0.024038067179789964 -5.594630388809906 4.246153450820808
0.02297771343547251 -5.647924000289489 4.234349090682361
0.02189452910814343 -5.702365081872699 4.222290569679689
0.020788514197802734 -5.757953633559537 4.2099778878127925
0.019659668704450416 -5.814689655350002 4.1974110450816715
0.018507992628086483 -5.872573147244094 4.184590041486325
0.017333485968710927 -5.931604109241814 4.171514877026754
0.016136148726323758 -5.991782541343161 4.158185551702957
0.01491598090092496 -6.053108443548136 4.144602065514936
0.013672982492514547 -6.115581815856737 4.1307644184626895
0.014915980900924958 -6.129443036589165 4.193232564612217
0.01613614872632375 -6.143049663471404 4.254553336648794
0.017333485968710923 -6.156401696503456 4.314726734572419
0.018507992628086476 -6.16949913568532 4.3737527583830955
0.019659668704450406 -6.182341981016997 4.43163140808082
0.02078851419780272 -6.194930232498486 4.488362683665595
0.02189452910814341 -6.207263890129788 4.5439465851374194
0.022977713435472485 -6.219342953910902 4.598383112496293
0.02403806717978994 -6.231167423841829 4.651672265742216
0.025075590341095775 -6.242737299922569 4.703814044875189
0.02609028291938998 -6.254052582153122 4.7548084498952115
0.02708214491467258 -6.265113270533487 4.804655480802283
0.02805117632694355 -6.275919365063664 4.853355137596404
0.028997377156202906 -6.286470865743654 4.900907420277575
0.029920747402450643 -6.296767772573457 4.947312328845795
0.03082128706568675 -6.306810085553072 4.992569863301064
0.031698996145911255 -6.3165978046825 5.036680023643384
0.03255387464312413 -6.32613092996174 5.079642809872753
0.033385922557325386 -6.3354094613907925 5.121458221989171
[...]
CELL_DATA 200

VECTORS Vinf float
5.23058787841862 30.858094914276318 28.90971207563391
5.216319245425955 30.849427637804798 28.95718453572236
5.199892630289471 30.839309028574345 29.0125932884247
5.181441331916777 30.827741387449727 29.075912684570174
5.161130134142409 30.814726691847152 29.147112067973072
5.139157915202634 30.80026628768995 29.226155693170476
5.117758026067348 30.783795825412955 29.313214462056933
5.093312773711763 30.766414792787938 29.407819765047947
5.06794617043127 30.74761594220545 29.510107415849067
5.041958346225581 30.727402428740927 29.62002225840053
5.015665384048289 30.705775441034945 29.737508763805373
4.989390357041517 30.68273387126692 29.862512936618852
4.963452902343111 30.658274085022356 29.994984349594954
4.938158087155004 30.63238982556935 30.13487813920506
4.91378553042812 30.605072278302153 30.28215676950844
4.890579836082824 30.576310306387143 30.436791373534437
4.868743328932974 30.546090849340352 30.598762514784546
4.848431848243942 30.514399455142375 30.768060275941384
4.823325866231551 30.477930434681845 30.94920481572378
4.809589355103075 30.444805438101795 31.130961465235565
4.79653436068087 30.409803876471035 31.32063846849338
4.78427289407257 30.37285048958833 31.518299065361113
4.772886166359186 30.333866752855386 31.72401509192223
4.76242834752721 30.292771435361306 31.937865747567976
4.752932294184429 30.24948104632181 32.159936156914725
4.74441602717997 30.203910129219075 32.39031596995252
4.7382263621464915 30.160337300080247 32.623676553719704
4.736268380558794 30.113475809465044 32.866295316089214
4.733444714257903 30.06475676354217 33.117020859080554
4.73199376857554 30.014443757189778 33.37523788551806
4.731911834219168 29.96253254150909 33.64095194514635
4.733214222571638 29.9090187250274 33.91416576535767
4.735937260313346 29.85389750626261 34.19487935431431
4.7401392905226185 29.797163444800024 34.4830902533505
4.74589967467925 29.738810301861026 34.77879406671473
4.753314248114701 29.67883100721373 35.08198544554092
4.762485097616735 29.61721783928826 35.392659730649804
4.7735020227501135 29.553962925388184 35.71081545077021
4.786398279554826 29.489013010722996 36.03654629621122
4.801071068745018 29.422601659143826 36.36953348914485
4.817568265475232 29.354397977934997 36.71018352511191
4.835500543510686 29.2843888436055 37.058572514160744
4.854688653000954 29.211972240798833 37.415421820568994
4.872557149084067 29.139097045206405 37.778927762094305
4.889251766114444 29.06460375672336 38.150361252579664
4.903534034885871 28.988532314711076 38.52985275110717
4.914413426908529 28.910927971473228 38.917493861320814
4.921689595982945 28.831638569888028 39.313288706279465
4.925479608604362 28.750954882933865 39.71723215466563
4.926860465198935 28.669333876269715 40.128207553114855
4.928197001499807 28.83502257954584 40.37834163491715
4.9298987659256985 29.24653835802324 40.46011512377558
4.9288183602575115 29.65140166339994 40.5395184199993
4.9246332823582994 30.04808850890632 40.61871904342177
4.916572383638691 30.437455327504363 40.696645643341355
4.904944311162654 30.819517891091568 40.773253112686184
4.890660901881085 31.19423067802153 40.848464483586405
4.874910080423345 31.561510757984053 40.922193388348035
4.858837965573227 31.92126591922692 40.994363037537724
4.844200841001157 32.27280183228806 41.065291800429684
4.829093416161686 32.61764643479206 41.13398236772635
4.815811877158725 32.9547193638357 41.201017655857484
4.804405330507761 33.28400545787682 41.26640202186197
4.794796439608052 33.60550243177366 41.33014751783457
4.786844639640739 33.91921558141768 41.39226970006243
4.780389026621139 34.22515387754096 41.45278482126995
4.775273962616494 34.52332739758774 41.51170818036586
4.7713623733871104 34.81374579026875 41.56905330435514
4.7685411929148245 35.09641745306268 41.62483166907745
4.760889756028985 35.37241285645871 41.6787724650791
4.759387948398783 35.63949102325451 41.73170508422235
4.758448776605899 35.89915508625203 41.78281442597414
4.758111921790839 36.15137605422454 41.83212761116207
4.758420030174768 36.39612512319786 41.879670805972715
4.759408297517547 36.63337455229088 41.92546969196049
4.767629737348214 36.85984670558025 41.97171452085229
4.77249398088771 37.0809464754095 42.01480037650953
4.778796961740432 37.2942992031886 42.05629655614501
4.7866642137461834 37.499891775730994 42.096202099368995
4.79621846314252 37.69771077275964 42.134516670277186
4.807568799102546 37.887743369463486 42.171240983562456
4.820798003662086 38.06997844430922 42.206377245731716
4.835949239712995 38.24440779861222 42.23992956046566
4.853013754832726 38.41102734762023 42.271904237069805
4.8719214018316945 38.56983812160901 42.30230994412063
4.892535533473439 38.720846927763354 42.33115766746155
4.91465324085233 38.8640665677557 42.35846045917118
4.938011111147037 38.999515571388244 42.384232995573946
4.96229586760138 39.12721747784923 42.408490990558285
4.987158597850695 39.247199757451696 42.431250529517776
5.012230892834721 39.35949250693101 42.45252739609382
5.037141144715793 39.46412706570522 42.47233645873074
5.061529452258742 39.56113469062519 42.49069116957571
5.085059971148444 39.650545398925814 42.507603208544545
5.107430022186454 39.73238705160297 42.52308228469027
5.128375738830714 39.80668471034299 42.53713608872238
5.1476744295935335 39.87346026654368 42.549770376791116
5.165144114372888 39.93273231458676 42.56098915719521
5.180500871598503 39.98502277785949 42.570293224855334
5.193916464434303 40.02933239861239 42.578683236468706
5.23058787841862 30.858094914276318 28.90971207563391
5.216319245425955 30.849427637804798 28.95718453572236
5.199892630289471 30.839309028574345 29.0125932884247
5.181441331916777 30.827741387449727 29.075912684570174
5.161130134142409 30.814726691847152 29.147112067973072
5.139157915202634 30.80026628768995 29.226155693170476
5.117758026067348 30.783795825412955 29.313214462056933
5.093312773711763 30.766414792787938 29.407819765047947
5.06794617043127 30.74761594220545 29.510107415849067
5.041958346225581 30.727402428740927 29.62002225840053
5.015665384048289 30.705775441034945 29.737508763805373
4.989390357041517 30.68273387126692 29.862512936618852
4.963452902343111 30.658274085022356 29.994984349594954
4.938158087155004 30.63238982556935 30.13487813920506
4.91378553042812 30.605072278302153 30.28215676950844
4.890579836082824 30.576310306387143 30.436791373534437
4.868743328932974 30.546090849340352 30.598762514784546
4.848431848243942 30.514399455142375 30.768060275941384
4.823325866231551 30.477930434681845 30.94920481572378
4.809589355103075 30.444805438101795 31.130961465235565
4.79653436068087 30.409803876471035 31.32063846849338
4.78427289407257 30.37285048958833 31.518299065361113
4.772886166359186 30.333866752855386 31.72401509192223
4.76242834752721 30.292771435361306 31.937865747567976
4.752932294184429 30.24948104632181 32.159936156914725
4.74441602717997 30.203910129219075 32.39031596995252
4.7382263621464915 30.160337300080247 32.623676553719704
4.736268380558794 30.113475809465044 32.866295316089214
4.733444714257903 30.06475676354217 33.117020859080554
4.73199376857554 30.014443757189778 33.37523788551806
4.731911834219168 29.96253254150909 33.64095194514635
4.733214222571638 29.9090187250274 33.91416576535767
4.735937260313346 29.85389750626261 34.19487935431431
4.7401392905226185 29.797163444800024 34.4830902533505
4.74589967467925 29.738810301861026 34.77879406671473
4.753314248114701 29.67883100721373 35.08198544554092
4.762485097616735 29.61721783928826 35.392659730649804
4.7735020227501135 29.553962925388184 35.71081545077021
4.786398279554826 29.489013010722996 36.03654629621122
4.801071068745018 29.422601659143826 36.36953348914485
4.817568265475232 29.354397977934997 36.71018352511191
4.835500543510686 29.2843888436055 37.058572514160744
4.854688653000954 29.211972240798833 37.415421820568994
4.872557149084067 29.139097045206405 37.778927762094305
4.889251766114444 29.06460375672336 38.150361252579664
4.903534034885871 28.988532314711076 38.52985275110717
4.914413426908529 28.910927971473228 38.917493861320814
4.921689595982945 28.831638569888028 39.313288706279465
4.925479608604362 28.750954882933865 39.71723215466563
4.926860465198935 28.669333876269715 40.128207553114855
4.928197001499807 28.83502257954584 40.37834163491715
4.9298987659256985 29.24653835802324 40.46011512377558
4.9288183602575115 29.65140166339994 40.5395184199993
4.9246332823582994 30.04808850890632 40.61871904342177
4.916572383638691 30.437455327504363 40.696645643341355
4.904944311162654 30.819517891091568 40.773253112686184
4.890660901881085 31.19423067802153 40.848464483586405
4.874910080423345 31.561510757984053 40.922193388348035
4.858837965573227 31.92126591922692 40.994363037537724
4.844200841001157 32.27280183228806 41.065291800429684
4.829093416161686 32.61764643479206 41.13398236772635
4.815811877158725 32.9547193638357 41.201017655857484
4.804405330507761 33.28400545787682 41.26640202186197
4.794796439608052 33.60550243177366 41.33014751783457
4.786844639640739 33.91921558141768 41.39226970006243
4.780389026621139 34.22515387754096 41.45278482126995
4.775273962616494 34.52332739758774 41.51170818036586
4.7713623733871104 34.81374579026875 41.56905330435514
4.7685411929148245 35.09641745306268 41.62483166907745
4.760889756028985 35.37241285645871 41.6787724650791
4.759387948398783 35.63949102325451 41.73170508422235
4.758448776605899 35.89915508625203 41.78281442597414
4.758111921790839 36.15137605422454 41.83212761116207
4.758420030174768 36.39612512319786 41.879670805972715
4.759408297517547 36.63337455229088 41.92546969196049
4.767629737348214 36.85984670558025 41.97171452085229
4.77249398088771 37.0809464754095 42.01480037650953
4.778796961740432 37.2942992031886 42.05629655614501
4.7866642137461834 37.499891775730994 42.096202099368995
4.79621846314252 37.69771077275964 42.134516670277186
4.807568799102546 37.887743369463486 42.171240983562456
4.820798003662086 38.06997844430922 42.206377245731716
4.835949239712995 38.24440779861222 42.23992956046566
4.853013754832726 38.41102734762023 42.271904237069805
4.8719214018316945 38.56983812160901 42.30230994412063
4.892535533473439 38.720846927763354 42.33115766746155
4.91465324085233 38.8640665677557 42.35846045917118
4.938011111147037 38.999515571388244 42.384232995573946
4.96229586760138 39.12721747784923 42.408490990558285
4.987158597850695 39.247199757451696 42.431250529517776
5.012230892834721 39.35949250693101 42.45252739609382
5.037141144715793 39.46412706570522 42.47233645873074
5.061529452258742 39.56113469062519 42.49069116957571
5.085059971148444 39.650545398925814 42.507603208544545
5.107430022186454 39.73238705160297 42.52308228469027
5.128375738830714 39.80668471034299 42.53713608872238
5.1476744295935335 39.87346026654368 42.549770376791116
5.165144114372888 39.93273231458676 42.56098915719521
5.180500871598503 39.98502277785949 42.570293224855334
5.193916464434303 40.02933239861239 42.578683236468706

VECTORS L float
0.058563661276954476 0.0 0.0
0.10589291646535003 0.0 0.0
0.1572310951535444 0.0 0.0
0.21430545880138585 0.0 0.0
0.2776088745490424 0.0 0.0
0.3472998708042043 0.0 0.0
0.42340459988751594 0.0 0.0
0.5058536123359434 0.0 0.0
0.5945302861252688 0.0 0.0
0.6892661652448112 0.0 0.0
0.7898466756797897 0.0 0.0
0.8960140770494887 0.0 0.0
1.0074717323310947 0.0 0.0
1.1238880209514004 0.0 0.0
1.2449044659315192 0.0 0.0
1.370144649047466 0.0 0.0
1.499223102654581 0.0 0.0
1.6317411894996117 0.0 0.0
1.7673396066159024 0.0 0.0
1.9058267439554346 0.0 0.0
2.0467800095070943 0.0 0.0
2.1898743256455524 0.0 0.0
2.3348220018926606 0.0 0.0
2.4813733131071536 0.0 0.0
2.629311369422691 0.0 0.0
2.7784584629256264 0.0 0.0
2.928670961746642 0.0 0.0
3.07983147139847 0.0 0.0
3.2316753827260314 0.0 0.0
3.384085480919609 0.0 0.0
3.5369227678815607 0.0 0.0
3.6900722512520385 0.0 0.0
3.843214858346053 0.0 0.0
3.9962047302826953 0.0 0.0
4.148812025749691 0.0 0.0
4.30074196245675 0.0 0.0
4.451617740378971 0.0 0.0
4.600956095862393 0.0 0.0
4.748137129902043 0.0 0.0
4.892371633537147 0.0 0.0
5.032680636047815 0.0 0.0
5.167834814050108 0.0 0.0
5.296392446087574 0.0 0.0
5.416653585295981 0.0 0.0
5.527002945799813 0.0 0.0
5.625996392587617 0.0 0.0
5.712940849785696 0.0 0.0
5.78901676060391 0.0 0.0
5.859770363429281 0.0 0.0
5.949980247268102 0.0 0.0
6.211963778641822 0.0 0.0
6.24069848142896 0.0 0.0
6.28598419941619 0.0 0.0
6.322619035459085 0.0 0.0
6.344204858626185 0.0 0.0
6.348632247518526 0.0 0.0
6.335862770407676 0.0 0.0
6.306786432996806 0.0 0.0
6.2626936431857825 0.0 0.0
6.204983972466817 0.0 0.0
6.134778845273249 0.0 0.0
6.053318861707848 0.0 0.0
5.961534770832429 0.0 0.0
5.860234423982663 0.0 0.0
5.750182838161573 0.0 0.0
5.631820889644959 0.0 0.0
5.505580425871656 0.0 0.0
5.371868018498077 0.0 0.0
5.230996789674874 0.0 0.0
5.083095194982817 0.0 0.0
4.928970506674556 0.0 0.0
4.768770022049268 0.0 0.0
4.602818762509771 0.0 0.0
4.431459924123 0.0 0.0
4.255069767907663 0.0 0.0
4.07426125989204 0.0 0.0
3.8891008884989997 0.0 0.0
3.7001750442606016 0.0 0.0
3.508037675113027 0.0 0.0
3.3132875337320735 0.0 0.0
3.1165800881773533 0.0 0.0
2.918630833099241 0.0 0.0
2.7202160675414047 0.0 0.0
2.5221708888199665 0.0 0.0
2.3253836441491256 0.0 0.0
2.1307859399857434 0.0 0.0
1.9393377352879184 0.0 0.0
1.7520089267463381 0.0 0.0
1.5697587189116315 0.0 0.0
1.3935157416346584 0.0 0.0
1.224160586361589 0.0 0.0
1.0625113999370792 0.0 0.0
0.9093119339144271 0.0 0.0
0.7652203920888629 0.0 0.0
0.6307960758185692 0.0 0.0
0.5064777263050871 0.0 0.0
0.39253828072214464 0.0 0.0
0.2889691231114113 0.0 0.0
0.19510963951484198 0.0 0.0
0.10794436631402175 0.0 0.0
0.058563661276954476 0.0 0.0
0.10589291646535003 0.0 0.0
0.1572310951535444 0.0 0.0
0.21430545880138585 0.0 0.0
0.2776088745490424 0.0 0.0
0.3472998708042043 0.0 0.0
0.42340459988751594 0.0 0.0
0.5058536123359434 0.0 0.0
0.5945302861252688 0.0 0.0
0.6892661652448112 0.0 0.0
0.7898466756797897 0.0 0.0
0.8960140770494887 0.0 0.0
1.0074717323310947 0.0 0.0
1.1238880209514004 0.0 0.0
1.2449044659315192 0.0 0.0
1.370144649047466 0.0 0.0
1.499223102654581 0.0 0.0
1.6317411894996117 0.0 0.0
1.7673396066159024 0.0 0.0
1.9058267439554346 0.0 0.0
2.0467800095070943 0.0 0.0
2.1898743256455524 0.0 0.0
2.3348220018926606 0.0 0.0
2.4813733131071536 0.0 0.0
2.629311369422691 0.0 0.0
2.7784584629256264 0.0 0.0
2.928670961746642 0.0 0.0
3.07983147139847 0.0 0.0
3.2316753827260314 0.0 0.0
3.384085480919609 0.0 0.0
3.5369227678815607 0.0 0.0
3.6900722512520385 0.0 0.0
3.843214858346053 0.0 0.0
3.9962047302826953 0.0 0.0
4.148812025749691 0.0 0.0
4.30074196245675 0.0 0.0
4.451617740378971 0.0 0.0
4.600956095862393 0.0 0.0
4.748137129902043 0.0 0.0
4.892371633537147 0.0 0.0
5.032680636047815 0.0 0.0
5.167834814050108 0.0 0.0
5.296392446087574 0.0 0.0
5.416653585295981 0.0 0.0
5.527002945799813 0.0 0.0
5.625996392587617 0.0 0.0
5.712940849785696 0.0 0.0
5.78901676060391 0.0 0.0
5.859770363429281 0.0 0.0
5.949980247268102 0.0 0.0
6.211963778641822 0.0 0.0
6.24069848142896 0.0 0.0
6.28598419941619 0.0 0.0
6.322619035459085 0.0 0.0
6.344204858626185 0.0 0.0
6.348632247518526 0.0 0.0
6.335862770407676 0.0 0.0
6.306786432996806 0.0 0.0
6.2626936431857825 0.0 0.0
6.204983972466817 0.0 0.0
6.134778845273249 0.0 0.0
6.053318861707848 0.0 0.0
5.961534770832429 0.0 0.0
5.860234423982663 0.0 0.0
5.750182838161573 0.0 0.0
5.631820889644959 0.0 0.0
5.505580425871656 0.0 0.0
5.371868018498077 0.0 0.0
5.230996789674874 0.0 0.0
5.083095194982817 0.0 0.0
4.928970506674556 0.0 0.0
4.768770022049268 0.0 0.0
4.602818762509771 0.0 0.0
4.431459924123 0.0 0.0
4.255069767907663 0.0 0.0
4.07426125989204 0.0 0.0
3.8891008884989997 0.0 0.0
3.7001750442606016 0.0 0.0
3.508037675113027 0.0 0.0
3.3132875337320735 0.0 0.0
3.1165800881773533 0.0 0.0
2.918630833099241 0.0 0.0
2.7202160675414047 0.0 0.0
2.5221708888199665 0.0 0.0
2.3253836441491256 0.0 0.0
2.1307859399857434 0.0 0.0
1.9393377352879184 0.0 0.0
1.7520089267463381 0.0 0.0
1.5697587189116315 0.0 0.0
1.3935157416346584 0.0 0.0
1.224160586361589 0.0 0.0
1.0625113999370792 0.0 0.0
0.9093119339144271 0.0 0.0
0.7652203920888629 0.0 0.0
0.6307960758185692 0.0 0.0
0.5064777263050871 0.0 0.0
0.39253828072214464 0.0 0.0
0.2889691231114113 0.0 0.0
0.19510963951484198 0.0 0.0
0.10794436631402175 0.0 0.0

SCALARS Gamma float
LOOKUP_TABLE default
0.42382626643339205
0.651436033908231
0.8377240063872208
1.0053487901309068
1.1619237483119982
1.3107907259361096
1.453615263482686
1.5911937420486173
1.7239234294774912
1.8519357744885736
1.9752028940906372
2.0935988813156725
2.2069428229201264
2.3150271660515185
2.417645105152322
2.514610843503203
2.6057733711770146
2.6910066596978517
2.7702886354483645
2.8438565157069657
2.9116073126940925
2.973604432403776
3.0299690175497194
3.080869240074707
3.1265051834463753
3.1671092640167546
3.2029337070563613
3.2342361696506083
3.2611108050825592
3.283794838045646
3.3024886522586723
3.317399679421574
3.3285506667899427
3.336117323215134
3.3401997240590573
3.340848747076553
3.3380615465727184
3.33177317021376
3.3218465144087994
3.3080634032842466
3.290126019735826
3.2676345694535645
3.2401292128273216
3.207077304093547
3.1680807497389947
3.122902282712255
3.071735798997387
3.0156597287937608
2.957430173100752
2.904197940413559
2.8983003972119707
2.9392013137211084
2.984574109306439
3.0276590901864053
3.0658929422679257
3.098284241963233
3.1247094418576173
3.1454517133278452
3.1609770532674957
3.1718057316978814
3.1783224063899502
3.180975816557394
3.180061663966754
3.175842800187383
3.168455692557513
3.157979327239634
3.1444317441993914
3.12780661452014
3.108031760158151
3.0849082916237953
3.0586241351424035
3.028964330892949
2.9957949625265488
2.958971332551563
2.918365219497102
2.8739271224240897
2.825267944628047
2.7722985058295806
2.7148856979858955
2.6529036373107795
2.5862451305183134
2.5148284691456975
2.438603786879503
2.3575587090289436
2.271722385653809
2.1811664829071953
2.0860015457426417
1.9863685111133766
1.8824248648872708
1.774326714600646
1.6622069572589226
1.5461482941769082
1.426147104139652
1.3020596281349888
1.1735129001674425
1.0397416043686893
0.8992540448411414
0.7490433033029339
0.5822902408775388
0.378737859204718
0.42382626643339205
0.651436033908231
0.8377240063872208
1.0053487901309068
1.1619237483119982
1.3107907259361096
1.453615263482686
1.5911937420486173
1.7239234294774912
1.8519357744885736
1.9752028940906372
2.0935988813156725
2.2069428229201264
2.3150271660515185
2.417645105152322
2.514610843503203
2.6057733711770146
2.6910066596978517
2.7702886354483645
2.8438565157069657
2.9116073126940925
2.973604432403776
3.0299690175497194
3.080869240074707
3.1265051834463753
3.1671092640167546
3.2029337070563613
3.2342361696506083
3.2611108050825592
3.283794838045646
3.3024886522586723
3.317399679421574
3.3285506667899427
3.336117323215134
3.3401997240590573
3.340848747076553
3.3380615465727184
3.33177317021376
3.3218465144087994
3.3080634032842466
3.290126019735826
3.2676345694535645
3.2401292128273216
3.207077304093547
3.1680807497389947
3.122902282712255
3.071735798997387
3.0156597287937608
2.957430173100752
2.904197940413559
2.8983003972119707
2.9392013137211084
2.984574109306439
3.0276590901864053
3.0658929422679257
3.098284241963233
3.1247094418576173
3.1454517133278452
3.1609770532674957
3.1718057316978814
3.1783224063899502
3.180975816557394
3.180061663966754
3.175842800187383
3.168455692557513
3.157979327239634
3.1444317441993914
3.12780661452014
3.108031760158151
3.0849082916237953
3.0586241351424035
3.028964330892949
2.9957949625265488
2.958971332551563
2.918365219497102
2.8739271224240897
2.825267944628047
2.7722985058295806
2.7148856979858955
2.6529036373107795
2.5862451305183134
2.5148284691456975
2.438603786879503
2.3575587090289436
2.271722385653809
2.1811664829071953
2.0860015457426417
1.9863685111133766
1.8824248648872708
1.774326714600646
1.6622069572589226
1.5461482941769082
1.426147104139652
1.3020596281349888
1.1735129001674425