# vtk DataFile Version 4.0
[MyVLM domain - lattices] 
ASCII
DATASET UNSTRUCTURED_GRID
POINTS 302 float
0.03418245623128627 -0.8075421333269897 -6.425456686750748
0.03405815639044523 -0.8028252942143301 -6.429780510986399
0.03391102596659257 -0.7972420968973044 -6.434898507020435
0.033741064959728284 -0.7907925413759127 -6.440810674852855
0.03354827336985238 -0.7834766276501548 -6.447517014483661
0.03333265119696486 -0.7752943557200307 -6.455017525912851
0.033094198441065724 -0.766245725585541 -6.463312209140426
0.03283291510215496 -0.7563307372466845 -6.472401064166386
0.03254880118023258 -0.7455493907034627 -6.48228409099073
0.03224185667529859 -0.7339016859558745 -6.492961289613459
0.03191208158735297 -0.7213876230039202 -6.504432660034575
0.03155947591639573 -0.7080072018475998 -6.516698202254074
0.031184039662426874 -0.6937604224869138 -6.529757916271958
0.030785772825446388 -0.6786472849218612 -6.543611802088226
0.030364675405454292 -0.6626677891524426 -6.55825985970288
0.029920747402450574 -0.6458219351786583 -6.573702089115918
0.02945398881643524 -0.6281097230005075 -6.589938490327342
0.028964399647408278 -0.6095311526179907 -6.606969063337151
0.028451979895369697 -0.590086224031108 -6.624793808145344
0.027916729560319504 -0.5697749372398593 -6.643412724751921
0.02735864864225769 -0.5485972922442444 -6.662825813156885
0.02677773714118425 -0.5265532890442635 -6.683033073360232
0.026173995057099195 -0.5036429276399166 -6.704034505361965
0.02554742239000252 -0.4798662080312033 -6.725830109162081
0.024898019139894225 -0.45522313021812433 -6.748419884760584
0.02422578530677431 -0.4297136942006791 -6.771803832157471
0.023530720890642776 -0.40333789997886793 -6.795981951352743
0.02281282589149962 -0.3760957475526907 -6.820954242346399
0.022072100309344846 -0.3479872369221473 -6.84672070513844
0.021308544144178453 -0.3190123680872379 -6.873281339728866
0.020522157396000433 -0.28917114104796227 -6.900636146117678
0.0197129400648108 -0.2584635558043208 -6.928785124304874
0.01888089215060955 -0.2268896123563131 -6.9577282742904565
0.018026013653396674 -0.19444931070393956 -6.987465596074421
0.017148304573172183 -0.1611426508471998 -7.017997089656771
0.01624776490993607 -0.12696963278609397 -7.0493227550375055
0.015324394663688332 -0.09193025652062203 -7.081442592216628
0.014378193834428982 -0.05602452205078423 -7.114356601194132
0.013409162422158009 -0.019252429376580227 -7.148064781970022
0.01241730042687542 0.018386021501989647 -7.182567134544298
0.01140260784858121 0.05689083058492578 -7.217863658916956
0.010365084687275377 0.096261997872228 -7.253954355088
0.009304730942957926 0.1364995233638962 -7.29083922305743
0.00822154661562885 0.17760340705993066 -7.328518262825244
0.007115531705288159 0.219573648960331 -7.366991474391443
0.005986686211935847 0.26241024906509747 -7.406258857756026
0.0048350101355719155 0.30611320737423 -7.446320412918996
0.0036605034761963643 0.3506825238877286 -7.487176139880349
0.0024631662338091996 0.396118198605593 -7.528826038640087
0.0012429984084104096 0.4424202315278237 -7.571270109198211
0.0 0.48958862265442044 -7.6145083515547185
0.0012429984084104159 0.4463681826242718 -7.661693055507928
0.0024631662338092117 0.4039415874110035 -7.708011101633427
0.003660503476196388 0.36230883701461547 -7.753462489931214
0.004835010135571945 0.3214699314351077 -7.798047220401287
0.00598668621193588 0.28142487067248023 -7.841765293043649
0.007115531705288196 0.24217365472673313 -7.8846167078582985
0.008221546615628893 0.20371628359786617 -7.926601464845237
0.00930473094295797 0.1660527572858796 -7.9677195640044625
0.010365084687275426 0.12918307579077326 -8.007971005335976
0.011402607848581263 0.09310723911254715 -8.047355788839777
0.012417300426875482 0.05782524725120136 -8.085873914515867
0.013409162422158075 0.02333710020673596 -8.123525382364246
0.014378193834429051 -0.010357202020849332 -8.16031019238491
0.01532439466368841 -0.04325765943155435 -8.196228344577865
0.016247764909936145 -0.07536427202537899 -8.231279838943106
0.017148304573172263 -0.10667703980232324 -8.265464675480636
0.018026013653396764 -0.13719596276238732 -8.298782854190454
0.018880892150609643 -0.16692104090557125 -8.33123437507256
0.0197129400648109 -0.1958522742318749 -8.362819238126953
0.02052215739600054 -0.22398966274129803 -8.393537443353635
0.021308544144178557 -0.25133320643384116 -8.423388990752604
0.022072100309344957 -0.27788290530950377 -8.452373880323861
0.02281282589149973 -0.3036387593682861 -8.480492112067408
0.02353072089064289 -0.3286007686101883 -8.507743685983241
0.02422578530677443 -0.35276893303521006 -8.534128602071362
0.02489801913989435 -0.3761432526433518 -8.559646860331773
0.02554742239000265 -0.39872372743461304 -8.58429846076447
0.026173995057099327 -0.4205103574089941 -8.608083403369456
0.026777737141184386 -0.4415031425664948 -8.631001688146728
0.027358648642257826 -0.46170208290711534 -8.65305331509629
0.027916729560319646 -0.4811071784308555 -8.67423828421814
0.02845197989536984 -0.4997184291377153 -8.694556595512276
0.028964399647408417 -0.5175358350276951 -8.714008248978702
0.029453988816435375 -0.5345593961007942 -8.732593244617416
0.02992074740245072 -0.5507891123570134 -8.750311582428417
0.030364675405454438 -0.5662249837963522 -8.767163262411707
0.03078577282544654 -0.5808670104188107 -8.783148284567282
0.031184039662427027 -0.5947151922243892 -8.798266648895149
0.03155947591639588 -0.6077695292130869 -8.812518355395301
0.031912081587353126 -0.6200300213849048 -8.825903404067743
0.03224185667529874 -0.6314966687398418 -8.838421794912472
0.03254880118023275 -0.6421694712778991 -8.850073527929489
0.03283291510215513 -0.6520484289990758 -8.860858603118794
0.03309419844106589 -0.6611335419033724 -8.870777020480388
0.03333265119696502 -0.6694248099907885 -8.879828780014268
0.03354827336985255 -0.6769222332613245 -8.888013881720438
0.03374106495972845 -0.6836258117149803 -8.895332325598895
0.03391102596659273 -0.6895355453517555 -8.90178411164964
0.0340581563904454 -0.694651434171651 -8.907369239872674
0.034182456231286434 -0.6989734781746657 -8.912087710267993
0.04785543872380081 -1.3046807046890891 -6.44716222553261
0.047731138882959774 -1.2999638655764294 -6.451486049768261
0.04758400845910711 -1.294380668259404 -6.456604045802296
0.04741404745224283 -1.287931112738012 -6.462516213634717
0.04722125586236693 -1.280615199012254 -6.469222553265522
0.0470056336894794 -1.27243292708213 -6.4767230646947125
0.04676718093358027 -1.26338429694764 -6.485017747922287
0.046505897594669506 -1.253469308608784 -6.494106602948246
0.04622178367274713 -1.242687962065562 -6.503989629772592
0.04591483916781313 -1.231040257317974 -6.514666828395322
0.04558506407986751 -1.2185261943660195 -6.526138198816436
0.04523245840891028 -1.2051457732096993 -6.5384037410359355
0.04485702215494142 -1.190898993849013 -6.551463455053819
0.04445875531796094 -1.1757858562839605 -6.565317340870088
0.04403765789796884 -1.1598063605145421 -6.579965398484741
0.04359372989496512 -1.1429605065407575 -6.59540762789778
0.04312697130894979 -1.125248294362607 -6.611644029109203
0.042637382139922825 -1.10666972398009 -6.628674602119013
0.04212496238788425 -1.0872247953932073 -6.646499346927205
0.04158971205283405 -1.0669135086019585 -6.665118263533783
0.041031631134772234 -1.0457358636063439 -6.6845313519387455
0.0404507196336988 -1.023691860406363 -6.704738612142092
0.03984697754961374 -1.0007814990020159 -6.725740044143826
0.03922040488251706 -0.9770047793933027 -6.747535647943943
0.03857100163240877 -0.9523617015802237 -6.770125423542446
0.03789876779928885 -0.9268522655627784 -6.793509370939332
0.03720370338315732 -0.9004764713409674 -6.8176874901346025
0.03648580838401416 -0.8732343189147901 -6.842659781128261
0.03574508280185939 -0.8451258082842467 -6.868426243920302
0.034981526636692996 -0.8161509394493374 -6.894986878510729
0.034195139888514976 -0.7863097124100618 -6.92234168489954
0.03338592255732535 -0.7556021271664204 -6.950490663086735
0.032553874643124085 -0.7240281837184124 -6.979433813072316
0.03169899614591123 -0.691587882066039 -7.009171134856282
0.030821287065686723 -0.6582812222092991 -7.039702628438632
0.029920747402450616 -0.6241082041481933 -7.071028293819369
0.02899737715620288 -0.5890688278827214 -7.1031481309984885
0.028051176326943518 -0.5531630934128835 -7.1360621399759925
0.027082144914672555 -0.5163910007386796 -7.1697703207518835
0.026090282919389966 -0.47875254986010973 -7.204272673326158
0.025075590341095754 -0.44024774077717366 -7.239569197698818
0.024038067179789922 -0.4008765734898714 -7.275659893869862
0.022977713435472467 -0.36063904799820323 -7.312544761839292
0.021894529108143393 -0.3195351643021688 -7.350223801607106
0.020788514197802702 -0.27756492240176844 -7.388697013173304
0.019659668704450392 -0.2347283222970019 -7.427964396537888
0.018507992628086462 -0.1910253639878694 -7.468025951700856
0.017333485968710906 -0.1464560474743708 -7.508881678662211
0.016136148726323744 -0.10102037275650633 -7.550531577421949
0.014915980900924952 -0.05471833983427576 -7.592975647980071
0.013672982492514543 -0.007549948707679 -7.636213890336578
0.01491598090092496 -0.05077038873782757 -7.683398594289789
0.016136148726323758 -0.09319698395109588 -7.729716640415287
0.017333485968710934 -0.13482973434748402 -7.7751680287130736
0.018507992628086486 -0.17566863992699178 -7.819752759183149
0.019659668704450423 -0.21571370068961906 -7.863470831825509
0.020788514197802737 -0.25496491663536625 -7.90632224664016
0.021894529108143438 -0.2934222877642332 -7.9483070036270975
0.022977713435472516 -0.33108581407621984 -7.989425102786323
0.024038067179789967 -0.3679554955713261 -8.029676544117837
0.02507559034109581 -0.40403133224955234 -8.06906132762164
0.026090282919390025 -0.4393133241108981 -8.10757945329773
0.02708214491467261 -0.4738014711553635 -8.145230921146107
0.028051176326943594 -0.5074957733829486 -8.182015731166771
0.028997377156202958 -0.5403962307936536 -8.217933883359725
[...]
CELL_DATA 200

VECTORS Vinf float
5.240070330536444 -41.380617763582244 8.688258039394343
5.225659341373706 -41.41470634317532 8.653336589425015
5.209028483706982 -41.454489697332995 8.612600936073997
5.19029437286509 -41.49994665876415 8.566080117594124
5.1696034613259325 -41.55105145448387 8.513807675395485
5.147134982727094 -41.60777341664218 8.455821488454994
5.123102814663392 -41.6700768628633 8.392163424868231
5.097755821014619 -41.73792120336397 8.322878779528331
5.074888241080737 -41.80984890245005 8.253131520880105
5.049360410534803 -41.88840658603106 8.172884097831904
5.023323217909444 -41.972352159076664 8.087258662328857
4.99710616974688 -42.06163003106919 7.996325866689533
4.971049758439685 -42.1561833553278 7.9001560455814985
4.945494800012562 -42.255955554085006 7.798817925593997
4.91768979586193 -42.35930503072674 7.699825141042824
4.895614383750509 -42.46962044620444 7.586324451856073
4.874514252743504 -42.585148427286 7.467465481841925
4.854586769139501 -42.705861853900245 7.343266836818816
4.835998249284784 -42.83173806092362 7.21374296989768
4.818884969012606 -42.962758483437696 7.0789050912042795
4.80335664990584 -43.09890797612621 6.938762301706872
4.789501710467587 -43.24017392582685 6.793322803570677
4.777393400459393 -43.38654529200135 6.642595043570298
4.7670959466184515 -43.53801169899438 6.486588675697185
4.758669996533743 -43.694562673257245 6.325315274242903
4.750531784732394 -43.855828333199035 6.161717776888584
4.7455199030675 -44.022618114930154 5.989674032399157
4.741894584199979 -44.19508256221218 5.810230378367485
4.739055163985285 -44.37252559678736 5.626385438868339
4.737496659112137 -44.555186159573495 5.43703038012623
4.737361452583572 -44.743049565658126 5.242156735759814
4.738785820368504 -44.93610196068772 5.041755204276746
4.74190883880353 -45.134329172112196 4.8358164953848455
4.746879481138086 -45.33771586499358 4.624331756011411
4.753860310033752 -45.546245194520864 4.407292538111534
4.7598268528483 -45.76039059122431 4.18373463728986
4.770352875101774 -45.98002423607856 3.952800557782491
4.780203361663657 -46.20435703812546 3.719202251165312
4.7923182965407625 -46.43385296035248 3.479850845221791
4.806665019233366 -46.66852472900551 3.234712574264851
4.823065947206624 -46.90840151785813 2.9837475150843042
4.8411389431372465 -47.153534197825095 2.7269084120674485
4.8602473755044215 -47.403999009917236 2.4641405775823806
4.87730423641888 -47.66013725729468 2.1954738569337056
4.893747604360894 -47.921711649861926 1.9211728177358203
4.907859754920481 -48.188947358388695 1.6410039861450432
4.9186545877770484 -48.46194320875397 1.3549539792134504
4.925661669521352 -48.740743505724936 1.063044220684073
4.92907967868372 -49.02532429670737 0.7653287742253005
4.932425943000881 -49.3151361511525 0.4619448282352804
4.9336246544361355 -49.61453603599309 0.45544009745392916
4.933603429861325 -49.91809164935138 0.745229661636227
4.933655614650999 -50.21572143825584 1.030042075246023
4.930066257512426 -50.50807420865836 1.309566461718089
4.922461649782115 -50.79519105155828 1.583862222194877
4.911244854292568 -51.077035087815766 1.852960959082531
4.895859582011013 -51.353416559687986 2.1176080346533688
4.880030014884948 -51.6244907043867 2.376249143724457
4.862681235344579 -51.8901785979232 2.628854629262717
4.847659788396195 -52.149866124588506 2.8772937002401275
4.833616804460243 -52.40384297181734 3.1202624977346383
4.8209194635659784 -52.65206980682003 3.3577396684935508
4.8097116590909605 -52.8945308598747 3.5897107265941006
4.799814023704779 -53.131218898070564 3.8164498473406607
4.79145931988169 -53.362114320880785 4.037699672674419
4.784425339134241 -53.587242028916386 4.25356247768187
4.7777269250727405 -53.806472557135535 4.464652783876423
4.7739241603893 -54.02005455099869 4.6695629054406975
4.770722258627445 -54.22793047227142 4.869175194980752
4.7681137922738825 -54.43010688453724 5.063476282925314
4.766113298363062 -54.62658790817175 5.252452245221534
4.764767358026428 -54.81751480857117 5.435522154097691
4.764925562658908 -55.00253273919104 5.613626328340274
4.766128266311539 -55.1818295916616 5.786323812581621
4.768449934601906 -55.35540121082368 5.953608756675856
4.771983482547524 -55.523241905860516 6.115474191310554
4.778463458678532 -55.68498637160359 6.272944636004426
4.784605253245856 -55.84127658827416 6.424304082781406
4.792314484575409 -55.99184301584296 6.570068697911402
4.801673980903701 -56.13667838508132 6.7102443823244915
4.812758641802516 -56.275776180349965 6.844836200689876
4.825622932660235 -56.409131626374595 6.973849009673049
4.8402723392170985 -56.53704588981843 7.096003803030294
4.857340491940251 -56.658800415955916 7.214171625593892
4.876253644243456 -56.77479123688204 7.326841116228546
4.896875030608464 -56.885031246321375 7.4340116668245795
4.919001589907491 -56.98953846167644 7.535686383368666
4.942369721670204 -57.08833551306185 7.631872122033728
4.966665927835337 -57.18144875337187 7.722579238245056
4.991541046401712 -57.26890709605036 7.807821086916515
5.016626398677871 -57.35074071610624 7.887613341173377
5.041550097442693 -57.426979754030924 7.961973211707114
5.065951963138142 -57.4976531447969 8.030918649250207
5.08949588430646 -57.562787662009036 8.094467601247757
5.110533117159367 -57.622108971236045 8.154298056099172
5.131617003091236 -57.67621005844954 8.207159191797038
5.151050490964459 -57.72483596103403 8.254663281804703
5.168648200141934 -57.76800080163908 8.296824351718783
5.184263224496828 -57.80571561252459 8.333654504845018
5.197782921745163 -57.83798870668831 8.365163936338677
5.240070330536444 -41.380617763582244 8.688258039394343
5.225659341373706 -41.41470634317532 8.653336589425015
5.209028483706982 -41.454489697332995 8.612600936073997
5.19029437286509 -41.49994665876415 8.566080117594124
5.1696034613259325 -41.55105145448387 8.513807675395485
5.147134982727094 -41.60777341664218 8.455821488454994
5.123102814663392 -41.6700768628633 8.392163424868231
5.097755821014619 -41.73792120336397 8.322878779528331
5.074888241080737 -41.80984890245005 8.253131520880105
5.049360410534803 -41.88840658603106 8.172884097831904
5.023323217909444 -41.972352159076664 8.087258662328857
4.99710616974688 -42.06163003106919 7.996325866689533
4.971049758439685 -42.1561833553278 7.9001560455814985
4.945494800012562 -42.255955554085006 7.798817925593997
4.91768979586193 -42.35930503072674 7.699825141042824
4.895614383750509 -42.46962044620444 7.586324451856073
4.874514252743504 -42.585148427286 7.467465481841925
4.854586769139501 -42.705861853900245 7.343266836818816
4.835998249284784 -42.83173806092362 7.21374296989768
4.818884969012606 -42.962758483437696 7.0789050912042795
4.80335664990584 -43.09890797612621 6.938762301706872
4.789501710467587 -43.24017392582685 6.793322803570677
4.777393400459393 -43.38654529200135 6.642595043570298
4.7670959466184515 -43.53801169899438 6.486588675697185
4.758669996533743 -43.694562673257245 6.325315274242903
4.750531784732394 -43.855828333199035 6.161717776888584
4.7455199030675 -44.022618114930154 5.989674032399157
4.741894584199979 -44.19508256221218 5.810230378367485
4.739055163985285 -44.37252559678736 5.626385438868339
4.737496659112137 -44.555186159573495 5.43703038012623
4.737361452583572 -44.743049565658126 5.242156735759814
4.738785820368504 -44.93610196068772 5.041755204276746
4.74190883880353 -45.134329172112196 4.8358164953848455
4.746879481138086 -45.33771586499358 4.624331756011411
4.753860310033752 -45.546245194520864 4.407292538111534
4.7598268528483 -45.76039059122431 4.18373463728986
4.770352875101774 -45.98002423607856 3.952800557782491
4.780203361663657 -46.20435703812546 3.719202251165312
4.7923182965407625 -46.43385296035248 3.479850845221791
4.806665019233366 -46.66852472900551 3.234712574264851
4.823065947206624 -46.90840151785813 2.9837475150843042
4.8411389431372465 -47.153534197825095 2.7269084120674485
4.8602473755044215 -47.403999009917236 2.4641405775823806
4.87730423641888 -47.66013725729468 2.1954738569337056
4.893747604360894 -47.921711649861926 1.9211728177358203
4.907859754920481 -48.188947358388695 1.6410039861450432
4.9186545877770484 -48.46194320875397 1.3549539792134504
4.925661669521352 -48.740743505724936 1.063044220684073
4.92907967868372 -49.02532429670737 0.7653287742253005
4.932425943000881 -49.3151361511525 0.4619448282352804
4.9336246544361355 -49.61453603599309 0.45544009745392916
4.933603429861325 -49.91809164935138 0.745229661636227
4.933655614650999 -50.21572143825584 1.030042075246023
4.930066257512426 -50.50807420865836 1.309566461718089
4.922461649782115 -50.79519105155828 1.583862222194877
4.911244854292568 -51.077035087815766 1.852960959082531
4.895859582011013 -51.353416559687986 2.1176080346533688
4.880030014884948 -51.6244907043867 2.376249143724457
4.862681235344579 -51.8901785979232 2.628854629262717
4.847659788396195 -52.149866124588506 2.8772937002401275
4.833616804460243 -52.40384297181734 3.1202624977346383
4.8209194635659784 -52.65206980682003 3.3577396684935508
4.8097116590909605 -52.8945308598747 3.5897107265941006
4.799814023704779 -53.131218898070564 3.8164498473406607
4.79145931988169 -53.362114320880785 4.037699672674419
4.784425339134241 -53.587242028916386 4.25356247768187
4.7777269250727405 -53.806472557135535 4.464652783876423
4.7739241603893 -54.02005455099869 4.6695629054406975
4.770722258627445 -54.22793047227142 4.869175194980752
4.7681137922738825 -54.43010688453724 5.063476282925314
4.766113298363062 -54.62658790817175 5.252452245221534
4.764767358026428 -54.81751480857117 5.435522154097691
4.764925562658908 -55.00253273919104 5.613626328340274
4.766128266311539 -55.1818295916616 5.786323812581621
4.768449934601906 -55.35540121082368 5.953608756675856
4.771983482547524 -55.523241905860516 6.115474191310554
4.778463458678532 -55.68498637160359 6.272944636004426
4.784605253245856 -55.84127658827416 6.424304082781406
4.792314484575409 -55.99184301584296 6.570068697911402
4.801673980903701 -56.13667838508132 6.7102443823244915
4.812758641802516 -56.275776180349965 6.844836200689876
4.825622932660235 -56.409131626374595 6.973849009673049
4.8402723392170985 -56.53704588981843 7.096003803030294
4.857340491940251 -56.658800415955916 7.214171625593892
4.876253644243456 -56.77479123688204 7.326841116228546
4.896875030608464 -56.885031246321375 7.4340116668245795
4.919001589907491 -56.98953846167644 7.535686383368666
4.942369721670204 -57.08833551306185 7.631872122033728
4.966665927835337 -57.18144875337187 7.722579238245056
4.991541046401712 -57.26890709605036 7.807821086916515
5.016626398677871 -57.35074071610624 7.887613341173377
5.041550097442693 -57.426979754030924 7.961973211707114
5.065951963138142 -57.4976531447969 8.030918649250207
5.08949588430646 -57.562787662009036 8.094467601247757
5.110533117159367 -57.622108971236045 8.154298056099172
5.131617003091236 -57.67621005844954 8.207159191797038
5.151050490964459 -57.72483596103403 8.254663281804703
5.168648200141934 -57.76800080163908 8.296824351718783
5.184263224496828 -57.80571561252459 8.333654504845018
5.197782921745163 -57.83798870668831 8.365163936338677

VECTORS L float
0.05867410408431957 0.0 0.0
0.10609226574848916 0.0 0.0
0.15752593955083635 0.0 0.0
0.2147052871080237 0.0 0.0
0.27812353433257164 0.0 0.0
0.3479398697817576 0.0 0.0
0.4241750978088832 0.0 0.0
0.5067714454789455 0.0 0.0
0.5956217176171476 0.0 0.0
0.6905798543780459 0.0 0.0
0.7913659593121973 0.0 0.0
0.8977560253377688 0.0 0.0
1.0094332476843721 0.0 0.0
1.1260671407916079 0.0 0.0
1.2472591623015978 0.0 0.0
1.3727346019706959 0.0 0.0
1.50203593237188 0.0 0.0
1.6348707430814244 0.0 0.0
1.7708134330936776 0.0 0.0
1.9095152856634379 0.0 0.0
2.0506551627612413 0.0 0.0
2.193939532495635 0.0 0.0
2.3391043902738864 0.0 0.0
2.4859119688790923 0.0 0.0
2.634146302242979 0.0 0.0
2.7835362818596314 0.0 0.0
2.934037403343293 0.0 0.0
3.0854098152512934 0.0 0.0
3.2379351394084432 0.0 0.0
3.3905124718671384 0.0 0.0
3.543509660455358 0.0 0.0
3.6967831032874896 0.0 0.0
3.8501672164419887 0.0 0.0
4.003458381764637 0.0 0.0
4.15638726827961 0.0 0.0
4.3085008875280675 0.0 0.0
4.459687123529475 0.0 0.0
4.609181833620337 0.0 0.0
4.756470846206097 0.0 0.0
4.900816894397357 0.0 0.0
5.041253140002557 0.0 0.0
5.176562787894261 0.0 0.0
5.305231043579179 0.0 0.0
5.424926328708237 0.0 0.0
5.535516889018099 0.0 0.0
5.63456718018982 0.0 0.0
5.7215627052831675 0.0 0.0
5.797688792128116 0.0 0.0
5.868532064513195 0.0 0.0
5.959037140563304 0.0 0.0
6.219895303308015 0.0 0.0
6.248559130885487 0.0 0.0
6.294055825218631 0.0 0.0
6.330886756662713 0.0 0.0
6.352596512641488 0.0 0.0
6.357066648157295 0.0 0.0
6.344168946455583 0.0 0.0
6.315000500928638 0.0 0.0
6.270729306548626 0.0 0.0
6.2129074926633265 0.0 0.0
6.142691029957323 0.0 0.0
6.061172138494661 0.0 0.0
5.969256772247059 0.0 0.0
5.867800577744623 0.0 0.0
5.757470856696683 0.0 0.0
5.638869389407938 0.0 0.0
5.512407845473642 0.0 0.0
5.378600787477239 0.0 0.0
5.237693589005799 0.0 0.0
5.089993228379951 0.0 0.0
4.935813864721767 0.0 0.0
4.775480685988352 0.0 0.0
4.609397438911629 0.0 0.0
4.437879589094068 0.0 0.0
4.261298289326018 0.0 0.0
4.080050280721866 0.0 0.0
3.8946137025586647 0.0 0.0
3.7053733780498113 0.0 0.0
3.5129102901049456 0.0 0.0
3.317827224272327 0.0 0.0
3.1207839328958005 0.0 0.0
2.9225052975452925 0.0 0.0
2.7237681662262836 0.0 0.0
2.5254284855324505 0.0 0.0
2.3283864691237093 0.0 0.0
2.1335222988211586 0.0 0.0
1.9418074591338357 0.0 0.0
1.7542268664728087 0.0 0.0
1.5717357222428048 0.0 0.0
1.3952627278618643 0.0 0.0
1.2256880265216892 0.0 0.0
1.0638304433490022 0.0 0.0
0.9104341680271919 0.0 0.0
0.7661574302764141 0.0 0.0
0.6315569192049548 0.0 0.0
0.5070840797608627 0.0 0.0
0.39300593119165234 0.0 0.0
0.2893122387391748 0.0 0.0
0.1953409236050469 0.0 0.0
0.1080720314816342 0.0 0.0
0.05867410408431957 0.0 0.0
0.10609226574848916 0.0 0.0
0.15752593955083635 0.0 0.0
0.2147052871080237 0.0 0.0
0.27812353433257164 0.0 0.0
0.3479398697817576 0.0 0.0
0.4241750978088832 0.0 0.0
0.5067714454789455 0.0 0.0
0.5956217176171476 0.0 0.0
0.6905798543780459 0.0 0.0
0.7913659593121973 0.0 0.0
0.8977560253377688 0.0 0.0
1.0094332476843721 0.0 0.0
1.1260671407916079 0.0 0.0
1.2472591623015978 0.0 0.0
1.3727346019706959 0.0 0.0
1.50203593237188 0.0 0.0
1.6348707430814244 0.0 0.0
1.7708134330936776 0.0 0.0
1.9095152856634379 0.0 0.0
2.0506551627612413 0.0 0.0
2.193939532495635 0.0 0.0
2.3391043902738864 0.0 0.0
2.4859119688790923 0.0 0.0
2.634146302242979 0.0 0.0
2.7835362818596314 0.0 0.0
2.934037403343293 0.0 0.0
3.0854098152512934 0.0 0.0
3.2379351394084432 0.0 0.0
3.3905124718671384 0.0 0.0
3.543509660455358 0.0 0.0
3.6967831032874896 0.0 0.0
3.8501672164419887 0.0 0.0
4.003458381764637 0.0 0.0
4.15638726827961 0.0 0.0
4.3085008875280675 0.0 0.0
4.459687123529475 0.0 0.0
4.609181833620337 0.0 0.0
4.756470846206097 0.0 0.0
4.900816894397357 0.0 0.0
5.041253140002557 0.0 0.0
5.176562787894261 0.0 0.0
5.305231043579179 0.0 0.0
5.424926328708237 0.0 0.0
5.535516889018099 0.0 0.0
5.63456718018982 0.0 0.0
5.7215627052831675 0.0 0.0
5.797688792128116 0.0 0.0
5.868532064513195 0.0 0.0
5.959037140563304 0.0 0.0
6.219895303308015 0.0 0.0
6.248559130885487 0.0 0.0
6.294055825218631 0.0 0.0
6.330886756662713 0.0 0.0
6.352596512641488 0.0 0.0
6.357066648157295 0.0 0.0
6.344168946455583 0.0 0.0
6.315000500928638 0.0 0.0
6.270729306548626 0.0 0.0
6.2129074926633265 0.0 0.0
6.142691029957323 0.0 0.0
6.061172138494661 0.0 0.0
5.969256772247059 0.0 0.0
5.867800577744623 0.0 0.0
5.757470856696683 0.0 0.0
5.638869389407938 0.0 0.0
5.512407845473642 0.0 0.0
5.378600787477239 0.0 0.0
5.237693589005799 0.0 0.0
5.089993228379951 0.0 0.0
4.935813864721767 0.0 0.0
4.775480685988352 0.0 0.0
4.609397438911629 0.0 0.0
4.437879589094068 0.0 0.0
4.261298289326018 0.0 0.0
4.080050280721866 0.0 0.0
3.8946137025586647 0.0 0.0
3.7053733780498113 0.0 0.0
3.5129102901049456 0.0 0.0
3.317827224272327 0.0 0.0
3.1207839328958005 0.0 0.0
2.9225052975452925 0.0 0.0
2.7237681662262836 0.0 0.0
2.5254284855324505 0.0 0.0
2.3283864691237093 0.0 0.0
2.1335222988211586 0.0 0.0
1.9418074591338357 0.0 0.0
1.7542268664728087 0.0 0.0
1.5717357222428048 0.0 0.0
1.3952627278618643 0.0 0.0
1.2256880265216892 0.0 0.0
1.0638304433490022 0.0 0.0
0.9104341680271919 0.0 0.0
0.7661574302764141 0.0 0.0
0.6315569192049548 0.0 0.0
0.5070840797608627 0.0 0.0
0.39300593119165234 0.0 0.0
0.2893122387391748 0.0 0.0
0.1953409236050469 0.0 0.0
0.1080720314816342 0.0 0.0

SCALARS Gamma float
LOOKUP_TABLE default
0.424535127234026
0.6525200615420339
0.8391096468450985
1.0070005520313008
1.1638181183925194
1.312912540587134
1.4559358438102623
1.5937270170755422
1.7267051335021077
1.8549506310008936
1.9784443900042683
2.097072571491652
2.210612771453652
2.318867942724133
2.4215674361091155
2.518723301113644
2.6101078881953104
2.695598247376267
2.775146316591097
2.8487628842034605
2.9165147908825304
2.9785142017178963
3.034912248739811
3.0858874034831176
3.1316347687946036
3.1723410816243827
3.208267065810365
3.239585465598316
3.266474226402596
3.2891567267559334
3.3078377906797054
3.322700690317802
3.333899470924987
3.3415500853573454
3.3457142009078673
3.3463218046942127
3.343572926878619
3.3371936961506394
3.3271304896378946
3.3132024201160384
3.295118599017708
3.272485247990254
3.2447970858305517
3.2115781043108425
3.172496340058389
3.127210403252226
3.075937896108114
3.019759418768532
2.9614494481947826
2.908221277403019
2.902324092221181
2.9432334844802543
2.9887341549966893
3.0319428322092437
3.070269477120008
3.1027176341260465
3.129119089486584
3.14985640867779
3.1653358305241626
3.1761529962650004
3.1827120266012097
3.1853870380963514
3.1844593051407126
3.180185161192785
3.172721530423095
3.1621868484736284
3.148589315392389
3.1319853241308984
3.1122680565644476
3.089347660944777
3.0631210683798598
3.0334728845971686
3.0003171539610025
2.9634916768356594
2.9228443751077338
2.8782142604708043
2.829469732366857
2.776384591238202
2.718842187206288
2.6567181908167425
2.589907327367606
2.518334406760717
2.4419493770150673
2.360758265085045
2.27480339360675
2.184108380558219
2.088792149262413
1.989010200455057
1.884915573514139
1.7766637729072918
1.6643862720325742
1.5481655589903203
1.4279973816299196
1.3037364441921706
1.1750028473171796
1.0410524692692258
0.9003827656722482
0.7499808787128274
0.5830184509180258
0.37921111078261815
0.424535127234026
0.6525200615420339
0.8391096468450985
1.0070005520313008
1.1638181183925194
1.312912540587134
1.4559358438102623
1.5937270170755422
1.7267051335021077
1.8549506310008936
1.9784443900042683
2.097072571491652
2.210612771453652
2.318867942724133
2.4215674361091155
2.518723301113644
2.6101078881953104
2.695598247376267
2.775146316591097
2.8487628842034605
2.9165147908825304
2.9785142017178963
3.034912248739811
3.0858874034831176
3.1316347687946036
3.1723410816243827
3.208267065810365
3.239585465598316
3.266474226402596
3.2891567267559334
3.3078377906797054
3.322700690317802
3.333899470924987
3.3415500853573454
3.3457142009078673
3.3463218046942127
3.343572926878619
3.3371936961506394
3.3271304896378946
3.3132024201160384
3.295118599017708
3.272485247990254
3.2447970858305517
3.2115781043108425
3.172496340058389
3.127210403252226
3.075937896108114
3.019759418768532
2.9614494481947826
2.908221277403019
2.902324092221181
2.9432334844802543
2.9887341549966893
3.0319428322092437
3.070269477120008
3.1027176341260465
3.129119089486584
3.14985640867779
3.1653358305241626
3.1761529962650004
3.1827120266012097
3.1853870380963514
3.1844593051407126
3.180185161192785
3.172721530423095
3.1621868484736284
3.148589315392389
3.1319853241308984
3.1122680565644476
3.089347660944777
3.0631210683798598
3.0334728845971686
3.0003171539610025
2.9634916768356594
2.9228443751077338
2.8782142604708043
2.829469732366857
2.776384591238202
2.718842187206288
2.6567181908167425
2.589907327367606
2.518334406760717
2.4419493770150673
2.360758265085045
2.27480339360675
2.184108380558219
2.088792149262413
1.989010200455057
1.884915573514139