# vtk DataFile Version 4.0
[MyVLM domain - lattices] 
ASCII
DATASET UNSTRUCTURED_GRID
POINTS 302 float
0.034182456231286254 -6.016397680926069 -2.0766180777202816
0.03405815639044521 -6.0183229741539135 -2.082720312820827
0.03391102596659255 -6.020601892668505 -2.08994336661331
0.03374106495972827 -6.023234436469844 -2.0982872390977296
0.03354827336985237 -6.02622060555793 -2.1077519302740866
0.033332651196964845 -6.0295603999327625 -2.11833744014238
0.03309419844106571 -6.033253819594343 -2.13004376870261
0.03283291510215495 -6.03730086454267 -2.142870915954778
0.032548801180232574 -6.041701534777744 -2.1568188818988823
0.03224185667529857 -6.046455830299564 -2.1718876665349236
0.031912081587352946 -6.051563751108133 -2.188077269862902
0.03155947591639571 -6.057025297203447 -2.2053876918828177
0.031184039662426857 -6.0628404685855095 -2.2238189325946696
0.030785772825446377 -6.069009265254318 -2.243370991998459
0.030364675405454282 -6.075531687209875 -2.264043870094185
0.029920747402450563 -6.082407734452177 -2.285837566881849
0.02945398881643523 -6.089637406981227 -2.308752082361449
0.028964399647408268 -6.097220704797024 -2.3327874165329865
0.028451979895369687 -6.105157627899569 -2.3579435693964603
0.027916729560319493 -6.113448176288859 -2.3842205409518713
0.027358648642257673 -6.122092349964897 -2.4116183311992194
0.02677773714118424 -6.131090148927683 -2.4401369401385047
0.026173995057099185 -6.140441573177215 -2.469776367769726
0.025547422390002506 -6.1501466227134935 -2.5005366140928853
0.024898019139894215 -6.16020529753652 -2.532417679107981
0.0242257853067743 -6.170617597646293 -2.5654195628150145
0.023530720890642766 -6.181383523042813 -2.599542265213984
0.022812825891499612 -6.192503073726081 -2.634785786304891
0.02207210030934484 -6.203976249696095 -2.671150126087735
0.021308544144178442 -6.2158030509528555 -2.7086352845625155
0.02052215739600043 -6.227983477496364 -2.747241261729233
0.019712940064810794 -6.240517529326619 -2.786968057587888
0.01888089215060954 -6.253405206443621 -2.8278156721384797
0.018026013653396667 -6.26664650884737 -2.869784105381008
0.017148304573172173 -6.2802414365378665 -2.912873357315474
0.01624776490993606 -6.29418998951511 -2.9570834279418765
0.015324394663688326 -6.3084921677791 -3.0024143172602162
0.014378193834428976 -6.3231479713298375 -3.0488660252704927
0.013409162422158007 -6.338157400167322 -3.096438551972706
0.012417300426875414 -6.353520454291553 -3.145131897366856
0.011402607848581204 -6.369237133702531 -3.1949460614529435
0.010365084687275374 -6.385307438400257 -3.245881044230968
0.009304730942957922 -6.401731368384729 -3.2979368457009297
0.008221546615628846 -6.418508923655948 -3.3511134658628277
0.0071155317052881565 -6.435640104213914 -3.4054109047166623
0.0059866862119358445 -6.453124910058628 -3.460829162262435
0.004835010135571913 -6.470963341190088 -3.5173682385001444
0.0036605034761963626 -6.489155397608296 -3.57502813342979
0.0024631662338091987 -6.507701079313249 -3.633808847051373
0.001242998408410409 -6.526600386304951 -3.693710379364893
0.0 -6.545853318583401 -3.7547327303703506
0.0012429984084104102 -6.606882930442423 -3.7355028265773362
0.0024631662338092004 -6.666791590246895 -3.716626125098888
0.0036605034761963712 -6.725579297996813 -3.6981026259350047
0.0048350101355719224 -6.783246053692176 -3.679932329085687
0.005986686211935853 -6.839791857332986 -3.662115234550936
0.007115531705288163 -6.895216708919243 -3.644651342330749
0.008221546615628855 -6.949520608450947 -3.6275406524251284
0.009304730942957926 -7.002703555928096 -3.610783164834073
0.010365084687275377 -7.054765551350693 -3.5943788795575835
0.011402607848581211 -7.105706594718736 -3.57832779659566
0.012417300426875425 -7.155526686032223 -3.562629915948301
0.013409162422158016 -7.204225825291159 -3.547285237615508
0.014378193834428983 -7.251804012495542 -3.5322937615972805
0.01532439466368834 -7.298261247645371 -3.517655487893619
0.016247764909936072 -7.343597530740647 -3.5033704165045223
0.017148304573172186 -7.387812861781367 -3.4894385474299923
0.01802601365339668 -7.430907240767536 -3.4758598806700265
0.018880892150609556 -7.472880667699151 -3.4626344162246276
0.01971294006481081 -7.5137331425762115 -3.4497621540937935
0.020522157396000443 -7.553464665398719 -3.4372430942775254
0.021308544144178456 -7.592075236166673 -3.4250772367758224
0.022072100309344853 -7.6295648548800745 -3.413264581588685
0.022812825891499623 -7.665933521538922 -3.4018051287161133
0.023530720890642783 -7.701181236143215 -3.390698878158107
0.024225785306774317 -7.735307998692955 -3.3799458299146665
0.024898019139894235 -7.768313809188141 -3.369545983985792
0.02554742239000253 -7.800198667628775 -3.3594993403714826
0.02617399505709921 -7.830962574014856 -3.3498058990717383
0.026777737141184265 -7.8606055283463805 -3.34046566008656
0.027358648642257705 -7.889127530623354 -3.3314786234159475
0.027916729560319514 -7.916528580845772 -3.3228447890599
0.02845197989536971 -7.942808679013638 -3.314564157018418
0.028964399647408285 -7.96796782512695 -3.306636727291503
0.02945398881643524 -7.992006019185708 -3.299062499879152
0.029920747402450588 -8.014923261189914 -3.2918414747813673
0.030364675405454303 -8.036719551139566 -3.284973651998148
0.030785772825446395 -8.057394889034663 -3.2784590315294944
0.03118403966242688 -8.076949274875208 -3.2722976133754056
0.03155947591639574 -8.095382708661198 -3.266489397535883
0.03191208158735298 -8.112695190392635 -3.2610343840109253
0.0322418566752986 -8.12888672006952 -3.2559325728005346
0.0325488011802326 -8.14395729769185 -3.251183963904708
0.032832915102154976 -8.157906923259628 -3.2467885573234483
0.03309419844106574 -8.17073559677285 -3.2427463530567535
0.033332651196964866 -8.18244331823152 -3.2390573511046243
0.03354827336985239 -8.193030087635638 -3.2357215514670603
0.0337410649597283 -8.2024959049852 -3.2327389541440623
0.033911025966592574 -8.21084077028021 -3.23010955913563
0.03405815639044524 -8.218064683520666 -3.2278333664417627
0.03418245623128628 -8.224167644706569 -3.2259103760624614
0.04785543872380076 -6.246169418619236 -1.6352306763286897
0.04773113888295972 -6.248094711847081 -1.6413329114292354
0.04758400845910706 -6.250373630361673 -1.648555965221718
0.04741404745224278 -6.253006174163012 -1.656899837706138
0.047221255862366876 -6.255992343251098 -1.6663645288824944
0.047005633689479354 -6.259332137625931 -1.676950038750788
0.04676718093358022 -6.26302555728751 -1.6886563673110184
0.04650589759466946 -6.267072602235837 -1.7014835145631864
0.04622178367274708 -6.271473272470911 -1.7154314805072906
0.04591483916781308 -6.276227567992732 -1.7305002651433317
0.04558506407986746 -6.2813354888013 -1.7466898684713104
0.04523245840891023 -6.286797034896615 -1.7640002904912258
0.04485702215494137 -6.292612206278677 -1.7824315312030778
0.04445875531796089 -6.298781002947486 -1.801983590606867
0.04403765789796879 -6.305303424903042 -1.8226564687025935
0.04359372989496507 -6.312179472145345 -1.8444501654902568
0.043126971308949734 -6.319409144674395 -1.8673646809698574
0.04263738213992277 -6.326992442490192 -1.8914000151413946
0.04212496238788419 -6.334929365592736 -1.9165561680048688
0.041589712052834 -6.343219913982027 -1.9428331395602794
0.04103163113477219 -6.351864087658065 -1.9702309298076275
0.04045071963369875 -6.36086188662085 -1.998749538746913
0.0398469775496137 -6.3702133108703825 -2.0283889663781345
0.03922040488251702 -6.379918360406661 -2.0591492127012936
0.03857100163240873 -6.389977035229688 -2.0910302777163894
0.03789876779928881 -6.400389335339461 -2.1240321614234228
0.037203703383157274 -6.411155260735981 -2.1581548638223924
0.03648580838401412 -6.422274811419248 -2.193398384913299
0.03574508280185935 -6.433747987389262 -2.229762724696143
0.034981526636692954 -6.445574788646024 -2.2672478831709233
0.034195139888514935 -6.457755215189532 -2.3058538603376415
0.03338592255732531 -6.470289267019787 -2.345580656196296
0.032553874643124044 -6.483176944136789 -2.386428270746888
0.03169899614591118 -6.496418246540537 -2.4283967039894163
0.030821287065686685 -6.510013174231034 -2.471485955923882
0.02992074740245057 -6.5239617272082775 -2.515696026550285
0.02899737715620284 -6.538263905472268 -2.561026915868624
0.02805117632694348 -6.552919709023005 -2.607478623878901
0.027082144914672517 -6.56792913786049 -2.655051150581114
0.026090282919389925 -6.583292191984722 -2.7037444959752643
0.025075590341095712 -6.599008871395698 -2.7535586600613517
0.024038067179789884 -6.615079176093423 -2.8044936428393763
0.022977713435472433 -6.631503106077897 -2.8565494443093375
0.021894529108143355 -6.648280661349116 -2.909726064471236
0.020788514197802664 -6.6654118419070825 -2.9640235033250715
0.019659668704450354 -6.682896647751796 -3.0194417608708433
0.01850799262808642 -6.7007350788832545 -3.0759808371085526
0.017333485968710875 -6.718927135301462 -3.1336407320381987
0.01613614872632371 -6.737472817006417 -3.1924214456597815
0.014915980900924919 -6.756372123998118 -3.2523229779733023
0.01367298249251451 -6.775625056276568 -3.313345328978759
0.014915980900924919 -6.836654668135591 -3.294115425185745
0.01613614872632371 -6.896563327940062 -3.275238723707296
0.017333485968710878 -6.95535103568998 -3.256715224543413
0.018507992628086434 -7.0130177913853435 -3.238544927694096
0.019659668704450364 -7.069563595026153 -3.220727833159344
0.02078851419780267 -7.12498844661241 -3.2032639409391575
0.021894529108143365 -7.1792923461441145 -3.1861532510335366
0.022977713435472436 -7.232475293621263 -3.1693957634424814
0.024038067179789888 -7.28453728904386 -3.152991478165992
0.02507559034109572 -7.3354783324119035 -3.1369403952040678
0.02609028291938993 -7.3852984237253905 -3.1212425145567093
0.02708214491467252 -7.4339975629843265 -3.1058978362239165
0.02805117632694349 -7.48157575018871 -3.090906360205689
0.02899737715620285 -7.528032985338538 -3.0762680865020275
0.02992074740245058 -7.573369268433814 -3.061983015112931
[...]
CELL_DATA 200

VECTORS Vinf float
5.17235018424984 -9.615871016855962 41.1819265231689
5.158389359035232 -9.661448346580562 41.1980755473385
5.142314488276461 -9.714633782482446 41.21692501464109
5.124252017074233 -9.775398561138482 41.23846571656154
5.104356721119437 -9.843709298538405 41.26268610196005
5.080644494858659 -9.917313305332913 41.29024318385841
5.056984182942266 -10.00094720290514 41.319831667623646
5.034354826481141 -10.094245105756222 41.3512060342426
5.009805010711412 -10.192048703227249 41.38598447861276
4.984456302156033 -10.297251697740505 41.42335144952475
4.958619160513768 -10.409819935009882 41.46327738403804
4.932625076502267 -10.529720692617218 41.50572994940746
4.906817438779054 -10.656924480188616 41.550674721411795
4.881541220042194 -10.791406819044255 41.59807600188273
4.857132434540895 -10.933149814800737 41.64789770457279
4.835196409896642 -11.080873881092732 41.70021044858767
4.813581645357345 -11.236478354972096 41.75488652425371
4.793469426476562 -11.399182445655734 41.81194585080551
4.7749671668539815 -11.568993182137179 41.87137468783382
4.758138139691116 -11.745924289987594 41.933163023117444
4.743006733267559 -11.929994515211742 41.99730430171132
4.727938238539405 -12.124249542467913 42.063203142954244
4.717190674275484 -12.321281274663043 42.13227262805776
4.707572243778555 -12.52589414881964 42.20365631718209
4.699218543667056 -12.738140974165706 42.27732515965513
4.692241491801599 -12.95807991703553 42.35325140930185
4.686735509974875 -13.185773025077363 42.43140819846943
4.682784590360968 -13.421284888381097 42.51176897657172
4.680468863875015 -13.664681639735905 42.594306930225905
4.677549472376121 -13.911440170186507 42.680383574264084
4.67735499487438 -14.167997736260851 42.76806018278399
4.678522041228434 -14.431868016140923 42.85808985035186
4.6810880894808236 -14.70305283126836 42.95046722079992
4.685112641191059 -14.981552389483207 43.045185006599375
4.690675876958262 -15.267365917229094 43.14223422378192
4.69787383709228 -15.560492546608026 43.24160477225438
4.7066486969103325 -15.860812094719368 43.34330641000918
4.717300327388732 -16.168658054590956 43.44728750859973
4.729856961401626 -16.483749422993238 43.55358682046957
4.74426358253553 -16.806110663532777 43.662207211601945
4.760318143679997 -17.135777933127258 43.773164112665334
4.777613524028273 -17.472802382561905 43.88648951094033
4.797001565677183 -17.818188694178986 44.00208267473688
4.8145216432353175 -18.170265398000804 44.12018983956971
4.830937178983478 -18.530016153701062 44.24082561691602
4.845106204609831 -18.897524878335048 44.36408064433307
4.856126449847556 -19.272841344954422 44.49003114525531
4.863601301890105 -19.655962574020673 44.618719282507314
4.867788320231811 -20.04682893077765 44.75014011313381
4.869530571716637 -20.445341209621514 44.88424272499331
4.871273826459762 -20.578722658394632 45.15232092039433
4.871652366133787 -20.444328838455636 45.54961023967479
4.871355879757853 -20.312674851209678 45.939549152066164
4.867670425679276 -20.18365251351699 46.322436725087734
4.860229050201526 -20.057219714140484 46.69833469867969
4.849438161021614 -19.933327185383938 47.06722279720391
4.835373226650396 -19.811563577162353 47.4292192693132
4.820264267064319 -19.69246430288629 47.78392635840325
4.804844787287878 -19.575756576713513 48.13134724821021
4.790004491623661 -19.461431777714505 48.471385072190614
4.7763248635693945 -19.349489831652956 48.80397244597131
4.7618403342471884 -19.23966083903214 49.12941783390116
4.752075222035107 -19.13269955026625 49.44684875982881
4.743500803010973 -19.02810952499233 49.756816418105636
4.736035190477177 -18.925908201048003 50.05932442427755
4.729572726117741 -18.826111809337753 50.35438048384021
4.724010867734933 -18.728735122800078 50.64199316668994
4.721356506144848 -18.633021846763736 50.922214193677064
4.717671896780095 -18.540664911728417 51.1948786000377
4.715117235862788 -18.45077363831363 51.46006576623521
4.71361314205641 -18.36335222718103 51.71778478356504
4.713105175070292 -18.27840462087706 51.96804194917255
4.713558819020938 -18.195934710745377 52.21084128828462
4.714954395721692 -18.115946468295515 52.446185107030125
4.7172823815681575 -18.038444013079456 52.67407450831352
4.722304716558443 -17.961153701253956 52.89499058452158
4.727501080399296 -17.888229892485644 53.10798162770314
4.73410918097167 -17.817785666763164 53.3134754923135
4.742252102569898 -17.74982725793974 53.511460054822734
4.752050259830081 -17.684361602655855 53.70192325698099
4.763610716097293 -17.621396251561375 53.88485408773786
4.777014671160714 -17.560939192621653 54.0602437482381
4.792304307761265 -17.502998589384063 54.2280868944336
4.80947063764063 -17.44758245140599 54.38838280713307
4.828444127404444 -17.394698267131766 54.541136322908066
4.849089642911227 -17.344352637902656 54.68635837829189
4.871206669799067 -17.296550953417018 54.82406607101453
4.894145665258688 -17.24929649256686 54.95461348215893
4.918082728742287 -17.206801371006897 55.07736687936337
4.942641583220667 -17.166843194344732 55.19268206877373
4.967447886699718 -17.129421245801996 55.300593535025776
4.992125505998312 -17.09453340628392 55.40113623519777
5.01631103701848 -17.062176375772182 55.494344238979714
5.039665826202045 -17.032345935319245 55.58024958213317
5.06188481648198 -17.005037224498892 55.65888140073606
5.082702002584511 -16.980245012864103 55.73026537135514
5.101892668444047 -16.95796394928813 55.79442344605894
5.119272858375731 -16.938188778855114 55.851373844583755
5.1346966961934255 -16.92091452237436 55.90113124987207
5.14805222564176 -16.906136618035443 55.943707146648805
5.17235018424984 -9.615871016855962 41.1819265231689
5.158389359035232 -9.661448346580562 41.1980755473385
5.142314488276461 -9.714633782482446 41.21692501464109
5.124252017074233 -9.775398561138482 41.23846571656154
5.104356721119437 -9.843709298538405 41.26268610196005
5.080644494858659 -9.917313305332913 41.29024318385841
5.056984182942266 -10.00094720290514 41.319831667623646
5.034354826481141 -10.094245105756222 41.3512060342426
5.009805010711412 -10.192048703227249 41.38598447861276
4.984456302156033 -10.297251697740505 41.42335144952475
4.958619160513768 -10.409819935009882 41.46327738403804
4.932625076502267 -10.529720692617218 41.50572994940746
4.906817438779054 -10.656924480188616 41.550674721411795
4.881541220042194 -10.791406819044255 41.59807600188273
4.857132434540895 -10.933149814800737 41.64789770457279
4.835196409896642 -11.080873881092732 41.70021044858767
4.813581645357345 -11.236478354972096 41.75488652425371
4.793469426476562 -11.399182445655734 41.81194585080551
4.7749671668539815 -11.568993182137179 41.87137468783382
4.758138139691116 -11.745924289987594 41.933163023117444
4.743006733267559 -11.929994515211742 41.99730430171132
4.727938238539405 -12.124249542467913 42.063203142954244
4.717190674275484 -12.321281274663043 42.13227262805776
4.707572243778555 -12.52589414881964 42.20365631718209
4.699218543667056 -12.738140974165706 42.27732515965513
4.692241491801599 -12.95807991703553 42.35325140930185
4.686735509974875 -13.185773025077363 42.43140819846943
4.682784590360968 -13.421284888381097 42.51176897657172
4.680468863875015 -13.664681639735905 42.594306930225905
4.677549472376121 -13.911440170186507 42.680383574264084
4.67735499487438 -14.167997736260851 42.76806018278399
4.678522041228434 -14.431868016140923 42.85808985035186
4.6810880894808236 -14.70305283126836 42.95046722079992
4.685112641191059 -14.981552389483207 43.045185006599375
4.690675876958262 -15.267365917229094 43.14223422378192
4.69787383709228 -15.560492546608026 43.24160477225438
4.7066486969103325 -15.860812094719368 43.34330641000918
4.717300327388732 -16.168658054590956 43.44728750859973
4.729856961401626 -16.483749422993238 43.55358682046957
4.74426358253553 -16.806110663532777 43.662207211601945
4.760318143679997 -17.135777933127258 43.773164112665334
4.777613524028273 -17.472802382561905 43.88648951094033
4.797001565677183 -17.818188694178986 44.00208267473688
4.8145216432353175 -18.170265398000804 44.12018983956971
4.830937178983478 -18.530016153701062 44.24082561691602
4.845106204609831 -18.897524878335048 44.36408064433307
4.856126449847556 -19.272841344954422 44.49003114525531
4.863601301890105 -19.655962574020673 44.618719282507314
4.867788320231811 -20.04682893077765 44.75014011313381
4.869530571716637 -20.445341209621514 44.88424272499331
4.871273826459762 -20.578722658394632 45.15232092039433
4.871652366133787 -20.444328838455636 45.54961023967479
4.871355879757853 -20.312674851209678 45.939549152066164
4.867670425679276 -20.18365251351699 46.322436725087734
4.860229050201526 -20.057219714140484 46.69833469867969
4.849438161021614 -19.933327185383938 47.06722279720391
4.835373226650396 -19.811563577162353 47.4292192693132
4.820264267064319 -19.69246430288629 47.78392635840325
4.804844787287878 -19.575756576713513 48.13134724821021
4.790004491623661 -19.461431777714505 48.471385072190614
4.7763248635693945 -19.349489831652956 48.80397244597131
4.7618403342471884 -19.23966083903214 49.12941783390116
4.752075222035107 -19.13269955026625 49.44684875982881
4.743500803010973 -19.02810952499233 49.756816418105636
4.736035190477177 -18.925908201048003 50.05932442427755
4.729572726117741 -18.826111809337753 50.35438048384021
4.724010867734933 -18.728735122800078 50.64199316668994
4.721356506144848 -18.633021846763736 50.922214193677064
4.717671896780095 -18.540664911728417 51.1948786000377
4.715117235862788 -18.45077363831363 51.46006576623521
4.71361314205641 -18.36335222718103 51.71778478356504
4.713105175070292 -18.27840462087706 51.96804194917255
4.713558819020938 -18.195934710745377 52.21084128828462
4.714954395721692 -18.115946468295515 52.446185107030125
4.7172823815681575 -18.038444013079456 52.67407450831352
4.722304716558443 -17.961153701253956 52.89499058452158
4.727501080399296 -17.888229892485644 53.10798162770314
4.73410918097167 -17.817785666763164 53.3134754923135
4.742252102569898 -17.74982725793974 53.511460054822734
4.752050259830081 -17.684361602655855 53.70192325698099
4.763610716097293 -17.621396251561375 53.88485408773786
4.777014671160714 -17.560939192621653 54.0602437482381
4.792304307761265 -17.502998589384063 54.2280868944336
4.80947063764063 -17.44758245140599 54.38838280713307
4.828444127404444 -17.394698267131766 54.541136322908066
4.849089642911227 -17.344352637902656 54.68635837829189
4.871206669799067 -17.296550953417018 54.82406607101453
4.894145665258688 -17.24929649256686 54.95461348215893
4.918082728742287 -17.206801371006897 55.07736687936337
4.942641583220667 -17.166843194344732 55.19268206877373
4.967447886699718 -17.129421245801996 55.300593535025776
4.992125505998312 -17.09453340628392 55.40113623519777
5.01631103701848 -17.062176375772182 55.494344238979714
5.039665826202045 -17.032345935319245 55.58024958213317
5.06188481648198 -17.005037224498892 55.65888140073606
5.082702002584511 -16.980245012864103 55.73026537135514
5.101892668444047 -16.95796394928813 55.79442344605894
5.119272858375731 -16.938188778855114 55.851373844583755
5.1346966961934255 -16.92091452237436 55.90113124987207
5.14805222564176 -16.906136618035443 55.943707146648805

VECTORS L float
0.057717064852715945 0.0 0.0
0.10436076521997488 0.0 0.0
0.1549529356320557 0.0 0.0
0.2111958241997574 0.0 0.0
0.2735740433644651 0.0 0.0
0.3422407121221983 0.0 0.0
0.4172243908308244 0.0 0.0
0.49846787810214904 0.0 0.0
0.5858468614630519 0.0 0.0
0.679194787029669 0.0 0.0
0.7782990427956471 0.0 0.0
0.8829048225303099 0.0 0.0
0.9927190642011839 0.0 0.0
1.1074160475617931 0.0 0.0
1.2266460345180956 0.0 0.0
1.3500477014215253 0.0 0.0
1.4772265533418225 0.0 0.0
1.6078120501863664 0.0 0.0
1.7414524459057872 0.0 0.0
1.8778039244759959 0.0 0.0
2.016554150263956 0.0 0.0
2.157388955393407 0.0 0.0
2.300232443539856 0.0 0.0
2.444419353333075 0.0 0.0
2.590109780012716 0.0 0.0
2.736982558603572 0.0 0.0
2.8848577846362033 0.0 0.0
3.0335730491135955 0.0 0.0
3.1829704687896974 0.0 0.0
3.332849124537799 0.0 0.0
3.483181612074731 0.0 0.0
3.633769141035767 0.0 0.0
3.7844304315404917 0.0 0.0
3.934961072985279 0.0 0.0
4.085118485097538 0.0 0.0
4.234608863429908 0.0 0.0
4.3830872719373755 0.0 0.0
4.530165238817704 0.0 0.0
4.674908113465819 0.0 0.0
4.816755709677655 0.0 0.0
4.95474439881431 0.0 0.0
5.087688609708817 0.0 0.0
5.214259513281958 0.0 0.0
5.332667674302537 0.0 0.0
5.441347050271659 0.0 0.0
5.538873307230124 0.0 0.0
5.624519911276844 0.0 0.0
5.699483161792815 0.0 0.0
5.769166135236801 0.0 0.0
5.857914456778324 0.0 0.0
6.108945842639336 0.0 0.0
6.137466425810409 0.0 0.0
6.182302415334425 0.0 0.0
6.218673805448924 0.0 0.0
6.240286830657088 0.0 0.0
6.2450895134648245 0.0 0.0
6.232947288877303 0.0 0.0
6.20477711697559 0.0 0.0
6.161795995032197 0.0 0.0
6.105216619897765 0.0 0.0
6.0365111656840185 0.0 0.0
5.956629125948871 0.0 0.0
5.8668216133561675 0.0 0.0
5.767688932881298 0.0 0.0
5.659839050528579 0.0 0.0
5.543778249069545 0.0 0.0
5.4199725210102825 0.0 0.0
5.288893078758856 0.0 0.0
5.150704800861622 0.0 0.0
5.005809337070779 0.0 0.0
4.8545515484655635 0.0 0.0
4.697218117628583 0.0 0.0
4.534188903593413 0.0 0.0
4.365779819452712 0.0 0.0
4.192368317386559 0.0 0.0
4.014379904391466 0.0 0.0
3.832165264523449 0.0 0.0
3.646230347458476 0.0 0.0
3.45709994043689 0.0 0.0
3.2653691371779754 0.0 0.0
3.0716734884267467 0.0 0.0
2.8767297272924117 0.0 0.0
2.681301635050614 0.0 0.0
2.486212534461272 0.0 0.0
2.2923411077784253 0.0 0.0
2.1006018243916933 0.0 0.0
1.9119436540574328 0.0 0.0
1.7273223173531216 0.0 0.0
1.5476952293140551 0.0 0.0
1.3739743912218456 0.0 0.0
1.2070320781190371 0.0 0.0
1.0476769002130741 0.0 0.0
0.8966438236170113 0.0 0.0
0.754582893504896 0.0 0.0
0.6220473084051629 0.0 0.0
0.49947287716587574 0.0 0.0
0.3871228620325633 0.0 0.0
0.28499260715295466 0.0 0.0
0.1924324615419615 0.0 0.0
0.10646908811686527 0.0 0.0
0.057717064852715945 0.0 0.0
0.10436076521997488 0.0 0.0
0.1549529356320557 0.0 0.0
0.2111958241997574 0.0 0.0
0.2735740433644651 0.0 0.0
0.3422407121221983 0.0 0.0
0.4172243908308244 0.0 0.0
0.49846787810214904 0.0 0.0
0.5858468614630519 0.0 0.0
0.679194787029669 0.0 0.0
0.7782990427956471 0.0 0.0
0.8829048225303099 0.0 0.0
0.9927190642011839 0.0 0.0
1.1074160475617931 0.0 0.0
1.2266460345180956 0.0 0.0
1.3500477014215253 0.0 0.0
1.4772265533418225 0.0 0.0
1.6078120501863664 0.0 0.0
1.7414524459057872 0.0 0.0
1.8778039244759959 0.0 0.0
2.016554150263956 0.0 0.0
2.157388955393407 0.0 0.0
2.300232443539856 0.0 0.0
2.444419353333075 0.0 0.0
2.590109780012716 0.0 0.0
2.736982558603572 0.0 0.0
2.8848577846362033 0.0 0.0
3.0335730491135955 0.0 0.0
3.1829704687896974 0.0 0.0
3.332849124537799 0.0 0.0
3.483181612074731 0.0 0.0
3.633769141035767 0.0 0.0
3.7844304315404917 0.0 0.0
3.934961072985279 0.0 0.0
4.085118485097538 0.0 0.0
4.234608863429908 0.0 0.0
4.3830872719373755 0.0 0.0
4.530165238817704 0.0 0.0
4.674908113465819 0.0 0.0
4.816755709677655 0.0 0.0
4.95474439881431 0.0 0.0
5.087688609708817 0.0 0.0
5.214259513281958 0.0 0.0
5.332667674302537 0.0 0.0
5.441347050271659 0.0 0.0
5.538873307230124 0.0 0.0
5.624519911276844 0.0 0.0
5.699483161792815 0.0 0.0
5.769166135236801 0.0 0.0
5.857914456778324 0.0 0.0
6.108945842639336 0.0 0.0
6.137466425810409 0.0 0.0
6.182302415334425 0.0 0.0
6.218673805448924 0.0 0.0
6.240286830657088 0.0 0.0
6.2450895134648245 0.0 0.0
6.232947288877303 0.0 0.0
6.20477711697559 0.0 0.0
6.161795995032197 0.0 0.0
6.105216619897765 0.0 0.0
6.0365111656840185 0.0 0.0
5.956629125948871 0.0 0.0
5.8668216133561675 0.0 0.0
5.767688932881298 0.0 0.0
5.659839050528579 0.0 0.0
5.543778249069545 0.0 0.0
5.4199725210102825 0.0 0.0
5.288893078758856 0.0 0.0
5.150704800861622 0.0 0.0
5.005809337070779 0.0 0.0
4.8545515484655635 0.0 0.0
4.697218117628583 0.0 0.0
4.534188903593413 0.0 0.0
4.365779819452712 0.0 0.0
4.192368317386559 0.0 0.0
4.014379904391466 0.0 0.0
3.832165264523449 0.0 0.0
3.646230347458476 0.0 0.0
3.45709994043689 0.0 0.0
3.2653691371779754 0.0 0.0
3.0716734884267467 0.0 0.0
2.8767297272924117 0.0 0.0
2.681301635050614 0.0 0.0
2.486212534461272 0.0 0.0
2.2923411077784253 0.0 0.0
2.1006018243916933 0.0 0.0
1.9119436540574328 0.0 0.0
1.7273223173531216 0.0 0.0
1.5476952293140551 0.0 0.0
1.3739743912218456 0.0 0.0
1.2070320781190371 0.0 0.0
1.0476769002130741 0.0 0.0
0.8966438236170113 0.0 0.0
0.754582893504896 0.0 0.0
0.6220473084051629 0.0 0.0
0.49947287716587574 0.0 0.0
0.3871228620325633 0.0 0.0
0.28499260715295466 0.0 0.0
0.1924324615419615 0.0 0.0
0.10646908811686527 0.0 0.0

SCALARS Gamma float
LOOKUP_TABLE default
0.4175240878563759
0.6417432871837434
0.8252498466204745
0.9903645702082863
1.1445841330792497
1.291192035497179
1.4318436990508299
1.5673580530212934
1.6980926903876994
1.8241759220456664
1.9455780152941986
2.062174067286111
2.1737854723616237
2.2802112080675916
2.3812549343647365
2.4767495560679187
2.5665190140866443
2.6504751421549337
2.728591866347176
2.800878025542607
2.8674034265400774
2.9282449779490287
2.9836234888634645
3.0336533784116426
3.0785136340299255
3.118411249547699
3.1535542194174777
3.1841555550819516
3.2104187541845914
3.232495996814486
3.250690829443606
3.2651293827082255
3.275949989922197
3.2832676645036183
3.2871657740108975
3.2876911725725275
3.284859455779655
3.2785486745732997
3.2686597733535585
3.2549849309310903
3.237230068644065
3.215016307125818
3.187942617730365
3.155409917486901
3.1170397558137615
3.0725958251394587
3.0222451175351854
2.9670699212672056
2.9098354614624458
2.857525008369831
2.851798285894741
2.892080387679945
2.936869396307976
2.979441299590418
3.017265617621165
3.049376468737001
3.0756057464002873
3.0962515256939414
3.1117485475487356
3.1225239512554257
3.129141789661092
3.131908092344314
3.1312882226802676
3.1274141706548693
3.1204157314717107
3.1103631122346145
3.0972973113979054
3.0812545506984463
3.06208422216578
3.0397538652300247
3.014184386041952
2.985243154339742
2.952834563775887
2.9168019027248526
2.877003388954316
2.833305177494188
2.7854945734691796
2.7334369382623565
2.676985370325714
2.6160186475891716
2.550421896866623
2.4801225281045567
2.4050693356937547
2.3252490735450544
2.2406919600172874
2.151463476506213
2.0576732141681937
1.9594574497099897
1.8569824943766573
1.7503968974978352
1.6398348686878665
1.5253789869219978
1.4070264502804999
1.2846354496696097
1.1578392386652576
1.0258874666304063
0.8872948025981501
0.7390985577598173
0.5745714633238124
0.3737238351021799
0.4175240878563759
0.6417432871837434
0.8252498466204745
0.9903645702082863
1.1445841330792497
1.291192035497179
1.4318436990508299
1.5673580530212934
1.6980926903876994
1.8241759220456664
1.9455780152941986
2.062174067286111
2.1737854723616237
2.2802112080675916
2.3812549343647365
2.4767495560679187
2.5665190140866443
2.6504751421549337
2.728591866347176
2.800878025542607
2.8674034265400774
2.9282449779490287
2.9836234888634645
3.0336533784116426
3.0785136340299255
3.118411249547699
3.1535542194174777
3.1841555550819516
3.2104187541845914
3.232495996814486
3.250690829443606
3.2651293827082255
3.275949989922197
3.2832676645036183
3.2871657740108975
3.2876911725725275
3.284859455779655
3.2785486745732997
3.2686597733535585
3.2549849309310903
3.237230068644065
3.215016307125818
3.187942617730365
3.155409917486901
3.1170397558137615
3.0725958251394587
3.0222451175351854
2.9670699212672056
2.9098354614624458
2.857525008369831
2.851798285894741
2.892080387679945
2.936869396307976
2.979441299590418
3.017265617621165
3.049376468737001
3.0756057464002873
3.0962515256939414
3.1117485475487356
3.1225239512554257
3.129141789661092
3.131908092344314
3.1312882226802676
3.1274141706548693
3.1204157314717107
3.1103631122346145
3.0972973113979054
3.0812545506984463
3.06208422216578
3.0397538652300247
3.014184386041952
2.985243154339742
2.952834563775887
2.9168019027248526
2.877003388954316
2.833305177494188
2.7854945734691796
2.7334369382623565
2.676985370325714
2.6160186475891716
2.550421896866623
2.4801225281045567
2.4050693356937547