# vtk DataFile Version 4.0
[MyVLM domain - lattices] 
ASCII
DATASET UNSTRUCTURED_GRID
POINTS 302 float
0.034182456231286414 -3.855252047752763 4.837244567900631
0.03405815639044537 -3.8616447621127787 4.836966664415988
0.03391102596659271 -3.8692116484981023 4.836637717434168
0.03374106495972843 -3.8779527069087347 4.836257726955168
0.03354827336985253 -3.887867937344676 4.83582669297899
0.033332651196965005 -3.8989573398059267 4.835344615505631
0.03309419844106587 -3.9112209142924863 4.834811494535094
0.03283291510215511 -3.924658660804354 4.834227330067378
0.03254880118023273 -3.939270579341531 4.833592122102483
0.032241856675298726 -3.9550566699040166 4.832905870640409
0.031912081587353106 -3.972016932491812 4.832168575681155
0.03155947591639586 -3.990151367104915 4.831380237224723
0.03118403966242701 -4.009459973743327 4.830540855271112
0.030785772825446523 -4.029942752407049 4.829650429820321
0.030364675405454428 -4.051599703096079 4.828708960872351
0.02992074740245071 -4.074430825810418 4.827716448427203
0.02945398881643537 -4.0984361205500655 4.826672892484875
0.028964399647408403 -4.123615587315022 4.825578293045368
0.02845197989536983 -4.149969226105289 4.824432650108681
0.02791672956031963 -4.1774970369208635 4.823235963674817
0.02735864864225781 -4.206199019761746 4.821988233743772
0.026777737141184366 -4.236075174627938 4.820689460315549
0.02617399505709931 -4.267125501519439 4.819339643390147
0.02554742239000263 -4.29935000043625 4.817938782967565
0.024898019139894333 -4.3327486713783685 4.816486879047805
0.024225785306774418 -4.367321514345796 4.814983931630866
0.02353072089064288 -4.403068529338532 4.8134299407167465
0.02281282589149972 -4.439989716356578 4.811824906305449
0.022072100309344943 -4.478085075399932 4.810168828396972
0.021308544144178546 -4.517354606468595 4.8084617069913165
0.020522157396000527 -4.557798309562568 4.806703542088481
0.019712940064810888 -4.599416184681848 4.804894333688468
0.018880892150609632 -4.642208231826438 4.8030340817912744
0.018026013653396754 -4.686174450996337 4.801122786396903
0.017148304573172256 -4.731314842191544 4.799160447505351
0.016247764909936138 -4.7776294054120605 4.79714706511662
0.0153243946636884 -4.825118140657886 4.795082639230712
0.014378193834429044 -4.87378104792902 4.792967169847623
0.01340916242215807 -4.923618127225462 4.790800656967355
0.012417300426875475 -4.974629378547214 4.788583100589909
0.01140260784858126 -5.026814801894275 4.7863145007152825
0.010365084687275422 -5.080174397266644 4.783994857343478
0.009304730942957968 -5.134708164664323 4.781624170474494
0.008221546615628886 -5.19041610408731 4.779202440108331
0.007115531705288192 -5.247298215535606 4.776729666244989
0.005986686211935873 -5.305354499009211 4.774205848884468
0.004835010135571936 -5.364584954508125 4.771630988026768
0.0036605034761963795 -5.424989582032348 4.769005083671889
0.00246316623380921 -5.486568381581879 4.766328135819831
0.0012429984084104148 -5.54932135315672 4.763600144470593
0.0 -5.613248496756869 4.760821109624176
0.0012429984084104092 -5.616051654659294 4.824747199988955
0.002463166233809198 -5.618803325988 4.887499137673563
0.0036605034761963678 -5.621503510742989 4.949076922678003
0.004835010135571917 -5.62415220892426 5.0094805550022725
0.005986686211935847 -5.626749420531812 5.068710034646373
0.007115531705288156 -5.629295145565647 5.126765361610305
0.008221546615628846 -5.631789384025764 5.183646535894066
0.009304730942957916 -5.634232135912162 5.239353557497659
0.010365084687275367 -5.636623401224843 5.293886426421082
0.011402607848581199 -5.638963179963805 5.3472451426643355
0.012417300426875411 -5.64125147212905 5.39942970622742
0.013409162422158002 -5.643488277720576 5.450440117110334
0.01437819383442897 -5.645673596738385 5.50027637531308
0.015324394663688326 -5.647807429182476 5.548938480835656
0.016247764909936055 -5.6498897750528485 5.5964264336780625
0.01714830457317217 -5.651920634349502 5.6427402338403
0.018026013653396664 -5.653900007072439 5.6878798813223685
0.01888089215060954 -5.655827893221658 5.731845376124267
0.019712940064810794 -5.657704292797158 5.774636718245995
0.020522157396000426 -5.659529205798941 5.816253907687555
0.021308544144178435 -5.661302632227006 5.856696944448945
0.022072100309344832 -5.663024572081352 5.895965828530167
0.022812825891499598 -5.664695025361981 5.934060559931218
0.02353072089064276 -5.666313992068892 5.9709811386521
0.02422578530677429 -5.667881472202084 6.006727564692813
0.024898019139894208 -5.669397465761558 6.041299838053356
0.025547422390002503 -5.670861972747315 6.07469795873373
0.02617399505709918 -5.672274993159354 6.106921926733935
0.026777737141184237 -5.673636526997674 6.13797174205397
0.027358648642257673 -5.674946574262276 6.167847404693836
0.027916729560319486 -5.676205134953161 6.1965489146535315
0.028451979895369683 -5.677412209070328 6.2240762719330585
0.028964399647408254 -5.678567796613776 6.250429476532416
0.02945398881643522 -5.679671897583506 6.275608528451604
0.029920747402450557 -5.680724511979519 6.299613427690623
0.030364675405454275 -5.681725639801813 6.322444174249473
0.030785772825446367 -5.68267528105039 6.344100768128152
0.031184039662426853 -5.683573435725249 6.364583209326663
0.031559475916395706 -5.684420103826389 6.3838914978450045
0.031912081587352946 -5.685215285353811 6.402025633683176
0.03224185667529856 -5.685958980307516 6.418985616841178
0.03254880118023256 -5.686651188687502 6.434771447319012
0.03283291510215494 -5.687291910493771 6.449383125116675
0.0330941984410657 -5.687881145726322 6.462820650234169
0.03333265119696483 -5.688418894385154 6.475084022671494
0.03354827336985236 -5.688905156470268 6.486173242428649
0.03374106495972826 -5.689339931981665 6.496088309505636
0.03391102596659254 -5.689723220919343 6.504829223902451
0.0340581563904452 -5.690055023283303 6.512395985619098
0.03418245623128625 -5.690335339073546 6.518788594655576
0.04785543872380095 -3.5190701264152775 5.204122756562201
0.047731138882959906 -3.525462840775292 5.20384485307756
0.04758400845910725 -3.533029727160616 5.203515906095739
0.047414047452242966 -3.541770785571249 5.203135915616739
0.04722125586236706 -3.5516860160071904 5.20270488164056
0.04700563368947954 -3.562775418468441 5.202222804167203
0.046767180933580406 -3.575038992955 5.2016896831966655
0.046505897594669644 -3.588476739466868 5.20110551872895
0.04622178367274726 -3.603088658004045 5.200470310764054
0.04591483916781326 -3.618874748566531 5.1997840593019795
0.04558506407986764 -3.6358350111543256 5.199046764342726
0.0452324584089104 -3.653969445767429 5.198258425886294
0.04485702215494154 -3.673278052405842 5.197419043932682
0.04445875531796106 -3.693760831069563 5.196528618481892
0.044037657897968964 -3.715417781758593 5.195587149533922
0.043593729894965245 -3.738248904472932 5.194594637088773
0.04312697130894991 -3.76225419921258 5.193551081146445
0.04263738213992294 -3.787433665977537 5.192456481706938
0.04212496238788436 -3.8137873047678026 5.191310838770253
0.04158971205283416 -3.8413151155833773 5.190114152336387
0.041031631134772345 -3.870017098424261 5.188866422405344
0.0404507196336989 -3.899893253290452 5.1875676489771205
0.03984697754961385 -3.9309435801819537 5.186217832051718
0.039220404882517164 -3.963168079098764 5.184816971629137
0.03857100163240887 -3.9965667500408824 5.183365067709376
0.03789876779928895 -4.0311395930083105 5.181862120292436
0.03720370338315742 -4.066886608001047 5.180308129378318
0.03648580838401425 -4.103807795019092 5.17870309496702
0.03574508280185947 -4.1419031540624465 5.177047017058543
0.034981526636693086 -4.181172685131109 5.175339895652888
0.03419513988851505 -4.2216163882250815 5.173581730750053
0.03338592255732543 -4.263234263344362 5.171772522350039
0.03255387464312416 -4.306026310488953 5.169912270452845
0.0316989961459113 -4.34999252965885 5.168000975058473
0.030821287065686792 -4.395132920854058 5.166038636166922
0.029920747402450678 -4.441447484074574 5.164025253778192
0.02899737715620294 -4.4889362193204 5.161960827892282
0.028051176326943577 -4.537599126591534 5.159845358509194
0.027082144914672607 -4.587436205887977 5.157678845628927
0.02609028291939001 -4.638447457209729 5.1554612892514795
0.025075590341095792 -4.690632880556789 5.153192689376854
0.02403806717978996 -4.743992475929159 5.150873046005049
0.022977713435472502 -4.798526243326837 5.1485023591360655
0.02189452910814342 -4.854234182749824 5.146080628769902
0.020788514197802727 -4.911116294198121 5.14360785490656
0.019659668704450406 -4.969172577671726 5.141084037546039
0.018507992628086473 -5.0284030331706395 5.138509176688339
0.017333485968710916 -5.088807660694862 5.1358832723334595
0.016136148726323747 -5.150386460244394 5.133206324481401
0.01491598090092495 -5.213139431819234 5.130478333132164
0.013672982492514535 -5.277066575419383 5.127699298285747
0.014915980900924945 -5.279869733321808 5.191625388650525
0.016136148726323733 -5.282621404650515 5.254377326335135
0.017333485968710902 -5.285321589405503 5.315955111339574
0.018507992628086452 -5.287970287586774 5.376358743663844
0.01965966870445038 -5.290567499194326 5.435588223307945
0.020788514197802692 -5.293113224228161 5.493643550271876
0.021894529108143383 -5.295607462688277 5.550524724555638
0.02297771343547245 -5.298050214574676 5.60623174615923
0.0240380671797899 -5.300441479887357 5.660764615082653
0.025075590341095737 -5.302781258626319 5.714123331325907
0.02609028291938995 -5.305069550791564 5.766307894888991
0.027082144914672535 -5.307306356383091 5.817318305771906
0.028051176326943504 -5.309491675400899 5.867154563974651
0.02899737715620286 -5.311625507844989 5.915816669497227
0.02992074740245059 -5.313707853715362 5.963304622339634
0.030821287065686705 -5.315738713012017 6.009618422501871
0.0316989961459112 -5.3177180857349535 6.054758069983939
0.03255387464312407 -5.319645971884172 6.098723564785837
0.03338592255732533 -5.321522371459673 6.141514906907567
0.03419513988851496 -5.323347284461455 6.1831320963491265
[...]
CELL_DATA 200

VECTORS Vinf float
5.151892045658755 35.405079135848815 23.130026186103553
5.138013472959851 35.40468756708147 23.178360983316622
5.12203337006609 35.40423458821291 23.234765812665923
5.104077477877314 35.403721145263084 23.299210544562197
5.084299713738834 35.40314753184389 23.371659932824617
5.06288402887029 35.40251310567832 23.452073714468884
5.04004513565767 35.40181600138562 23.54040695992932
5.016027705381766 35.401052857486114 23.636610728736557
4.991103697409754 35.40021857906414 23.740633066826064
4.965567601822633 35.39930615976408 23.85242035197223
4.939729562149281 35.39830658690534 23.971918954094747
4.913906584747239 35.3972088506721 24.09907713054001
4.88841231260465 35.39600007202922 24.233847028903583
4.863546104373658 35.394665754213676 24.37618663002875
4.83958236303095 35.39319015004695 24.526061441303394
4.816761149300603 35.391556723451835 24.683445754166517
4.795281051477725 35.38974867063191 24.848323315008255
4.775295051640589 35.3877494569066 25.02068732411356
4.756909753407128 35.38554332140343 25.20053976385455
4.740187883720625 35.38311570490997 25.38789014880058
4.725153544163556 35.380453565937856 25.582753867176606
4.7117993630529105 35.377545564572124 25.785150327597393
4.696000704178193 35.37763944230299 25.989714756519426
4.6874938829743344 35.37369276403324 26.207883617862656
4.679949133734968 35.36959214523031 26.433595666142644
4.673440933930453 35.36532829015267 26.666846827491277
4.668026048592315 35.36089263192262 26.907635259484547
4.663751111800946 35.35627732306187 27.155959827483226
4.660660633148553 35.35147508370122 27.41181876061551
4.658804744915577 35.3464789424555 27.675208587538094
4.659113087772486 35.34058200461505 27.94676150993974
4.66160908936703 35.33485292542755 28.225300135092628
4.665191338834015 35.32888366882133 28.511460331886262
4.66995206324005 35.32265857570297 28.805243228866452
4.675982124884319 35.316162253219 29.106650812133694
4.6833727023610905 35.30937971231043 29.415685664037664
4.685957639874543 35.303040872529905 29.732302996464252
4.697311903548833 35.295058959230595 30.0576397263388
4.710479749617025 35.28676363662198 30.390601683867096
4.7253864588462795 35.27815045863046 30.731213863906788
4.741811728572118 35.26922251936224 31.07951592212159
4.759333476231484 35.259992811931845 31.43556666528464
4.778016009397967 35.250437553857324 31.799298567308686
4.796142267065049 35.24066597176845 32.17098914660182
4.8129819249372074 35.23070573684731 32.55066733520506
4.827375328039591 35.22061522250128 32.93843865184966
4.8384007270350775 35.21045133644878 33.334372113101075
4.845010244750519 35.19994749070436 33.73858969805124
4.848880002154413 35.18978878000907 34.15068692720716
4.850309733764578 35.17958651019395 34.57079760452634
4.85182543925527 35.38584620221697 34.78786677927685
4.853712788590598 35.80474468329942 34.79787873152463
4.853345827666464 36.216061601866635 34.80782957124759
4.849684714961314 36.61991880294182 34.81774723746268
4.84248602941419 37.017096463339364 34.82650210066371
4.831633006324814 37.40591923965293 34.83663693752985
4.818020500724905 37.78735800832345 34.84656636683061
4.802886005786756 38.16130375182488 34.85622549102249
4.787421599835268 38.527640172739694 34.86556151121092
4.772662014799936 38.886809241278826 34.87375714717248
4.759591227062598 39.237261354312174 34.88280148456666
4.747624867069452 39.579993054494736 34.89139238443611
4.7369107225545495 39.91497168604213 34.89954458403316
4.727462032001467 40.24217901803893 34.907279016255984
4.718851651301375 40.56413251923392 34.910952794900346
4.71361534093151 40.87468954784177 34.919169102383535
4.7090670500195975 41.17763509314314 34.92683300763421
4.705153615184458 41.472957257876836 34.93397599643835
4.701846983078788 41.760642466404796 34.940627424627344
4.699143413882352 42.040675282064505 34.94681472647035
4.697059198420847 42.313038623400054 34.95256375384307
4.698061275661271 42.577326504780544 34.957881016668075
4.698608322121884 42.83371500838145 34.96334977228079
4.700125481068885 43.08231184619168 34.968515480021374
4.702640626610608 43.323108499495504 34.97338728966073
4.706202457591115 43.55609447173419 34.97797374719008
4.710877378026015 43.781257536047455 34.98228300944821
4.716745244966721 43.99858408143686 34.986323058449344
4.723893348361723 44.20805962059148 34.990101924956136
4.737051258301672 44.40949135658431 34.99292553172989
4.748196795094145 44.60284937499875 34.99643909902904
4.761307692052884 44.788268678987414 34.99970969831479
4.776394281553407 44.96574304074902 35.002745667029195
4.793420690092352 45.13527023102851 35.00555653244461
4.812295234511566 45.296853032860035 35.00815300499526
4.832865088519514 45.45049989695796 35.010546841455565
4.854916169172325 45.596225135546796 35.01275058263211
4.8781784157579535 45.73404861972761 35.01477718930787
4.902588231982073 45.86338088298749 35.01746081916216
4.92728666970636 45.9854680381206 35.01917442602724
4.952177464152281 46.09973052938142 35.02075361107093
4.976895017855479 46.206201010402154 35.02220774181854
5.001085206085221 46.30491183267959 35.02354480069752
5.024417523800707 46.395893864364176 35.02477123893589
5.046594047331939 46.479175568515934 35.02589194168219
5.0673549953652905 46.554782371824764 35.02691029277267
5.0864810611762215 46.62273631900818 35.02782832014553
5.1037929668455035 46.68305598113116 35.028646899227276
5.119148853013751 46.73575656911432 35.02936599115594
5.132440177418679 46.78085019594815 35.029984894611694
5.151892045658755 35.405079135848815 23.130026186103553
5.138013472959851 35.40468756708147 23.178360983316622
5.12203337006609 35.40423458821291 23.234765812665923
5.104077477877314 35.403721145263084 23.299210544562197
5.084299713738834 35.40314753184389 23.371659932824617
5.06288402887029 35.40251310567832 23.452073714468884
5.04004513565767 35.40181600138562 23.54040695992932
5.016027705381766 35.401052857486114 23.636610728736557
4.991103697409754 35.40021857906414 23.740633066826064
4.965567601822633 35.39930615976408 23.85242035197223
4.939729562149281 35.39830658690534 23.971918954094747
4.913906584747239 35.3972088506721 24.09907713054001
4.88841231260465 35.39600007202922 24.233847028903583
4.863546104373658 35.394665754213676 24.37618663002875
4.83958236303095 35.39319015004695 24.526061441303394
4.816761149300603 35.391556723451835 24.683445754166517
4.795281051477725 35.38974867063191 24.848323315008255
4.775295051640589 35.3877494569066 25.02068732411356
4.756909753407128 35.38554332140343 25.20053976385455
4.740187883720625 35.38311570490997 25.38789014880058
4.725153544163556 35.380453565937856 25.582753867176606
4.7117993630529105 35.377545564572124 25.785150327597393
4.696000704178193 35.37763944230299 25.989714756519426
4.6874938829743344 35.37369276403324 26.207883617862656
4.679949133734968 35.36959214523031 26.433595666142644
4.673440933930453 35.36532829015267 26.666846827491277
4.668026048592315 35.36089263192262 26.907635259484547
4.663751111800946 35.35627732306187 27.155959827483226
4.660660633148553 35.35147508370122 27.41181876061551
4.658804744915577 35.3464789424555 27.675208587538094
4.659113087772486 35.34058200461505 27.94676150993974
4.66160908936703 35.33485292542755 28.225300135092628
4.665191338834015 35.32888366882133 28.511460331886262
4.66995206324005 35.32265857570297 28.805243228866452
4.675982124884319 35.316162253219 29.106650812133694
4.6833727023610905 35.30937971231043 29.415685664037664
4.685957639874543 35.303040872529905 29.732302996464252
4.697311903548833 35.295058959230595 30.0576397263388
4.710479749617025 35.28676363662198 30.390601683867096
4.7253864588462795 35.27815045863046 30.731213863906788
4.741811728572118 35.26922251936224 31.07951592212159
4.759333476231484 35.259992811931845 31.43556666528464
4.778016009397967 35.250437553857324 31.799298567308686
4.796142267065049 35.24066597176845 32.17098914660182
4.8129819249372074 35.23070573684731 32.55066733520506
4.827375328039591 35.22061522250128 32.93843865184966
4.8384007270350775 35.21045133644878 33.334372113101075
4.845010244750519 35.19994749070436 33.73858969805124
4.848880002154413 35.18978878000907 34.15068692720716
4.850309733764578 35.17958651019395 34.57079760452634
4.85182543925527 35.38584620221697 34.78786677927685
4.853712788590598 35.80474468329942 34.79787873152463
4.853345827666464 36.216061601866635 34.80782957124759
4.849684714961314 36.61991880294182 34.81774723746268
4.84248602941419 37.017096463339364 34.82650210066371
4.831633006324814 37.40591923965293 34.83663693752985
4.818020500724905 37.78735800832345 34.84656636683061
4.802886005786756 38.16130375182488 34.85622549102249
4.787421599835268 38.527640172739694 34.86556151121092
4.772662014799936 38.886809241278826 34.87375714717248
4.759591227062598 39.237261354312174 34.88280148456666
4.747624867069452 39.579993054494736 34.89139238443611
4.7369107225545495 39.91497168604213 34.89954458403316
4.727462032001467 40.24217901803893 34.907279016255984
4.718851651301375 40.56413251923392 34.910952794900346
4.71361534093151 40.87468954784177 34.919169102383535
4.7090670500195975 41.17763509314314 34.92683300763421
4.705153615184458 41.472957257876836 34.93397599643835
4.701846983078788 41.760642466404796 34.940627424627344
4.699143413882352 42.040675282064505 34.94681472647035
4.697059198420847 42.313038623400054 34.95256375384307
4.698061275661271 42.577326504780544 34.957881016668075
4.698608322121884 42.83371500838145 34.96334977228079
4.700125481068885 43.08231184619168 34.968515480021374
4.702640626610608 43.323108499495504 34.97338728966073
4.706202457591115 43.55609447173419 34.97797374719008
4.710877378026015 43.781257536047455 34.98228300944821
4.716745244966721 43.99858408143686 34.986323058449344
4.723893348361723 44.20805962059148 34.990101924956136
4.737051258301672 44.40949135658431 34.99292553172989
4.748196795094145 44.60284937499875 34.99643909902904
4.761307692052884 44.788268678987414 34.99970969831479
4.776394281553407 44.96574304074902 35.002745667029195
4.793420690092352 45.13527023102851 35.00555653244461
4.812295234511566 45.296853032860035 35.00815300499526
4.832865088519514 45.45049989695796 35.010546841455565
4.854916169172325 45.596225135546796 35.01275058263211
4.8781784157579535 45.73404861972761 35.01477718930787
4.902588231982073 45.86338088298749 35.01746081916216
4.92728666970636 45.9854680381206 35.01917442602724
4.952177464152281 46.09973052938142 35.02075361107093
4.976895017855479 46.206201010402154 35.02220774181854
5.001085206085221 46.30491183267959 35.02354480069752
5.024417523800707 46.395893864364176 35.02477123893589
5.046594047331939 46.479175568515934 35.02589194168219
5.0673549953652905 46.554782371824764 35.02691029277267
5.0864810611762215 46.62273631900818 35.02782832014553
5.1037929668455035 46.68305598113116 35.028646899227276
5.119148853013751 46.73575656911432 35.02936599115594
5.132440177418679 46.78085019594815 35.029984894611694

VECTORS L float
0.057447998344410375 0.0 0.0
0.10387478642207981 0.0 0.0
0.15423170343480236 0.0 0.0
0.2102131516878332 0.0 0.0
0.2723021199004923 0.0 0.0
0.3406540756059897 0.0 0.0
0.4152880149849576 0.0 0.0
0.49614451094889594 0.0 0.0
0.5831066860162554 0.0 0.0
0.6760086527587641 0.0 0.0
0.7746394941158051 0.0 0.0
0.8787461075809988 0.0 0.0
0.9880366452322219 0.0 0.0
1.1021856647496096 0.0 0.0
1.220841430825039 0.0 0.0
1.3436349722998777 0.0 0.0
1.4701945822224667 0.0 0.0
1.6001420529739925 0.0 0.0
1.7331273470645365 0.0 0.0
1.8688067281750496 0.0 0.0
2.0068603349249186 0.0 0.0
2.1469902232045324 0.0 0.0
2.288888775589824 0.0 0.0
2.432466248377305 0.0 0.0
2.577430806561625 0.0 0.0
2.7235715012183124 0.0 0.0
2.8707003572558993 0.0 0.0
3.0186775343503327 0.0 0.0
3.1673426125900113 0.0 0.0
3.3165605378519882 0.0 0.0
3.4662163105451405 0.0 0.0
3.61615469921963 0.0 0.0
3.76615505528162 0.0 0.0
3.9159912924777114 0.0 0.0
4.065405411054222 0.0 0.0
4.21402831610351 0.0 0.0
4.361320842095491 0.0 0.0
4.507361461209863 0.0 0.0
4.651362216694062 0.0 0.0
4.792510194125021 0.0 0.0
4.929829434373484 0.0 0.0
5.062124263145554 0.0 0.0
5.188013644040006 0.0 0.0
5.305860463930877 0.0 0.0
5.414027454702702 0.0 0.0
5.511072047391099 0.0 0.0
5.596310414917761 0.0 0.0
5.670845092034353 0.0 0.0
5.740203089709776 0.0 0.0
5.82837569445009 0.0 0.0
6.075802290973551 0.0 0.0
6.104468148620156 0.0 0.0
6.149178775013012 0.0 0.0
6.185437164805068 0.0 0.0
6.207014896961798 0.0 0.0
6.211872562452067 0.0 0.0
6.199854332989851 0.0 0.0
6.171845305983805 0.0 0.0
6.1291165712618865 0.0 0.0
6.07302655168553 0.0 0.0
6.0048520098549645 0.0 0.0
5.925639879728091 0.0 0.0
5.836290730953843 0.0 0.0
5.73759865101539 0.0 0.0
5.630228262959875 0.0 0.0
5.5148772706461155 0.0 0.0
5.391950551486061 0.0 0.0
5.261596934097796 0.0 0.0
5.124184757407646 0.0 0.0
4.980089092568619 0.0 0.0
4.829642229070817 0.0 0.0
4.673261558073045 0.0 0.0
4.511149209783277 0.0 0.0
4.343666373568952 0.0 0.0
4.1711783838379795 0.0 0.0
3.994069177147142 0.0 0.0
3.8127742012580255 0.0 0.0
3.6277820284435247 0.0 0.0
3.4396364789183855 0.0 0.0
3.24900754689952 0.0 0.0
3.056343321042472 0.0 0.0
2.8624333838684617 0.0 0.0
2.6680185603082065 0.0 0.0
2.4739343407203123 0.0 0.0
2.281063324571582 0.0 0.0
2.0903046686489186 0.0 0.0
1.9026068081645622 0.0 0.0
1.7189241294916031 0.0 0.0
1.5402016215858658 0.0 0.0
1.3673474199820352 0.0 0.0
1.2012303481529596 0.0 0.0
1.042656200583847 0.0 0.0
0.8923575003071315 0.0 0.0
0.7509825225856399 0.0 0.0
0.6190824792099028 0.0 0.0
0.49708999466581455 0.0 0.0
0.385273975719771 0.0 0.0
0.28363154918566497 0.0 0.0
0.19151407841020945 0.0 0.0
0.10596188538869547 0.0 0.0
0.057447998344410375 0.0 0.0
0.10387478642207981 0.0 0.0
0.15423170343480236 0.0 0.0
0.2102131516878332 0.0 0.0
0.2723021199004923 0.0 0.0
0.3406540756059897 0.0 0.0
0.4152880149849576 0.0 0.0
0.49614451094889594 0.0 0.0
0.5831066860162554 0.0 0.0
0.6760086527587641 0.0 0.0
0.7746394941158051 0.0 0.0
0.8787461075809988 0.0 0.0
0.9880366452322219 0.0 0.0
1.1021856647496096 0.0 0.0
1.220841430825039 0.0 0.0
1.3436349722998777 0.0 0.0
1.4701945822224667 0.0 0.0
1.6001420529739925 0.0 0.0
1.7331273470645365 0.0 0.0
1.8688067281750496 0.0 0.0
2.0068603349249186 0.0 0.0
2.1469902232045324 0.0 0.0
2.288888775589824 0.0 0.0
2.432466248377305 0.0 0.0
2.577430806561625 0.0 0.0
2.7235715012183124 0.0 0.0
2.8707003572558993 0.0 0.0
3.0186775343503327 0.0 0.0
3.1673426125900113 0.0 0.0
3.3165605378519882 0.0 0.0
3.4662163105451405 0.0 0.0
3.61615469921963 0.0 0.0
3.76615505528162 0.0 0.0
3.9159912924777114 0.0 0.0
4.065405411054222 0.0 0.0
4.21402831610351 0.0 0.0
4.361320842095491 0.0 0.0
4.507361461209863 0.0 0.0
4.651362216694062 0.0 0.0
4.792510194125021 0.0 0.0
4.929829434373484 0.0 0.0
5.062124263145554 0.0 0.0
5.188013644040006 0.0 0.0
5.305860463930877 0.0 0.0
5.414027454702702 0.0 0.0
5.511072047391099 0.0 0.0
5.596310414917761 0.0 0.0
5.670845092034353 0.0 0.0
5.740203089709776 0.0 0.0
5.82837569445009 0.0 0.0
6.075802290973551 0.0 0.0
6.104468148620156 0.0 0.0
6.149178775013012 0.0 0.0
6.185437164805068 0.0 0.0
6.207014896961798 0.0 0.0
6.211872562452067 0.0 0.0
6.199854332989851 0.0 0.0
6.171845305983805 0.0 0.0
6.1291165712618865 0.0 0.0
6.07302655168553 0.0 0.0
6.0048520098549645 0.0 0.0
5.925639879728091 0.0 0.0
5.836290730953843 0.0 0.0
5.73759865101539 0.0 0.0
5.630228262959875 0.0 0.0
5.5148772706461155 0.0 0.0
5.391950551486061 0.0 0.0
5.261596934097796 0.0 0.0
5.124184757407646 0.0 0.0
4.980089092568619 0.0 0.0
4.829642229070817 0.0 0.0
4.673261558073045 0.0 0.0
4.511149209783277 0.0 0.0
4.343666373568952 0.0 0.0
4.1711783838379795 0.0 0.0
3.994069177147142 0.0 0.0
3.8127742012580255 0.0 0.0
3.6277820284435247 0.0 0.0
3.4396364789183855 0.0 0.0
3.24900754689952 0.0 0.0
3.056343321042472 0.0 0.0
2.8624333838684617 0.0 0.0
2.6680185603082065 0.0 0.0
2.4739343407203123 0.0 0.0
2.281063324571582 0.0 0.0
2.0903046686489186 0.0 0.0
1.9026068081645622 0.0 0.0
1.7189241294916031 0.0 0.0
1.5402016215858658 0.0 0.0
1.3673474199820352 0.0 0.0
1.2012303481529596 0.0 0.0
1.042656200583847 0.0 0.0
0.8923575003071315 0.0 0.0
0.7509825225856399 0.0 0.0
0.6190824792099028 0.0 0.0
0.49708999466581455 0.0 0.0
0.385273975719771 0.0 0.0
0.28363154918566497 0.0 0.0
0.19151407841020945 0.0 0.0
0.10596188538869547 0.0 0.0

SCALARS Gamma float
LOOKUP_TABLE default
0.4154275586282123
0.6385230852262287
0.8211130599625399
0.985405017315071
1.1388602169069193
1.2847552337634691
1.4247022115875292
1.5595143374802263
1.689572312304452
1.8150034869202751
1.9357799428783498
2.0517781522924183
2.1628194682895776
2.268700877082522
2.3692201346344968
2.464196308482616
2.5534926613293445
2.6370041400272797
2.714704985545509
2.7866017253986417
2.8527520193847717
2.913252242445216
2.968193871572185
3.0179326844653267
3.0625543452354864
3.102240102517128
3.1371874775376796
3.1676316373980598
3.1937707197256047
3.215815239889395
3.233979734731038
3.2484281554456502
3.2592613047645007
3.266576226565558
3.270445394190317
3.2708606638689526
3.2677079772081026
3.261336215145578
3.2514674455464605
3.2378557157029104
3.220196078384814
3.198101429022129
3.1711389479759267
3.138800126922537
3.100659645673328
3.0564689237330813
3.0064161496883894
2.951532815560534
2.8945777376292363
2.842522766004983
2.836843726210839
2.877017096819408
2.9216185281618126
2.964002878717139
3.0016652310013643
3.033644998754089
3.059764117139083
3.080306013076605
3.095731025416436
3.106543135169582
3.1132107177225676
3.1160906153013803
3.115466768875793
3.1115687241580456
3.10455706568771
3.094609202177674
3.0817390360496635
3.0658029490993943
3.0467635423528163
3.0245750992528104
2.999152087080483
2.9704445291913637
2.938250209567702
2.9024405913728346
2.8628671252274405
2.819367858501548
2.7717889277547556
2.719987069292181
2.663833023596433
2.603269767840111
2.538041982835833
2.4681347175878585
2.393480606499468
2.314079376886505
2.229968826034437
2.1412040604892337
2.0478977230503306
1.9501890138994185
1.8482347495277947
1.7421822606721613
1.6321648213319677
1.5182646866097598
1.4004791584623457
1.278667631519024
1.1524645389538426
1.0211186824531824
0.8831633873855068
0.7356546648939661
0.5718929830167665
0.3719810966473269
0.4154275586282123
0.6385230852262287
0.8211130599625399
0.985405017315071
1.1388602169069193
1.2847552337634691
1.4247022115875292
1.5595143374802263
1.689572312304452
1.8150034869202751
1.9357799428783498
2.0517781522924183
2.1628194682895776
2.268700877082522
2.3692201346344968
2.464196308482616
2.5534926613293445
2.6370041400272797
2.714704985545509
2.7866017253986417
2.8527520193847717
2.913252242445216
2.968193871572185
3.0179326844653267
3.0625543452354864
3.102240102517128
3.1371874775376796
3.1676316373980598
3.1937707197256047
3.215815239889395
3.233979734731038
3.2484281554456502
3.2592613047645007
3.266576226565558
3.270445394190317
3.2708606638689526
3.2677079772081026
3.261336215145578
3.2514674455464605
3.2378557157029104
3.220196078384814
3.198101429022129
3.1711389479759267
3.138800126922537
3.100659645673328
3.0564689237330813
3.0064161496883894
2.951532815560534
2.8945777376292363
2.842522766004983
2.836843726210839
2.877017096819408
2.9216185281618126
2.964002878717139
3.0016652310013643
3.033644998754089
3.059764117139083
3.080306013076605
3.095731025416436
3.106543135169582
3.1132107177225676
3.1160906153013803
3.115466768875793
3.1115687241580456
3.10455706568771
3.094609202177674
3.0817390360496635
3.0658029490993943
3.0467635423528163
3.0245750992528104
2.999152087080483
2.9704445291913637
2.938250209567702
2.9024405913728346
2.8628671252274405
2.819367858501548
2.7717889277547556
2.719987069292181
2.663833023596433
2.603269767840111
2.538041982835833
2.4681347175878585
2.393480606499468
2.314079376886505
2.229968826034437
2.1412040604892337
2.0478977230503306
1.9501890138994185
1.8482347495277947
1.7421822606721613
1.6321648213319677
1.5182646866097598
1.4004791584623457
1.278667631519024
1.1524645389538426
1.0211186824531824
0.8831633873855068