# vtk DataFile Version 4.0
[MyVLM domain - lattices] 
ASCII
DATASET UNSTRUCTURED_GRID
POINTS 302 float
0.03418245623128624 -4.998964523181935 -4.019341430587325
0.0340581563904452 -4.9986866196972946 -4.02573414494734
0.033911025966592546 -4.998357672715476 -4.033301031332664
0.033741064959728256 -4.997977682236478 -4.042042089743297
0.03354827336985237 -4.997546648260301 -4.0519573201792385
0.033332651196964845 -4.997064570786946 -4.06304672264049
0.0330941984410657 -4.996531449816411 -4.075310297127048
0.03283291510215494 -4.995947285348698 -4.088748043638917
0.03254880118023257 -4.995312077383806 -4.103359962176094
0.032241856675298566 -4.9946258259217355 -4.11914605273858
0.031912081587352946 -4.993888530962486 -4.136106315326375
0.031559475916395706 -4.993100192506057 -4.154240749939479
0.031184039662426853 -4.99226081055245 -4.173549356577891
0.030785772825446374 -4.991370385101664 -4.1940321352416134
0.030364675405454275 -4.990428916153699 -4.215689085930643
0.029920747402450557 -4.989436403708556 -4.2385202086449825
0.02945398881643522 -4.988392847766233 -4.262525503384631
0.02896439964740826 -4.987298248326732 -4.287704970149588
0.028451979895369683 -4.986152605390052 -4.314058608939854
0.027916729560319486 -4.984955918956193 -4.341586419755429
0.027358648642257673 -4.983708189025155 -4.370288402596312
0.026777737141184237 -4.982409415596939 -4.400164557462505
0.02617399505709918 -4.981059598671544 -4.431214884354007
0.025547422390002503 -4.979658738248969 -4.463439383270817
0.02489801913989421 -4.978206834329216 -4.496838054212937
0.024225785306774293 -4.976703886912285 -4.531410897180365
0.023530720890642762 -4.9751498959981735 -4.567157912173101
0.022812825891499605 -4.973544861586884 -4.604079099191147
0.022072100309344835 -4.971888783678416 -4.642174458234502
0.02130854414417844 -4.970181662272768 -4.681443989303165
0.020522157396000423 -4.968423497369943 -4.7218876923971385
0.01971294006481079 -4.9666142889699385 -4.76350556751642
0.018880892150609535 -4.964754037072755 -4.80629761466101
0.018026013653396664 -4.962842741678392 -4.850263833830909
0.01714830457317217 -4.960880402786851 -4.895404225026117
0.01624776490993606 -4.958867020398131 -4.941718788246634
0.015324394663688323 -4.956802594512232 -4.98920752349246
0.014378193834428973 -4.954687125129155 -5.037870430763594
0.013409162422158002 -4.9525206122488985 -5.087707510060038
0.012417300426875413 -4.950303055871463 -5.13871876138179
0.011402607848581202 -4.948034455996849 -5.1909041847288515
0.01036508468727537 -4.945714812625056 -5.244263780101222
0.00930473094295792 -4.943344125756084 -5.298797547498901
0.008221546615628844 -4.940922395389934 -5.354505486921889
0.007115531705288156 -4.938449621526605 -5.411387598370186
0.005986686211935844 -4.9359258041660965 -5.469443881843792
0.004835010135571912 -4.933350943308409 -5.528674337342706
0.003660503476196362 -4.930725038953543 -5.589078964866929
0.002463166233809198 -4.928048091101499 -5.6506577644164615
0.0012429984084104087 -4.925320099752276 -5.713410735991303
0.0 -4.922541064905873 -5.777337879591453
0.001242998408410414 -4.9864671552706525 -5.7801410374938635
0.0024631662338092074 -5.049219092955262 -5.782892708822557
0.0036605034761963825 -5.110796877959702 -5.785592893577531
0.004835010135571936 -5.171200510283973 -5.788241591758789
0.0059866862119358705 -5.230429989928075 -5.790838803366328
0.007115531705288185 -5.2884853168920065 -5.79338452840015
0.00822154661562888 -5.345366491175769 -5.795878766860254
0.009304730942957952 -5.401073512779362 -5.79832151874664
0.010365084687275409 -5.455606381702786 -5.800712784059309
0.011402607848581246 -5.5089650979460405 -5.80305256279826
0.01241730042687546 -5.561149661509125 -5.805340854963492
0.013409162422158054 -5.61216007239204 -5.807577660555007
0.014378193834429029 -5.6619963305947865 -5.809762979572805
0.015324394663688385 -5.710658436117363 -5.811896812016885
0.01624776490993612 -5.758146388959771 -5.813979157887247
0.017148304573172235 -5.8044601891220085 -5.816010017183891
0.018026013653396733 -5.849599836604077 -5.817989389906818
0.018880892150609615 -5.893565331405976 -5.819917276056026
0.01971294006481087 -5.9363566735277065 -5.821793675631517
0.02052215739600051 -5.977973862969266 -5.823618588633291
0.021308544144178522 -6.018416899730656 -5.825392015061347
0.02207210030934492 -6.057685783811879 -5.827113954915685
0.022812825891499692 -6.09578051521293 -5.828784408196305
0.02353072089064285 -6.132701093933813 -5.830403374903208
0.02422578530677439 -6.168447519974526 -5.831970855036392
0.02489801913989431 -6.20301979333507 -5.833486848595858
0.025547422390002603 -6.236417914015444 -5.834951355581608
0.026173995057099286 -6.268641882015649 -5.836364375993639
0.02677773714118434 -6.2996916973356845 -5.837725909831953
0.02735864864225778 -6.329567359975551 -5.839035957096549
0.0279167295603196 -6.358268869935248 -5.840294517787427
0.028451979895369794 -6.385796227214775 -5.841501591904587
0.028964399647408372 -6.412149431814132 -5.84265717944803
0.02945398881643533 -6.437328483733321 -5.8437612804177546
0.029920747402450678 -6.46133338297234 -5.844813894813762
0.030364675405454393 -6.48416412953119 -5.845815022636051
0.030785772825446492 -6.50582072340987 -5.846764663884623
0.031184039662426975 -6.526303164608381 -5.847662818559477
0.03155947591639583 -6.545611453126722 -5.848509486660613
0.03191208158735308 -6.563745588964895 -5.849304668188032
0.03224185667529869 -6.580705572122897 -5.850048363141733
0.03254880118023269 -6.59649140260073 -5.850740571521715
0.032832915102155066 -6.611103080398395 -5.8513812933279805
0.03309419844106583 -6.624540605515889 -5.851970528560528
0.03333265119696496 -6.636803977953214 -5.852508277219358
0.033548273369852485 -6.647893197710369 -5.85299453930447
0.033741064959728395 -6.657808264787355 -5.853429314815864
0.03391102596659268 -6.666549179184172 -5.853812603753541
0.03405815639044534 -6.674115940900819 -5.854144406117499
0.03418245623128638 -6.680508549937297 -5.8544247219077405
0.04785543872380077 -5.365842711843432 -3.6831595092497573
0.04773113888295973 -5.3655648083587915 -3.6895522236097715
0.04758400845910707 -5.365235861376973 -3.697119109995095
0.047414047452242786 -5.3648558708979746 -3.7058601684057293
0.0472212558623669 -5.364424836921798 -3.7157753988416697
0.047005633689479374 -5.363942759448443 -3.7268648013029213
0.04676718093358023 -5.363409638477908 -3.739128375789481
0.04650589759466947 -5.3628254740101955 -3.7525661223013485
0.0462217836727471 -5.362190266045303 -3.7671780408385254
0.045914839167813096 -5.3615040145832324 -3.7829641314010116
0.045585064079867475 -5.360766719623983 -3.7999243939888063
0.04523245840891024 -5.359978381167554 -3.8180588286019104
0.04485702215494138 -5.359138999213947 -3.837367435240323
0.0444587553179609 -5.358248573763161 -3.8578502139040447
0.044037657897968804 -5.357307104815196 -3.879507164593075
0.04359372989496509 -5.356314592370053 -3.9023382873074146
0.043126971308949755 -5.35527103642773 -3.9263435820470627
0.04263738213992279 -5.354176436988229 -3.9515230488120205
0.04212496238788421 -5.3530307940515485 -3.9778766876022855
0.041589712052834016 -5.35183410761769 -4.00540449841786
0.0410316311347722 -5.3505863776866525 -4.034106481258744
0.040450719633698756 -5.349287604258436 -4.063982636124937
0.039846977549613714 -5.3479377873330405 -4.095032963016438
0.03922040488251703 -5.346536926910466 -4.127257461933249
0.03857100163240874 -5.345085022990713 -4.160656132875368
0.03789876779928882 -5.3435820755737815 -4.195228975842796
0.03720370338315729 -5.34202808465967 -4.2309759908355336
0.036485808384014135 -5.340423050248381 -4.267897177853579
0.03574508280185936 -5.338766972339913 -4.305992536896934
0.03498152663669297 -5.337059850934266 -4.3452620679655976
0.03419513988851495 -5.33530168603144 -4.38570577105957
0.033385922557325316 -5.333492477631435 -4.427323646178851
0.032553874643124064 -5.331632225734252 -4.470115693323442
0.03169899614591119 -5.32972093033989 -4.5140819124933405
0.030821287065686695 -5.327758591448348 -4.559222303688549
0.029920747402450588 -5.325745209059628 -4.605536866909066
0.028997377156202854 -5.32368078317373 -4.653025602154892
0.028051176326943497 -5.321565313790652 -4.701688509426027
0.027082144914672535 -5.319398800910395 -4.75152558872247
0.026090282919389942 -5.31718124453296 -4.8025368400442225
0.025075590341095733 -5.314912644658346 -4.854722263391284
0.024038067179789898 -5.312593001286553 -4.908081858763653
0.02297771343547245 -5.310222314417581 -4.962615626161333
0.021894529108143372 -5.307800584051431 -5.018323565584321
0.020788514197802685 -5.305327810188102 -5.075205677032618
0.019659668704450375 -5.302803992827593 -5.133261960506223
0.01850799262808644 -5.300229131969906 -5.192492416005138
0.017333485968710892 -5.29760322761504 -5.252897043529361
0.016136148726323726 -5.294926279762996 -5.314475843078894
0.014915980900924938 -5.292198288413773 -5.377228814653735
0.01367298249251453 -5.28941925356737 -5.441155958253885
0.014915980900924941 -5.3533453439321494 -5.443959116156296
0.016136148726323733 -5.416097281616759 -5.446710787484988
0.01733348596871091 -5.4776750666212 -5.4494109722399635
0.018507992628086466 -5.53807869894547 -5.45205967042122
0.019659668704450396 -5.5973081785895715 -5.45465688202876
0.020788514197802713 -5.655363505553503 -5.457202607062581
0.02189452910814341 -5.712244679837266 -5.459696845522686
0.02297771343547248 -5.767951701440859 -5.462139597409072
0.024038067179789936 -5.822484570364283 -5.46453086272174
0.025075590341095775 -5.875843286607537 -5.466870641460691
0.026090282919389987 -5.928027850170622 -5.469158933625924
0.027082144914672583 -5.979038261053537 -5.4713957392174395
0.028051176326943553 -6.028874519256284 -5.473581058235237
0.028997377156202916 -6.077536624778861 -5.475714890679317
0.029920747402450647 -6.125024577621268 -5.477797236549679
0.03082128706568676 -6.171338377783505 -5.479828095846323
[...]
CELL_DATA 200

VECTORS Vinf float
5.234814489363819 -23.115588602263895 35.40428158992819
5.22046750361306 -23.163704884839458 35.40405811295621
5.203949936931664 -23.219809401869856 35.40382447066413
5.185395404507055 -23.283850512239443 35.40359216038085
5.164969034542863 -23.35576800825942 35.40337345039457
5.142870028531429 -23.435493109344584 35.403181062955326
5.1193330696417645 -23.52294871266563 35.403027852776674
5.094628148652761 -23.618049960439482 35.40292650018115
5.067498955945604 -23.720575608276167 35.4040654319713
5.043435591399483 -23.83420286338135 35.40177619243935
5.018739565460957 -23.95543371223236 35.39951381736012
4.993707339509333 -24.08415445760621 35.39730909750264
4.968648677709426 -24.220248408788965 35.395192879515164
4.94387629227891 -24.363597877355126 35.39319619203373
4.919695011950785 -24.514086037101478 35.391350516352965
4.896391596214573 -24.671598436224734 35.38968818465438
4.874226321086731 -24.83602397701614 35.38824287209765
4.853427272210359 -25.00725524139833 35.38705013575456
4.834187914053079 -25.185188131086136 35.386147946371146
4.81666802224601 -25.36972089225203 35.38557716021443
4.792037560740705 -25.55321760508034 35.3922712580087
4.780489531597209 -25.758427377142965 35.3873348932534
4.770094333626316 -25.970871592124237 35.38243674924886
4.760908002710082 -26.190503871413238 35.377600574001235
4.752983797943188 -26.41727569632238 35.37285189189289
4.746376291988269 -26.651135682650274 35.36821798802571
4.7411452327623635 -26.892029017122965 35.363727846165695
4.737359352196982 -27.139897002996634 35.359412039963644
4.733417937848153 -27.391003647973722 35.35787343429708
4.733052582718721 -27.65528739898502 35.35221226182609
4.733802475891494 -27.92701000436979 35.346464262141815
4.735696909807771 -28.206158454693174 35.34063554330096
4.73877459557507 -28.49271713511096 35.33473293994614
4.74275566124991 -28.78640842160418 35.32879187036443
4.748518392434951 -29.08780749571014 35.32270537074211
4.755939263007037 -29.39686464466579 35.316330515906905
4.765118483375451 -29.713573920898632 35.30966025202269
4.776142606886588 -30.03793207376091 35.30268714267006
4.789055610237588 -30.36994203312048 35.29540459031353
4.803817055609507 -30.7096174454047 35.28780878456149
4.820247449249814 -31.05698799530428 35.27990137916729
4.837966878699365 -31.412104626218746 35.27169266008103
4.8563436319369915 -31.77504276375268 35.263204603946825
4.874482845208364 -32.14590048796141 35.25447277946629
4.891293170969509 -32.52478817108227 35.24554566690253
4.9056578385101135 -32.91180785958841 35.236480003450765
4.916694075727365 -33.30702560744401 35.2273316708607
4.924020806812157 -33.71044661181809 35.218143641089576
4.927908973405951 -34.122006588364876 35.20893492790422
4.929213192941794 -34.54158803021524 35.19969563663467
4.930417975851492 -34.75793185184927 35.40681625043893
4.931918116507131 -34.76705565935896 35.82642285249454
4.931129340099103 -34.776176922415864 36.23839022299508
4.926926110157818 -34.785324130022644 36.642851434033815
4.91884254300903 -34.79448485233809 37.03988753015892
4.907187205679824 -34.80361071419751 37.42950556486384
4.892872910134084 -34.81263292036708 37.81164629225909
4.877089430050847 -34.82148032195633 38.186211822054986
4.860985158825252 -34.83009319450105 38.55309689011375
4.845464022550886 -34.83842990074936 38.912211528516835
4.831117131215264 -34.84646726042629 39.26349126314891
4.818251428571169 -34.854197158969235 39.60689728001902
4.80696323815583 -34.86162188020415 39.94241121528804
4.797217236876471 -34.868749773712466 40.27002850508573
4.788910843919893 -34.87559195099793 40.589752522583474
4.781918810424829 -34.882160094409656 40.90159027761107
4.776120434051959 -34.8884651797701 41.20554962978294
4.771414212156462 -34.894516846165246 41.50163765645283
4.7677244840333515 -34.90032317932203 41.78985979124576
4.765003470070715 -34.90589073599698 42.070219430652536
4.763230948247053 -34.91122469356604 42.34271780230544
4.762412899725838 -34.91632905288081 42.607353965456056
4.762579826705704 -34.92120685404738 42.86412486799763
4.763785026609323 -34.925860386782716 43.113025421780236
4.766102810618349 -34.930291391757315 43.354048586812844
4.769626415541007 -34.934501258519425 43.58718548050488
4.774465153196304 -34.93849123013598 43.812425551488694
4.780740200161028 -34.942262624874814 44.0297568753101
4.7885784210365205 -34.94581708093502 44.23916663461235
4.798103810278436 -34.94915682163436 44.440641832376336
4.809426554404378 -34.95228492686411 44.63417025047861
4.822630299494454 -34.9552055847697 44.819741611931406
4.837758817955295 -34.95792428914034 44.997348846124154
4.854803722263753 -34.9604479463172 45.1669893090371
4.873695015184908 -34.962784862290114 45.32866579010295
4.894296023881632 -34.96494459534856 45.482387152256536
4.916403679948172 -34.96693767909125 45.62816849965246
4.93975431635381 -34.96877524028407 45.76603083715647
4.964034341653805 -34.97046855156051 45.8960002605081
4.988894496646095 -34.972028567161644 46.01810677963397
5.01396601570525 -34.97346548978921 46.13238291835764
5.0388769416779065 -34.97478840911757 46.238862247000405
5.063267043457772 -34.97600503999861 46.337577992199094
5.086800174428958 -34.97712157382191 46.42856183751761
5.109173385419737 -34.9781426426144 46.51184298799311
5.130122574295898 -34.979071384216766 46.58744753012634
5.149424848327956 -34.97990958932141 46.6553980824148
5.166898058972629 -34.98065790738004 46.71571370410084
5.182398134191967 -34.981316087908326 46.768410012523546
5.195814893977985 -34.98188323564889 46.81349945159171
5.234814489363819 -23.115588602263895 35.40428158992819
5.22046750361306 -23.163704884839458 35.40405811295621
5.203949936931664 -23.219809401869856 35.40382447066413
5.185395404507055 -23.283850512239443 35.40359216038085
5.164969034542863 -23.35576800825942 35.40337345039457
5.142870028531429 -23.435493109344584 35.403181062955326
5.1193330696417645 -23.52294871266563 35.403027852776674
5.094628148652761 -23.618049960439482 35.40292650018115
5.067498955945604 -23.720575608276167 35.4040654319713
5.043435591399483 -23.83420286338135 35.40177619243935
5.018739565460957 -23.95543371223236 35.39951381736012
4.993707339509333 -24.08415445760621 35.39730909750264
4.968648677709426 -24.220248408788965 35.395192879515164
4.94387629227891 -24.363597877355126 35.39319619203373
4.919695011950785 -24.514086037101478 35.391350516352965
4.896391596214573 -24.671598436224734 35.38968818465438
4.874226321086731 -24.83602397701614 35.38824287209765
4.853427272210359 -25.00725524139833 35.38705013575456
4.834187914053079 -25.185188131086136 35.386147946371146
4.81666802224601 -25.36972089225203 35.38557716021443
4.792037560740705 -25.55321760508034 35.3922712580087
4.780489531597209 -25.758427377142965 35.3873348932534
4.770094333626316 -25.970871592124237 35.38243674924886
4.760908002710082 -26.190503871413238 35.377600574001235
4.752983797943188 -26.41727569632238 35.37285189189289
4.746376291988269 -26.651135682650274 35.36821798802571
4.7411452327623635 -26.892029017122965 35.363727846165695
4.737359352196982 -27.139897002996634 35.359412039963644
4.733417937848153 -27.391003647973722 35.35787343429708
4.733052582718721 -27.65528739898502 35.35221226182609
4.733802475891494 -27.92701000436979 35.346464262141815
4.735696909807771 -28.206158454693174 35.34063554330096
4.73877459557507 -28.49271713511096 35.33473293994614
4.74275566124991 -28.78640842160418 35.32879187036443
4.748518392434951 -29.08780749571014 35.32270537074211
4.755939263007037 -29.39686464466579 35.316330515906905
4.765118483375451 -29.713573920898632 35.30966025202269
4.776142606886588 -30.03793207376091 35.30268714267006
4.789055610237588 -30.36994203312048 35.29540459031353
4.803817055609507 -30.7096174454047 35.28780878456149
4.820247449249814 -31.05698799530428 35.27990137916729
4.837966878699365 -31.412104626218746 35.27169266008103
4.8563436319369915 -31.77504276375268 35.263204603946825
4.874482845208364 -32.14590048796141 35.25447277946629
4.891293170969509 -32.52478817108227 35.24554566690253
4.9056578385101135 -32.91180785958841 35.236480003450765
4.916694075727365 -33.30702560744401 35.2273316708607
4.924020806812157 -33.71044661181809 35.218143641089576
4.927908973405951 -34.122006588364876 35.20893492790422
4.929213192941794 -34.54158803021524 35.19969563663467
4.930417975851492 -34.75793185184927 35.40681625043893
4.931918116507131 -34.76705565935896 35.82642285249454
4.931129340099103 -34.776176922415864 36.23839022299508
4.926926110157818 -34.785324130022644 36.642851434033815
4.91884254300903 -34.79448485233809 37.03988753015892
4.907187205679824 -34.80361071419751 37.42950556486384
4.892872910134084 -34.81263292036708 37.81164629225909
4.877089430050847 -34.82148032195633 38.186211822054986
4.860985158825252 -34.83009319450105 38.55309689011375
4.845464022550886 -34.83842990074936 38.912211528516835
4.831117131215264 -34.84646726042629 39.26349126314891
4.818251428571169 -34.854197158969235 39.60689728001902
4.80696323815583 -34.86162188020415 39.94241121528804
4.797217236876471 -34.868749773712466 40.27002850508573
4.788910843919893 -34.87559195099793 40.589752522583474
4.781918810424829 -34.882160094409656 40.90159027761107
4.776120434051959 -34.8884651797701 41.20554962978294
4.771414212156462 -34.894516846165246 41.50163765645283
4.7677244840333515 -34.90032317932203 41.78985979124576
4.765003470070715 -34.90589073599698 42.070219430652536
4.763230948247053 -34.91122469356604 42.34271780230544
4.762412899725838 -34.91632905288081 42.607353965456056
4.762579826705704 -34.92120685404738 42.86412486799763
4.763785026609323 -34.925860386782716 43.113025421780236
4.766102810618349 -34.930291391757315 43.354048586812844
4.769626415541007 -34.934501258519425 43.58718548050488
4.774465153196304 -34.93849123013598 43.812425551488694
4.780740200161028 -34.942262624874814 44.0297568753101
4.7885784210365205 -34.94581708093502 44.23916663461235
4.798103810278436 -34.94915682163436 44.440641832376336
4.809426554404378 -34.95228492686411 44.63417025047861
4.822630299494454 -34.9552055847697 44.819741611931406
4.837758817955295 -34.95792428914034 44.997348846124154
4.854803722263753 -34.9604479463172 45.1669893090371
4.873695015184908 -34.962784862290114 45.32866579010295
4.894296023881632 -34.96494459534856 45.482387152256536
4.916403679948172 -34.96693767909125 45.62816849965246
4.93975431635381 -34.96877524028407 45.76603083715647
4.964034341653805 -34.97046855156051 45.8960002605081
4.988894496646095 -34.972028567161644 46.01810677963397
5.01396601570525 -34.97346548978921 46.13238291835764
5.0388769416779065 -34.97478840911757 46.238862247000405
5.063267043457772 -34.97600503999861 46.337577992199094
5.086800174428958 -34.97712157382191 46.42856183751761
5.109173385419737 -34.9781426426144 46.51184298799311
5.130122574295898 -34.979071384216766 46.58744753012634
5.149424848327956 -34.97990958932141 46.6553980824148
5.166898058972629 -34.98065790738004 46.71571370410084
5.182398134191967 -34.981316087908326 46.768410012523546
5.195814893977985 -34.98188323564889 46.81349945159171

VECTORS L float
0.0586099380858789 0.0 0.0
0.10597638546916562 0.0 0.0
0.1573545300909467 0.0 0.0
0.21447292576605784 0.0 0.0
0.27782451783753054 0.0 0.0
0.3475684481069481 0.0 0.0
0.4237248800721692 0.0 0.0
0.5062341076437001 0.0 0.0
0.5949755868257367 0.0 0.0
0.6897996302044691 0.0 0.0
0.790480880327721 0.0 0.0
0.8967569003976121 0.0 0.0
1.0083260040676403 0.0 0.0
1.124852583013739 0.0 0.0
1.2459745056265699 0.0 0.0
1.3713129617156654 0.0 0.0
1.5004833159056832 0.0 0.0
1.6331053833824227 0.0 0.0
1.7688116724688099 0.0 0.0
1.9072459214977684 0.0 0.0
2.04800745384013 0.0 0.0
2.191068094238541 0.0 0.0
2.336050722762154 0.0 0.0
2.4826875654558678 0.0 0.0
2.630748690968402 0.0 0.0
2.7800311040572754 0.0 0.0
2.930346921982678 0.0 0.0
3.0815567720371004 0.0 0.0
3.233469205839817 0.0 0.0
3.3860190904036 0.0 0.0
3.5390048163966576 0.0 0.0
3.692249953516239 0.0 0.0
3.845566131545067 0.0 0.0
3.9987337779678276 0.0 0.0
4.151534257725615 0.0 0.0
4.303653938762042 0.0 0.0
4.454707520142277 0.0 0.0
4.604203611317864 0.0 0.0
4.7515160452035365 0.0 0.0
4.895849310274335 0.0 0.0
5.036223704947579 0.0 0.0
5.171422474266723 0.0 0.0
5.300005124844661 0.0 0.0
5.4203501207618325 0.0 0.0
5.530782111188725 0.0 0.0
5.629848448378233 0.0 0.0
5.716862451314005 0.0 0.0
5.792985928893872 0.0 0.0
5.8637761759996305 0.0 0.0
5.9539931583231995 0.0 0.0
6.215509573227073 0.0 0.0
6.244249904040737 0.0 0.0
6.289549932929635 0.0 0.0
6.326161426385527 0.0 0.0
6.347698410548621 0.0 0.0
6.352107970608556 0.0 0.0
6.339370758226227 0.0 0.0
6.310206171491448 0.0 0.0
6.265979666381131 0.0 0.0
6.2080810885615305 0.0 0.0
6.137808628651087 0.0 0.0
6.056326282100636 0.0 0.0
5.964467093270798 0.0 0.0
5.863079849227269 0.0 0.0
5.752832883994703 0.0 0.0
5.634274137556891 0.0 0.0
5.507867652039139 0.0 0.0
5.374000774457536 0.0 0.0
5.2330520725275305 0.0 0.0
5.0853755224295805 0.0 0.0
4.931296965925566 0.0 0.0
4.7711362460258 0.0 0.0
4.605221768070936 0.0 0.0
4.433901269276949 0.0 0.0
4.257584711447001 0.0 0.0
4.076521426742359 0.0 0.0
3.89121013309441 0.0 0.0
3.7021492381753816 0.0 0.0
3.509883643501012 0.0 0.0
3.315008513979506 0.0 0.0
3.118180576396276 0.0 0.0
2.9201186016408314 0.0 0.0
2.7216107343355347 0.0 0.0
2.5234627662693905 0.0 0.0
2.3265720720227097 0.0 0.0
2.131871986132828 0.0 0.0
1.9403234851547222 0.0 0.0
1.752897015316515 0.0 0.0
1.5705522729491008 0.0 0.0
1.3942183327065647 0.0 0.0
1.224776188851673 0.0 0.0
1.0630443497526114 0.0 0.0
0.9097668826124732 0.0 0.0
0.76560225996041 0.0 0.0
0.6311099870043964 0.0 0.0
0.506729024895472 0.0 0.0
0.3927323432917046 0.0 0.0
0.289111212146884 0.0 0.0
0.19520425999478977 0.0 0.0
0.10799581803283581 0.0 0.0
0.0586099380858789 0.0 0.0
0.10597638546916562 0.0 0.0
0.1573545300909467 0.0 0.0
0.21447292576605784 0.0 0.0
0.27782451783753054 0.0 0.0
0.3475684481069481 0.0 0.0
0.4237248800721692 0.0 0.0
0.5062341076437001 0.0 0.0
0.5949755868257367 0.0 0.0
0.6897996302044691 0.0 0.0
0.790480880327721 0.0 0.0
0.8967569003976121 0.0 0.0
1.0083260040676403 0.0 0.0
1.124852583013739 0.0 0.0
1.2459745056265699 0.0 0.0
1.3713129617156654 0.0 0.0
1.5004833159056832 0.0 0.0
1.6331053833824227 0.0 0.0
1.7688116724688099 0.0 0.0
1.9072459214977684 0.0 0.0
2.04800745384013 0.0 0.0
2.191068094238541 0.0 0.0
2.336050722762154 0.0 0.0
2.4826875654558678 0.0 0.0
2.630748690968402 0.0 0.0
2.7800311040572754 0.0 0.0
2.930346921982678 0.0 0.0
3.0815567720371004 0.0 0.0
3.233469205839817 0.0 0.0
3.3860190904036 0.0 0.0
3.5390048163966576 0.0 0.0
3.692249953516239 0.0 0.0
3.845566131545067 0.0 0.0
3.9987337779678276 0.0 0.0
4.151534257725615 0.0 0.0
4.303653938762042 0.0 0.0
4.454707520142277 0.0 0.0
4.604203611317864 0.0 0.0
4.7515160452035365 0.0 0.0
4.895849310274335 0.0 0.0
5.036223704947579 0.0 0.0
5.171422474266723 0.0 0.0
5.300005124844661 0.0 0.0
5.4203501207618325 0.0 0.0
5.530782111188725 0.0 0.0
5.629848448378233 0.0 0.0
5.716862451314005 0.0 0.0
5.792985928893872 0.0 0.0
5.8637761759996305 0.0 0.0
5.9539931583231995 0.0 0.0
6.215509573227073 0.0 0.0
6.244249904040737 0.0 0.0
6.289549932929635 0.0 0.0
6.326161426385527 0.0 0.0
6.347698410548621 0.0 0.0
6.352107970608556 0.0 0.0
6.339370758226227 0.0 0.0
6.310206171491448 0.0 0.0
6.265979666381131 0.0 0.0
6.2080810885615305 0.0 0.0
6.137808628651087 0.0 0.0
6.056326282100636 0.0 0.0
5.964467093270798 0.0 0.0
5.863079849227269 0.0 0.0
5.752832883994703 0.0 0.0
5.634274137556891 0.0 0.0
5.507867652039139 0.0 0.0
5.374000774457536 0.0 0.0
5.2330520725275305 0.0 0.0
5.0853755224295805 0.0 0.0
4.931296965925566 0.0 0.0
4.7711362460258 0.0 0.0
4.605221768070936 0.0 0.0
4.433901269276949 0.0 0.0
4.257584711447001 0.0 0.0
4.076521426742359 0.0 0.0
3.89121013309441 0.0 0.0
3.7021492381753816 0.0 0.0
3.509883643501012 0.0 0.0
3.315008513979506 0.0 0.0
3.118180576396276 0.0 0.0
2.9201186016408314 0.0 0.0
2.7216107343355347 0.0 0.0
2.5234627662693905 0.0 0.0
2.3265720720227097 0.0 0.0
2.131871986132828 0.0 0.0
1.9403234851547222 0.0 0.0
1.752897015316515 0.0 0.0
1.5705522729491008 0.0 0.0
1.3942183327065647 0.0 0.0
1.224776188851673 0.0 0.0
1.0630443497526114 0.0 0.0
0.9097668826124732 0.0 0.0
0.76560225996041 0.0 0.0
0.6311099870043964 0.0 0.0
0.506729024895472 0.0 0.0
0.3927323432917046 0.0 0.0
0.289111212146884 0.0 0.0
0.19520425999478977 0.0 0.0
0.10799581803283581 0.0 0.0

SCALARS Gamma float
LOOKUP_TABLE default
0.42413895011108166
0.6519141120638998
0.8383351821426849
1.0060778753141522
1.1627604142368169
1.3117292803967189
1.4546319574839945
1.592300098935831
1.7251180160926187
1.8532653017821263
1.9766777986595554
2.0952161582178572
2.208688642359589
2.31688159668065
2.4195842614201624
2.516610206916513
2.607813748263132
2.693100150275306
2.772429080799048
2.845802130376262
2.913186114956782
2.975057373881621
3.03139393618307
3.0823292234022817
3.1280395965623544
3.1687236144554443
3.2045852597153157
3.235865536246317
3.2627378984648145
3.285485983364138
3.3042452369025312
3.3191699974472044
3.3303984769754127
3.3380395837411005
3.342202193413807
3.342922075931107
3.3401909205145563
3.3339393788257934
3.3240278769367624
3.310236179156266
3.2922683985856795
3.2697347499931153
3.242177632277468
3.209110840241722
3.170098821309024
3.1248995736433147
3.073710665871054
3.0176008202508733
2.9593317650203756
2.9060392177252243
2.900121455941478
2.9410433125717343
2.9864353610015337
3.029521848192992
3.067745304708925
3.1001414466570276
3.1265966852960547
3.1473110052810016
3.1627854258130252
3.1735347065208748
3.180032876018899
3.1826919503470164
3.181757013756612
3.1774809247175355
3.1700213637668466
3.159467291923365
3.145854901197264
3.129167962673408
3.1093731752424856
3.0864096495990303
3.060184012307231
3.030580678994978
2.9974686339717906
2.960706592000842
2.9201704321931627
2.875601079889745
2.8268766332494586
2.773851057474748
2.7163848531690813
2.654349396559905
2.587638366878891
2.5161728224849136
2.4399136642694312
2.358823363639363
2.272937966401064
2.1823302603447163
2.0871113552777265
1.9874223459545333
1.883420841042918
1.7752630438318493
1.6630819190422703
1.5469601992663642
1.4268942371617845
1.3027401638752596
1.1741247471197669
1.040282328773748
0.8997202856548868
0.7494298856014902
0.5825870862911348
0.3789280298551705
0.42413895011108166
0.6519141120638998
0.8383351821426849
1.0060778753141522
1.1627604142368169
1.3117292803967189
1.4546319574839945
1.592300098935831
1.7251180160926187
1.8532653017821263
1.9766777986595554
2.0952161582178572
2.208688642359589
2.31688159668065
2.4195842614201624
2.516610206916513
2.607813748263132
2.693100150275306
2.772429080799048
2.845802130376262
2.913186114956782
2.975057373881621
3.03139393618307
3.0823292234022817
3.1280395965623544
3.1687236144554443
3.2045852597153157
3.235865536246317
3.2627378984648145
3.285485983364138
3.3042452369025312
3.3191699974472044
3.3303984769754127
3.3380395837411005
3.342202193413807
3.342922075931107
3.3401909205145563
3.3339393788257934
3.3240278769367624
3.310236179156266
3.2922683985856795
3.2697347499931153
3.242177632277468
3.209110840241722
3.170098821309024
3.1248995736433147
3.073710665871054
3.0176008202508733
2.9593317650203756
2.9060392177252243
2.900121455941478
2.9410433125717343
2.9864353610015337
3.029521848192992
3.067745304708925
3.1001414466570276
3.1265966852960547
3.1473110052810016
3.1627854258130252
3.1735347065208748
3.180032876018899
3.1826919503470164
3.181757013756612
3.1774809247175355
3.1700213637668466
3.159467291923365
3.145854901197264
3.129167962673408
3.1093731752424856
3.0864096495990303
3.060184012307231
3.030580678994978
2.9974686339717906
2.960706592000842
2.9201704321931627
2.875601079889745
2.8268766332494586
2.773851057474748
2.7163848531690813
2.654349396559905
2.587638366878891
2.5161728224849136
2.4399136642694312
2.358823363639363
2.272937966401064
2.1823302603447163
2.0871113552777265
1.9874223459545333
1.883420841042918