# vtk DataFile Version 4.0
[MyVLM domain - lattices] 
ASCII
DATASET UNSTRUCTURED_GRID
POINTS 302 float
0.034182456231286566 3.6102588977217915 5.018618313841435
0.03405815639044552 3.6080715301751876 5.024631586698339
0.03391102596659286 3.6054824012424724 5.031749338243246
0.03374106495972857 3.602491510923646 5.039971568476156
0.03354827336985267 3.5990988592187096 5.049298277397069
0.03333265119696514 3.5953044461276615 5.059729465005985
0.03309419844106601 3.591108271650503 5.071265131302903
0.03283291510215525 3.5865103357872323 5.083905276287823
0.032548801180232866 3.5815106385378526 5.097649899960747
0.032241856675298865 3.57610917990236 5.112499002321674
0.031912081587353244 3.5703059598807574 5.128452583370604
0.031559475916396 3.5641009784730433 5.145510643107536
0.03118403966242714 3.557494235679219 5.16367318153247
0.03078577282544666 3.550485731499284 5.182940198645409
0.03036467540545456 3.543075465933238 5.203311694446349
0.029920747402450834 3.53526343898108 5.224787668935293
0.029453988816435493 3.5270496506428115 5.247368122112239
0.028964399647408524 3.5184341009184323 5.271053053977188
0.02845197989536994 3.509416789807941 5.29584246453014
0.027916729560319747 3.49999771731134 5.321736353771095
0.027358648642257927 3.4901768834286284 5.348734721700053
0.026777737141184477 3.479954288159805 5.376837568317013
0.02617399505709942 3.469329931504871 5.406044893621976
0.02554742239000274 3.458303813463826 5.436356697614942
0.02489801913989444 3.4468759340366693 5.46777298029591
0.02422578530677452 3.435046293223403 5.500293741664882
0.02353072089064298 3.4228148910240255 5.533918981721857
0.022812825891499813 3.4101817274385358 5.5686487004668335
0.022072100309345036 3.3971468024669367 5.604482897899814
0.021308544144178633 3.3837101161092256 5.6414215740207965
0.020522157396000613 3.369871668365404 5.679464728829782
0.01971294006481097 3.3556314592354703 5.718612362326771
0.018880892150609712 3.3409894887194267 5.758864474511761
0.01802601365339683 3.3259457568172732 5.800221065384756
0.017148304573172332 3.3105002635290077 5.842682134945752
0.016247764909936208 3.2946530088546306 5.886247683194752
0.015324394663688467 3.2784039927941433 5.930917710131755
0.014378193834429105 3.261753215347545 5.97669221575676
0.013409162422158128 3.244700676514835 6.023571200069768
0.012417300426875529 3.227246376296015 6.071554663070779
0.011402607848581306 3.209390314691084 6.120642604759793
0.010365084687275466 3.191132491700041 6.1708350251368085
0.009304730942958007 3.1724729073228883 6.222131924201828
0.008221546615628919 3.153411561559624 6.27453330195485
0.0071155317052882215 3.1339484544102487 6.3280391583958755
0.005986686211935898 3.114083585874763 6.382649493524903
0.004835010135571957 3.093816955953166 6.438364307341934
0.003660503476196396 3.0731485646454577 6.495183599846968
0.0024631662338092204 3.052078411951639 6.553107371040003
0.00124299840841042 3.030606497871709 6.612135620921042
0.0 3.008732822405668 6.672268349490084
0.0012429984084104148 3.06885729254344 6.694164714809559
0.002463166233809209 3.1278774356786814 6.715658901990514
0.0036605034761963847 3.185793251811392 6.736750911032947
0.00483501013557194 3.242604740941572 6.7574407419368585
0.005986686211935875 3.298311903069222 6.777728394702251
0.0071155317052881886 3.352914738194341 6.797613869329122
0.008221546615628884 3.40641324631693 6.81709716581747
0.009304730942957959 3.4588074274369878 6.836178284167299
0.010365084687275414 3.5100972815545166 6.854857224378606
0.011402607848581253 3.5602828086695135 6.873133986451393
0.012417300426875468 3.6093640087819803 6.89100857038566
0.013409162422158062 3.657340881891916 6.908480976181403
0.014378193834429037 3.704213427999322 6.925551203838627
0.015324394663688394 3.7499816471041973 6.94221925335733
0.01624776490993613 3.794645539206542 6.9584851247375115
0.017148304573172245 3.8382051043063563 6.974348817979173
0.018026013653396747 3.8806603424036403 6.989810333082312
0.018880892150609625 3.9220112534983933 7.004869670046931
0.019712940064810884 3.962257837590617 7.019526828873029
0.02052215739600052 4.001400094680308 7.0337818095606055
0.021308544144178536 4.03943802476747 7.04763461210966
0.022072100309344932 4.076371627852101 7.061085236520196
0.02281282589149971 4.112200903934202 7.07413368279221
0.023530720890642867 4.146925853013772 7.086779950925703
0.024225785306774404 4.180546475090813 7.099024040920675
0.024898019139894322 4.213062770165322 7.110865952777125
0.02554742239000262 4.2444747382373 7.122305686495055
0.0261739950570993 4.274782379306748 7.1333432420744645
0.02677773714118436 4.303985693373666 7.1439786195153525
0.027358648642257795 4.3320846804380535 7.1542118188177195
0.027916729560319615 4.35907934049991 7.1640428399815645
0.028451979895369812 4.384969673559236 7.173471683006892
0.02896439964740839 4.4097556796160315 7.182498347893695
0.029453988816435354 4.433437358670297 7.191122834641978
0.029920747402450692 4.456014710722032 7.199345143251741
0.03036467540545441 4.477487735771236 7.207165273722982
0.03078577282544651 4.497856433817909 7.214583226055701
0.031184039662426992 4.517120804862053 7.2215990002499
0.031559475916395845 4.535280848903666 7.22821259630558
0.03191208158735309 4.552336565942748 7.2344240142227365
0.03224185667529871 4.568287955979299 7.240233254001372
0.03254880118023271 4.583135019013321 7.245640315641488
0.032832915102155094 4.596877755044812 7.250645199143083
0.033094198441065856 4.609516164073772 7.255247904506156
0.03333265119696499 4.621050246100201 7.259448431730708
0.03354827336985251 4.6314800011241 7.26324678081674
0.033741064959728416 4.64080542914547 7.266642951764251
0.0339110259665927 4.649026530164307 7.2696369445732385
0.034058156390445356 4.656143304180615 7.272228759243709
0.0341824562312864 4.662155751194392 7.274418395775656
0.04785543872380116 4.0612486985427605 4.80831831596882
0.04773113888296012 4.0590613309961565 4.814331588825723
0.04758400845910745 4.056472202063442 4.821449340370631
0.04741404745224317 4.053481311744616 4.829671570603541
0.047221255862367265 4.050088660039679 4.8389982795244535
0.04700563368947974 4.046294246948631 4.849429467133369
0.04676718093358061 4.042098072471472 4.8609651334302875
0.04650589759466984 4.037500136608202 4.873605278415209
0.046221783672747464 4.032500439358822 4.887349902088132
0.04591483916781346 4.02709898072333 4.902199004449058
0.045585064079867836 4.021295760701727 4.918152585497988
0.0452324584089106 4.015090779294014 4.93521064523492
0.044857022154941736 4.008484036500189 4.953373183659855
0.04445875531796125 4.001475532320254 4.972640200772793
0.04403765789796915 3.9940652667542067 4.993011696573734
0.04359372989496543 3.9862532398020494 5.014487671062677
0.04312697130895009 3.978039451463781 5.037068124239624
0.04263738213992312 3.9694239017394017 5.0607530561045735
0.042124962387884546 3.9604065906289114 5.085542466657525
0.04158971205283434 3.9509875181323095 5.11143635589848
0.04103163113477252 3.941166684249598 5.138434723827437
0.040450719633699075 3.930944088980775 5.166537570444397
0.03984697754961402 3.9203197323258405 5.19574489574936
0.03922040488251734 3.9092936142847954 5.226056699742326
0.038571001632409035 3.8978657348576395 5.257472982423295
0.037898767799289114 3.8860360940443726 5.289993743792267
0.03720370338315757 3.873804691844995 5.323618983849241
0.03648580838401441 3.8611715282595056 5.358348702594219
0.035745082801859625 3.848136603287906 5.394182900027198
0.03498152663669323 3.8346999169301954 5.431121576148181
0.034195139888515205 3.8208614691863727 5.469164730957167
0.03338592255732557 3.8066212600564406 5.508312364454155
0.0325538746431243 3.791979289540396 5.548564476639147
0.03169899614591143 3.7769355576382426 5.58992106751214
0.030821287065686924 3.761490064349977 5.6323821370731375
0.0299207474024508 3.7456428096756 5.675947685322137
0.028997377156203062 3.7293937936151127 5.7206177122591395
0.0280511763269437 3.712743016168514 5.766392217884144
0.02708214491467272 3.695690477335805 5.813271202197153
0.026090282919390122 3.6782361771169847 5.861254665198164
0.025075590341095903 3.6603801155120532 5.910342606887177
0.02403806717979006 3.642122292521011 5.960535027264194
0.0229777134354726 3.623462708143858 6.011831926329213
0.021894529108143518 3.6044013623805933 6.064233304082235
0.020788514197802817 3.5849382552312186 6.11773916052326
0.019659668704450493 3.5650733866957323 6.172349495652288
0.018507992628086552 3.544806756774135 6.228064309469318
0.01733348596871099 3.5241383654664276 6.284883601974352
0.016136148726323817 3.503068212772608 6.342807373167387
0.014915980900925017 3.4815962986926787 6.401835623048426
0.013672982492514595 3.459722623226637 6.461968351617468
0.01491598090092501 3.5198470933644095 6.483864716936944
0.016136148726323803 3.5788672364996503 6.505358904117897
0.017333485968710982 3.6367830526323615 6.526450913160331
0.01850799262808654 3.6935945417625415 6.547140744064244
0.01965966870445047 3.7493017038901915 6.567428396829635
0.020788514197802782 3.8039045390153103 6.587313871456507
0.02189452910814348 3.8574030471378995 6.606797167944856
0.022977713435472558 3.909797228257958 6.625878286294684
0.02403806717979001 3.961087082375486 6.644557226505992
0.025075590341095848 4.011272609490483 6.662833988578778
0.026090282919390067 4.06035380960295 6.680708572513043
0.027082144914672656 4.108330682712886 6.6981809783087884
0.028051176326943626 4.155203228820292 6.715251205966011
0.02899737715620299 4.200971447925167 6.731919255484716
0.029920747402450727 4.245635340027512 6.748185126864895
0.03082128706568684 4.289194905127326 6.764048820106557
0.031698996145911346 4.33165014322461 6.7795103352096975
0.032553874643124224 4.373001054319364 6.7945696721743145
0.033385922557325476 4.413247638411586 6.809226831000412
0.034195139888515115 4.452389895501279 6.823481811687991
0.034981526636693135 4.49042782558844 6.8373346142370455
0.03574508280185953 4.527361428673071 6.850785238647581
0.036485808384014294 4.563190704755172 6.863833684919594
0.03720370338315746 4.597915653834742 6.876479953053087
0.037898767799289 4.631536275911781 6.88872404304806
0.038571001632408924 4.664052570986291 6.90056595490451
0.03922040488251722 4.695464539058269 6.912005688622439
0.039846977549613895 4.725772180127718 6.923043244201849
0.04045071963369895 4.754975494194635 6.933678621642738
0.041031631134772394 4.783074481259023 6.943911820945105
0.04158971205283422 4.81006914132088 6.95374284210895
0.04212496238788441 4.835959474380205 6.9631716851342755
0.042637382139922984 4.860745480437002 6.97219835002108
0.04312697130894994 4.884427159491267 6.980822836769363
0.043593729894965294 4.907004511543001 6.989045145379125
0.04403765789796901 4.928477536592205 6.996865275850367
0.044458755317961104 4.948846234638879 7.004283228183088
0.044857022154941584 4.968110605683022 7.011299002377285
0.04523245840891044 4.986270649724635 7.0179125984329636
0.04558506407986769 5.003326366763718 7.02412401635012
0.045914839167813304 5.019277756800269 7.029933256128757
0.04622178367274731 5.0341248198342905 7.035340317768871
0.046505897594669686 5.047867555865781 7.040345201270468
0.046767180933580454 5.060505964894741 7.044947906633541
0.04700563368947958 5.07204004692117 7.049148433858093
0.04722125586236711 5.08246980194507 7.052946782944123
0.047414047452243015 5.091795229966438 7.056342953891635
0.04758400845910729 5.100016330985277 7.059336946700624
0.047731138882959954 5.107133105001585 7.061928761371094
0.04785543872380099 5.113145552015362 7.064118397903041
0.04437504318025199 3.947407564564217 4.863899951865426
0.04423932804790513 3.9450193163245566 4.870465464066331
0.04408078233254666 3.9422293066987866 4.87813545495524
0.04389940603417657 3.9390375356869054 4.8869099245321515
0.04369519915279486 3.9354440032889126 4.896788872797066
0.04346816168840153 3.9314487095048087 4.907772299749982
0.04321829364099657 3.927051654334595 4.9198602053909015
0.042945595010580005 3.9222528377782697 4.933052589719824
0.04265006579715181 3.9170522598358337 4.9473494527367485
0.042331706000712004 3.9114499205072857 4.962750794441677
0.04199051562126057 3.905445819792628 4.979256614834608
0.041626494658797523 3.899039957691859 4.996866913915541
0.041239643113322844 3.8922323342049787 5.015581691684478
0.04082996098483655 3.8850229493319883 5.035400948141417
0.04039744827333864 3.877411803072886 5.056324683286359
0.039942104978829114 3.8693988954276732 5.078352897119304
0.039463931101307956 3.8609842263963494 5.1014855896402524
0.038962926640775185 3.8521677959789145 5.125722760849203
0.0384390915972308 3.8429496041753683 5.151064410746156
0.037892425970674784 3.8333296509857115 5.177510539331112
0.03732292976110715 3.8233079364099436 5.205061146604072
0.0367306029685279 3.8128844604480654 5.233716232565033
0.036115445592937036 3.8020592231000756 5.263475797213998
0.03547745763433454 3.790832224365975 5.294339840550965
0.034816639092720425 3.7792034642457635 5.326308362575935
0.0341329899680947 3.767172942739441 5.359381363288907
0.03342651026045735 3.754740659847008 5.393558842689884
0.03269719996980838 3.7419066155684635 5.428840800778862
0.03194505909614778 3.728670809903808 5.465227237555844
0.03117008763947557 3.7150332428530417 5.502718153020828
0.03037228559979174 3.7009939144161645 5.541313547173814
0.02955165297709629 3.6865528245931767 5.581013420014805
0.028708189771389215 3.671709973384077 5.621817771543797
0.027841895982670527 3.656465360788867 5.663726601760793
0.026952771610940215 3.6408189868075462 5.706739910665791
0.026040816656198288 3.624770851440114 5.750857698258792
0.025106031118444734 3.608320954686571 5.796079964539796
0.024148414997679564 3.591469296546917 5.842406709508802
0.023167968293902778 3.5742158770211527 5.889837933165812
0.02216469100711437 3.5565606961092766 5.938373635510824
0.021138583137314332 3.53850375381129 5.988013816543839
0.020089644684502687 3.5200450501271914 6.0387584762648565
0.019017875648679412 3.5011845850569836 6.090607614673878
0.01792327602984452 3.481922358600664 6.143561231770901
0.016805845827998007 3.4622583707582333 6.197619327555928
0.015665585043139883 3.4421926215296916 6.252781902028957
0.014502493675270131 3.421725110915039 6.309048955189989
0.013316571724388758 3.4008558389142762 6.366420487039024
0.012107819190495769 3.379584805527401 6.424896497576061
0.010876236073591157 3.357912010754416 6.484476986801101
0.010876236073591153 3.377037408090281 6.52549153374536
0.012107819190495759 3.4366097147267882 6.547186809995575
0.013316571724388744 3.4950776943607638 6.5684799081072685
0.014502493675270107 3.552441346992209 6.589370828080441
0.015665585043139856 3.608700672621125 6.609859569915094
0.01680584582799798 3.6638556712475094 6.629946133611225
0.017923276029844486 3.717906342871363 6.649630519168833
0.01901787564867937 3.770852687492686 6.668912726587924
0.020089644684502632 3.82269470511148 6.687792755868491
0.021138583137314284 3.8734323957277423 6.706270607010539
0.022164691007114313 3.9230657593414744 6.724346280014066
0.023167968293902715 3.971594795952676 6.742019774879069
0.0241484149976795 4.019019505561347 6.7592910916055535
0.025106031118444665 4.065339888167487 6.7761602301935175
0.026040816656198208 4.110555943771097 6.792627190642959
0.026952771610940143 4.1546676723721765 6.80869197295388
0.027841895982670443 4.197675073970726 6.824354577126281
0.02870818977138914 4.2395781485667445 6.8396150031601595
0.0295516529770962 4.280376896160232 6.854473251055518
0.030372285599791646 4.320071316751189 6.868929320812356
0.031170087639475475 4.358661410339616 6.882983212430672
0.031945059096147685 4.396147176925513 6.896634925910467
0.032697199969808265 4.432528616508879 6.9098844612517425
0.03342651026045723 4.467805729089714 6.922731818454495
0.034132989968094586 4.50197851466802 6.935176997518728
0.03481663909272031 4.535046973243794 6.947219998444439
0.035477457634334415 4.567011104817038 6.958860821231629
0.03611544559293691 4.597870909387751 6.970099465880298
0.03673060296852778 4.627626386955935 6.980935932390447
0.03732292976110703 4.6562775375215875 6.991370220762075
0.03789242597067466 4.683824361084709 7.00140233099518
0.03843909159723066 4.7102668576453 7.011032263089768
0.038962926640775046 4.735605027203361 7.020260017045832
0.03946393110130782 4.759838869758892 7.029085592863375
0.03994210497882897 4.782968385311891 7.037508990542398
0.0403974482733385 4.804993573862361 7.045530210082898
0.04082996098483641 4.825914435410301 7.05314925148488
0.041239643113322705 4.845730969955708 7.06036611474834
0.04162649465879737 4.864443177498587 7.067180799873277
0.041990515621260424 4.882051058038934 7.073593306859696
0.04233170600071185 4.898554611576751 7.079603635707593
0.04265006579715166 4.913953838112038 7.085211786416969
0.042945595010579846 4.928248737644793 7.090417758987824
0.043218293640996414 4.941439310175019 7.095221553420157
0.04346816168840137 4.953525555702713 7.099623169713969
0.043695199152794705 4.964507474227878 7.103622607869261
0.043899406034176414 4.974385065750512 7.107219867886034
0.04408078233254651 4.983158330270616 7.110414949764284
0.04423932804790498 4.990827267788188 7.113207853504013
0.04437504318025182 4.9973918783032305 7.11559857910522

CELLS 200 700
4 0 101 102 1
4 1 102 103 2
4 2 103 104 3
4 3 104 105 4
4 4 105 106 5
4 5 106 107 6
4 6 107 108 7
4 7 108 109 8
4 8 109 110 9
4 9 110 111 10
4 10 111 112 11
4 11 112 113 12
4 12 113 114 13
4 13 114 115 14
4 14 115 116 15
4 15 116 117 16
4 16 117 118 17
4 17 118 119 18
4 18 119 120 19
4 19 120 121 20
4 20 121 122 21
4 21 122 123 22
4 22 123 124 23
4 23 124 125 24
4 24 125 126 25
4 25 126 127 26
4 26 127 128 27
4 27 128 129 28
4 28 129 130 29
4 29 130 131 30
4 30 131 132 31
4 31 132 133 32
4 32 133 134 33
4 33 134 135 34
4 34 135 136 35
4 35 136 137 36
4 36 137 138 37
4 37 138 139 38
4 38 139 140 39
4 39 140 141 40
4 40 141 142 41
4 41 142 143 42
4 42 143 144 43
4 43 144 145 44
4 44 145 146 45
4 45 146 147 46
4 46 147 148 47
4 47 148 149 48
4 48 149 150 49
4 49 150 151 50
4 50 151 152 51
4 51 152 153 52
4 52 153 154 53
4 53 154 155 54
4 54 155 156 55
4 55 156 157 56
4 56 157 158 57
4 57 158 159 58
4 58 159 160 59
4 59 160 161 60
4 60 161 162 61
4 61 162 163 62
4 62 163 164 63
4 63 164 165 64
4 64 165 166 65
4 65 166 167 66
4 66 167 168 67
4 67 168 169 68
4 68 169 170 69
4 69 170 171 70
4 70 171 172 71
4 71 172 173 72
4 72 173 174 73
4 73 174 175 74
4 74 175 176 75
4 75 176 177 76
4 76 177 178 77
4 77 178 179 78
4 78 179 180 79
4 79 180 181 80
4 80 181 182 81
4 81 182 183 82
4 82 183 184 83
4 83 184 185 84
4 84 185 186 85
4 85 186 187 86
4 86 187 188 87
4 87 188 189 88
4 88 189 190 89
4 89 190 191 90
4 90 191 192 91
4 91 192 193 92
4 92 193 194 93
4 93 194 195 94
4 94 195 196 95
4 95 196 197 96
4 96 197 198 97
4 97 198 199 98
4 98 199 200 99
4 99 200 201 100
1 202
1 203
1 204
1 205
1 206
1 207
1 208
1 209
1 210
1 211
1 212
1 213
1 214
1 215
1 216
1 217
1 218
1 219
1 220
1 221
1 222
1 223
1 224
1 225
1 226
1 227
1 228
1 229
1 230
1 231
1 232
1 233
1 234
1 235
1 236
1 237
1 238
1 239
1 240
1 241
1 242
1 243
1 244
1 245
1 246
1 247
1 248
1 249
1 250
1 251
1 252
1 253
1 254
1 255
1 256
1 257
1 258
1 259
1 260
1 261
1 262
1 263
1 264
1 265
1 266
1 267
1 268
1 269
1 270
1 271
1 272
1 273
1 274
1 275
1 276
1 277
1 278
1 279
1 280
1 281
1 282
1 283
1 284
1 285
1 286
1 287
1 288
1 289
1 290
1 291
1 292
1 293
1 294
1 295
1 296
1 297
1 298
1 299
1 300
1 301

CELL_TYPES 200
9
9
9
9
9
9
9
9
9
9
9
9
9
9
9
9
9
9
9
9
9
9
9
9
9
9
9
9
9
9
9
9
9
9
9
9
9
9
9
9
9
9
9
9
9
9
9
9
9
9
9
9
9
9
9
9
9
9
9
9
9
9
9
9
9
9
9
9
9
9
9
9
9
9
9
9
9
9
9
9
9
9
9
9
9
9
9
9
9
9
9
9
9
9
9
9
9
9
9
9
1
1
1
1
1
1
1
1
1
1
1
1
1
1
1
1
1
1
1
1
1
1
1
1
1
1
1
1
1
1
1
1
1
1
1
1
1
1
1
1
1
1
1
1
1
1
1
1
1
1
1
1
1
1
1
1
1
1
1
1
1
1
1
1
1
1
1
1
1
1
1
1
1
1
1
1
1
1
1
1
1
1
1
1
1
1
1
1
1
1
1
1
1
1
1
1
1
1
1
1

CELL_DATA 200

VECTORS Vinf float
5.221321810778211 32.6907508686084 -26.82112851717859
5.2071686179444825 32.73658414592302 -26.8064421717433
5.190850879250409 32.79009479963105 -26.789286185525086
5.17249196814013 32.85126451919747 -26.769660598986643
5.1522468194229845 32.9200706903584 -26.747565032615707
5.130305074232879 32.996486179240236 -26.72299840492119
5.106893108420285 33.08047935838079 -26.69595856414542
5.082274490252397 33.17201444275797 -26.666441832609422
5.056748473897949 33.27105218628664 -26.63444247235772
5.030646261217613 33.37755095997762 -26.599952092711586
5.0043249591873415 33.49146819258618 -26.56295903333923
4.978159414382882 33.61276210618253 -26.52344776865118
4.952518655200749 33.739660559207074 -26.48230429087896
4.927363499493874 33.874976619166105 -26.43830965685722
4.903130029885477 34.017430106587085 -26.391926493120927
4.880062205529812 34.166991285009836 -26.343147745546474
4.858361875266085 34.32363949502179 -26.291963270259647
4.838184567270106 34.487363310130775 -26.23836035261277
4.819638692010111 34.65816003160072 -26.18232439826442
4.802788069864619 34.83603460005674 -26.12383972389602
4.787657250972014 35.02099808003418 -26.062890361364836
4.774238765856346 35.213065921936504 -25.999460790332908
4.762501302946071 35.41225621320275 -25.933536530713564
4.750616361963735 35.61923738161594 -25.864720384929445
4.744373242843476 35.83189467677222 -25.794406186255124
4.738628413242907 36.052160317082105 -25.721210275655615
4.731335480982034 36.2806155476576 -25.644657257948026
4.727222324835722 36.51568749557321 -25.566097509479135
4.72449575118162 36.757977707695 -25.48498916277345
4.7231347323161526 37.00749419362349 -25.40132784454508
4.723135199221949 37.264241974304376 -25.315109854982076
4.723913071155488 37.52783112956447 -25.22690834293918
4.726919586343794 37.79916150639957 -25.13540088032707
4.731200619890413 38.07769560471374 -25.041381337343154
4.736929582936945 38.36342130060826 -24.94483416756714
4.744261315302257 38.65633010744675 -24.845742620316464
4.75332902455299 38.95641746639298 -24.744089173162706
4.764505028783839 39.26377069990699 -24.639786069088245
4.777728254068707 39.57833288902616 -24.532820218981303
4.7927555088781135 39.90007633809288 -24.42330047093084
4.809370959986656 40.22903962932432 -24.311216717790774
4.827151541737991 40.56528404509878 -24.196562474575586
4.845418099303395 40.908896895121586 -24.079336509614166
4.863824957649171 41.25987658824903 -23.959520114598565
4.880728479366267 41.61858355987273 -23.83702397885334
4.895195891135503 41.9850050608567 -23.71195466141601
4.906344654073302 42.359219163663944 -23.58434604692306
4.913793783992449 42.74124233118171 -23.45423726547852
4.917813400510387 43.131018187338704 -23.321664982444418
4.919255996957828 43.52843157494722 -23.18665410184671
4.920497055782816 43.797058374268396 -23.31909250920719
4.921931109930445 43.931940174451675 -23.71648106460034
4.9208645162839755 44.06457933767543 -24.106575715568326
4.916708636725093 44.194874830526665 -24.48956577083486
4.908627408932264 44.32298552183139 -24.865432806202666
4.897001422064359 44.44886149253466 -25.234194528764515
4.882817174688865 44.572413397067635 -25.595810417426012
4.866991375790455 44.69351906207688 -25.950371842072865
4.850908903494099 44.812076254324815 -26.29764238023561
4.835411054419296 44.928033404939185 -26.637588536483836
4.821085883541465 45.04134846103527 -26.970155195511705
4.808238317105761 45.152001843511364 -27.29530698970076
4.796963647211145 45.259990409324885 -27.613024977310154
4.786814072026567 45.36522923785308 -27.923504396391703
4.778605437511857 45.46798403714665 -28.226210714909705
4.771661580836067 45.56807457716621 -28.521532838153966
4.765874925832016 45.66551962405931 -28.809468568153118
4.761155274020395 45.76033624630714 -29.09001527645523
4.757431961742667 45.85253963673525 -29.363169406068494
4.752770490159936 45.941961350218406 -29.62955775492297
4.751151706922747 46.029206268075946 -29.88753876091303
4.750352650580858 46.11382600553693 -30.138163238808893
4.750374972895102 46.19582982642449 -30.381423660138893
4.751239753021285 46.275225564850786 -30.617310994711147
4.752983732629772 46.352019967405475 -30.84581490340162
4.759762601680908 46.42578669304507 -31.06683114237971
4.7646155509152415 46.49734821991887 -31.280432727995233
4.770899419373056 46.56632247926417 -31.4865599798719
4.778739769389221 46.632707011333444 -31.685200081210503
4.7882596028667175 46.69649990166259 -31.876339816898454
4.799568432106718 46.75770032919354 -32.05996642192591
4.812749538853075 46.816309152923 -32.2360686295854
4.827846625352505 46.87232947449247 -32.40463783172146
4.844851510500925 46.92576709880409 -32.565669219603194
4.86369466159163 46.97663081540695 -32.719162753528956
4.884240107220893 47.024932441825996 -32.86512381977551
4.906285690589892 47.07068660267093 -33.003563473792425
4.92956883217528 47.11391025766942 -33.13449822912095
4.9537771619036555 47.154622028625994 -33.25794941802729
4.979826124985343 47.19111994683623 -33.37529231958673
5.00465188895171 47.226953615060474 -33.483796625955094
5.029344612487292 47.260326299503035 -33.584901804703
5.053540614277375 47.29125554626511 -33.678637588201866
5.076901229618745 47.31975695841168 -33.76503258558442
5.099121645370109 47.34584389160237 -33.844113427076735
5.119936329313107 47.36952733161588 -33.91590415607761
5.139121227660574 47.39081593412385 -33.98042586996699
5.156493185971464 47.409716195377335 -34.037696585751256
5.171907212382486 47.42623271694561 -34.08773129049265
5.185252261206952 47.44036852722046 -34.130542128532234
5.221321810778211 32.6907508686084 -26.82112851717859
5.2071686179444825 32.73658414592302 -26.8064421717433
5.190850879250409 32.79009479963105 -26.789286185525086
5.17249196814013 32.85126451919747 -26.769660598986643
5.1522468194229845 32.9200706903584 -26.747565032615707
5.130305074232879 32.996486179240236 -26.72299840492119
5.106893108420285 33.08047935838079 -26.69595856414542
5.082274490252397 33.17201444275797 -26.666441832609422
5.056748473897949 33.27105218628664 -26.63444247235772
5.030646261217613 33.37755095997762 -26.599952092711586
5.0043249591873415 33.49146819258618 -26.56295903333923
4.978159414382882 33.61276210618253 -26.52344776865118
4.952518655200749 33.739660559207074 -26.48230429087896
4.927363499493874 33.874976619166105 -26.43830965685722
4.903130029885477 34.017430106587085 -26.391926493120927
4.880062205529812 34.166991285009836 -26.343147745546474
4.858361875266085 34.32363949502179 -26.291963270259647
4.838184567270106 34.487363310130775 -26.23836035261277
4.819638692010111 34.65816003160072 -26.18232439826442
4.802788069864619 34.83603460005674 -26.12383972389602
4.787657250972014 35.02099808003418 -26.062890361364836
4.774238765856346 35.213065921936504 -25.999460790332908
4.762501302946071 35.41225621320275 -25.933536530713564
4.750616361963735 35.61923738161594 -25.864720384929445
4.744373242843476 35.83189467677222 -25.794406186255124
4.738628413242907 36.052160317082105 -25.721210275655615
4.731335480982034 36.2806155476576 -25.644657257948026
4.727222324835722 36.51568749557321 -25.566097509479135
4.72449575118162 36.757977707695 -25.48498916277345
4.7231347323161526 37.00749419362349 -25.40132784454508
4.723135199221949 37.264241974304376 -25.315109854982076
4.723913071155488 37.52783112956447 -25.22690834293918
4.726919586343794 37.79916150639957 -25.13540088032707
4.731200619890413 38.07769560471374 -25.041381337343154
4.736929582936945 38.36342130060826 -24.94483416756714
4.744261315302257 38.65633010744675 -24.845742620316464
4.75332902455299 38.95641746639298 -24.744089173162706
4.764505028783839 39.26377069990699 -24.639786069088245
4.777728254068707 39.57833288902616 -24.532820218981303
4.7927555088781135 39.90007633809288 -24.42330047093084
4.809370959986656 40.22903962932432 -24.311216717790774
4.827151541737991 40.56528404509878 -24.196562474575586
4.845418099303395 40.908896895121586 -24.079336509614166
4.863824957649171 41.25987658824903 -23.959520114598565
4.880728479366267 41.61858355987273 -23.83702397885334
4.895195891135503 41.9850050608567 -23.71195466141601
4.906344654073302 42.359219163663944 -23.58434604692306
4.913793783992449 42.74124233118171 -23.45423726547852
4.917813400510387 43.131018187338704 -23.321664982444418
4.919255996957828 43.52843157494722 -23.18665410184671
4.920497055782816 43.797058374268396 -23.31909250920719
4.921931109930445 43.931940174451675 -23.71648106460034
4.9208645162839755 44.06457933767543 -24.106575715568326
4.916708636725093 44.194874830526665 -24.48956577083486
4.908627408932264 44.32298552183139 -24.865432806202666
4.897001422064359 44.44886149253466 -25.234194528764515
4.882817174688865 44.572413397067635 -25.595810417426012
4.866991375790455 44.69351906207688 -25.950371842072865
4.850908903494099 44.812076254324815 -26.29764238023561
4.835411054419296 44.928033404939185 -26.637588536483836
4.821085883541465 45.04134846103527 -26.970155195511705
4.808238317105761 45.152001843511364 -27.29530698970076
4.796963647211145 45.259990409324885 -27.613024977310154
4.786814072026567 45.36522923785308 -27.923504396391703
4.778605437511857 45.46798403714665 -28.226210714909705
4.771661580836067 45.56807457716621 -28.521532838153966
4.765874925832016 45.66551962405931 -28.809468568153118
4.761155274020395 45.76033624630714 -29.09001527645523
4.757431961742667 45.85253963673525 -29.363169406068494
4.752770490159936 45.941961350218406 -29.62955775492297
4.751151706922747 46.029206268075946 -29.88753876091303
4.750352650580858 46.11382600553693 -30.138163238808893
4.750374972895102 46.19582982642449 -30.381423660138893
4.751239753021285 46.275225564850786 -30.617310994711147
4.752983732629772 46.352019967405475 -30.84581490340162
4.759762601680908 46.42578669304507 -31.06683114237971
4.7646155509152415 46.49734821991887 -31.280432727995233
4.770899419373056 46.56632247926417 -31.4865599798719
4.778739769389221 46.632707011333444 -31.685200081210503
4.7882596028667175 46.69649990166259 -31.876339816898454
4.799568432106718 46.75770032919354 -32.05996642192591