# vtk DataFile Version 4.0
[MyVLM domain - lattices] 
ASCII
DATASET UNSTRUCTURED_GRID
POINTS 302 float
0.03418245623128652 6.309028437672715 0.12813560726174322
0.03405815639044548 6.312467502786384 0.13353161118867463
0.03391102596659282 6.316538232920932 0.13991871787769505
0.033741064959728534 6.321240628076357 0.14729692732880562
0.03354827336985263 6.326574688252661 0.1556662395420052
0.03333265119696511 6.332540413449843 0.16502665451729448
0.03309419844106597 6.339137803667903 0.17537817225467278
0.032832915102155205 6.3463668589068405 0.18672079275414055
0.03254880118023283 6.354227579166657 0.1990545160156978
0.03224185667529882 6.362719964447351 0.2123793420393447
0.0319120815873532 6.371844014748923 0.22669527082508092
0.03155947591639596 6.381599730071374 0.24200230237290654
0.0311840396624271 6.391987110414702 0.25830043668282143
0.030785772825446613 6.403006155778908 0.275589673754826
0.030364675405454518 6.414656866163993 0.29387001358891984
0.029920747402450796 6.426939241569956 0.31314145618510314
0.02945398881643546 6.439853281996797 0.3334040015433759
0.028964399647408493 6.4533989874445155 0.35465764966373836
0.028451979895369912 6.467576357913113 0.37690240054619006
0.027916729560319712 6.482385393402588 0.400138254190731
0.02735864864225789 6.49782609391294 0.4243652105973615
0.026777737141184445 6.513898459444172 0.4495832697660813
0.02617399505709939 6.530602489996281 0.47579243169689067
0.025547422390002704 6.547938185569269 0.5029926963897895
0.02489801913989441 6.565905546163133 0.5311840638447776
0.024225785306774487 6.584504571777877 0.5603665340618551
0.02353072089064295 6.603735262413498 0.5905401070410221
0.02281282589149979 6.623597618069998 0.6217047827822786
0.02207210030934501 6.644091638747376 0.6538605612856244
0.021308544144178605 6.665217324445631 0.6870074425510599
0.020522157396000586 6.686974675164767 0.7211454265785846
0.019712940064810947 6.7093636909047785 0.7562745133681988
0.018880892150609684 6.732384371665668 0.7923947029199024
0.018026013653396806 6.7560367174474365 0.8295059952336954
0.017148304573172308 6.780320728250083 0.8676083903095779
0.016247764909936187 6.805236404073606 0.90670188814755
0.015324394663688444 6.830783744918008 0.9467864887476111
0.01437819383442909 6.856962750783289 0.9878621921097619
0.013409162422158108 6.883773421669447 1.029928998234002
0.012417300426875512 6.9112157575764845 1.0729869071203315
0.011402607848581292 6.939289758504399 1.1170359187687506
0.010365084687275452 6.967995424453193 1.162076033179259
0.009304730942957994 6.997332755422862 1.2081072503518568
0.00822154661562891 7.027301751413411 1.2551295702865444
0.007115531705288211 7.0579024124248395 1.3031429929833211
0.005986686211935891 7.089134738457144 1.3521475184421874
0.00483501013557195 7.120998729510327 1.402143146663143
0.0036605034761963908 7.153494385584389 1.453129877646188
0.0024631662338092174 7.186621706679327 1.5051077113913223
0.0012429984084104185 7.220380692795144 1.5580766478985462
0.0 7.25477134393184 1.6120366871678595
0.0012429984084104176 7.308744356857746 1.5776664005927985
0.0024631662338092148 7.361726028729909 1.5439274049956468
0.003660503476196393 7.4137163595483315 1.5108197003764043
0.004835010135571951 7.464715349313014 1.4783432867350712
0.005986686211935888 7.514722998023954 1.4464981640716472
0.007115531705288204 7.563739305681153 1.4152843323861326
0.008221546615628903 7.611764272284613 1.3847017916785274
0.009304730942957981 7.65879789783433 1.3547505419488313
0.01036508468727544 7.704840182330305 1.3254305831970445
0.011402607848581277 7.749891125772541 1.296741915423167
0.012417300426875496 7.793950728161034 1.2686845386271988
0.013409162422158094 7.837018989495787 1.2412584528091402
0.014378193834429072 7.879095909776799 1.2144636579689905
0.01532439466368843 7.920181489004069 1.18830015410675
0.016247764909936166 7.960275727177598 1.162767941222419
0.017148304573172284 7.999378624297386 1.1378670193159972
0.018026013653396785 8.037490180363434 1.1135973883874848
0.018880892150609667 8.07461039537574 1.0899590484368815
0.01971294006481093 8.110739269334305 1.0669519994641876
0.02052215739600057 8.14587680223913 1.0445762414694029
0.021308544144178584 8.180022994090212 1.0228317744525277
0.02207210030934498 8.213177844887554 1.0017185984135617
0.022812825891499758 8.245341354631154 0.981236713352505
0.02353072089064292 8.276513523321013 0.9613861192693575
0.024225785306774456 8.306694350957132 0.9421668161641192
0.02489801913989438 8.335883837539509 0.9235788040367902
0.025547422390002683 8.364081983068145 0.9056220828873707
0.02617399505709936 8.39128878754304 0.8882966527158601
0.02677773714118442 8.417504250964194 0.8716025135222593
0.02735864864225786 8.442728373331606 0.8555396653065673
0.027916729560319677 8.46696115464528 0.840108108068785
0.028451979895369878 8.49020259490521 0.8253078418089118
0.02896439964740845 8.512452694111397 0.8111388665269478
0.029453988816435416 8.533711452263846 0.7976011822228932
0.02992074740245076 8.553978869362554 0.7846947888967477
0.030364675405454483 8.57325494540752 0.7724196865485116
0.030785772825446582 8.591539680398744 0.7607758751781849
0.031184039662427065 8.608833074336228 0.7497633547857673
0.03155947591639592 8.625135127219972 0.7393821253712591
0.03191208158735317 8.640445839049974 0.72963218693466
0.03224185667529878 8.654765209826234 0.7205135394759705
0.03254880118023279 8.668093239548753 0.71202618299519
0.032832915102155164 8.680429928217531 0.7041701174923191
0.033094198441065925 8.691775275832569 0.6969453429673573
0.03333265119696506 8.702129282393864 0.6903518594203049
0.03354827336985258 8.711491947901418 0.6843896668511618
0.03374106495972849 8.719863272355234 0.6790587652599274
0.03391102596659277 8.727243255755306 0.6743591546466028
0.03405815639044544 8.733631898101638 0.6702908350111876
0.034182456231286476 8.739029199394228 0.6668538063536814
0.04785543872380112 6.416731427513367 -0.3576811848823158
0.04773113888296008 6.420170492627037 -0.3522851809553844
0.04758400845910742 6.424241222761584 -0.34589807426636354
0.04741404745224313 6.428943617917009 -0.3385198648152532
0.04722125586236724 6.434277678093313 -0.33015055260205384
0.04700563368947971 6.440243403290495 -0.32079013762676456
0.04676718093358057 6.446840793508555 -0.31043861988938626
0.04650589759466981 6.454069848747493 -0.2990959993899185
0.04622178367274743 6.461930569007309 -0.28676227612836125
0.04591483916781343 6.470422954288003 -0.2734374501047143
0.0455850640798678 6.479547004589576 -0.25912152131897814
0.04523245840891057 6.489302719912026 -0.24381448977115253
0.04485702215494171 6.4996901002553535 -0.22751635546123763
0.04445875531796122 6.51070914561956 -0.210227118389233
0.04403765789796912 6.5223598560046465 -0.1919467785551392
0.0435937298949654 6.534642231410608 -0.1726753359589559
0.04312697130895005 6.547556271837448 -0.15241279060068313
0.04263738213992309 6.561101977285168 -0.13115914248032046
0.04212496238788451 6.575279347753765 -0.10891439159786896
0.041589712052834314 6.5900883832432395 -0.08567853795332803
0.04103163113477249 6.605529083753593 -0.06145158154669761
0.04045071963369905 6.6216014492848245 -0.03623352237797772
0.03984697754961399 6.638305479836934 -0.010024360447168368
0.03922040488251731 6.6556411754099205 0.017175904245730456
0.03857100163240901 6.673608536003787 0.045367271700718526
0.037898767799289086 6.692207561618529 0.07454974191779629
0.03720370338315755 6.711438252254152 0.1047233148969633
0.03648580838401439 6.731300607910651 0.13588799063821955
0.03574508280185961 6.751794628588028 0.1680437691415655
0.03498152663669322 6.772920314286284 0.20119065040700068
0.03419513988851519 6.794677665005418 0.23532863443452579
0.03338592255732555 6.81706668074543 0.2704577212241397
0.032553874643124286 6.8400873615063205 0.30657791077584373
0.03169899614591141 6.863739707288088 0.34368920308963635
0.03082128706568691 6.888023718090734 0.3817915981655189
0.02992074740245079 6.91293939391426 0.42088509600349094
0.028997377156203052 6.938486734758662 0.4609696966035521
0.028051176326943685 6.964665740623941 0.5020453999657031
0.027082144914672715 6.9914764115101 0.544112206089943
0.026090282919390115 7.018918747417136 0.5871701149762725
0.025075590341095896 7.04699274834505 0.6312191266246915
0.024038067179790058 7.075698414293844 0.6762592410352
0.0229777134354726 7.105035745263515 0.7222904582077978
0.02189452910814351 7.135004741254064 0.7693127781424854
0.020788514197802813 7.1656054022654905 0.8173262008392623
0.019659668704450493 7.196837728297795 0.8663307262981284
0.018507992628086556 7.228701719350979 0.9163263545190841
0.017333485968710996 7.2611973754250405 0.967313085502129
0.01613614872632382 7.294324696519981 1.0192909192472634
0.01491598090092502 7.328083682635797 1.0722598557544871
0.013672982492514602 7.362474333772494 1.1262198950238005
0.01491598090092502 7.416447346698397 1.0918496084487397
0.01613614872632382 7.469429018570563 1.0581106128515878
0.017333485968710993 7.521419349388984 1.0250029082323453
0.018507992628086552 7.572418339153665 0.9925264945910122
0.01965966870445049 7.622425987864608 0.9606813719275882
0.020788514197802806 7.671442295521806 0.9294675402420738
0.021894529108143507 7.7194672621252645 0.8988849995344684
0.022977713435472582 7.766500887674981 0.8689337498047721
0.02403806717979004 7.812543172170957 0.8396137910529855
0.025075590341095882 7.857594115613192 0.8109251232791079
0.0260902829193901 7.901653718001686 0.78286774648314
0.027082144914672698 7.944721979336439 0.7554416606650811
0.02805117632694367 7.98679889961745 0.7286468658249315
0.02899737715620303 8.027884478844722 0.702483361962691
0.029920747402450765 8.067978717018251 0.67695114907836
0.030821287065686886 8.107081614138039 0.6520502271719383
0.031698996145911394 8.145193170204086 0.6277805962434256
0.032553874643124266 8.182313385216393 0.6041422562928227
0.033385922557325524 8.218442259174958 0.5811352073201286
[...]
CELL_DATA 200

VECTORS Vinf float
4.901240538517493 -1.3353334571152666 -42.308788598206434
4.889014160486325 -1.2959370693452992 -42.33592069440126
4.874938754646844 -1.2499552038705894 -42.36759981540126
4.859131753851205 -1.1974087885767757 -42.40381552744973
4.841740142369939 -1.138322408443909 -42.44455444028672
4.822943361753027 -1.072724236805726 -42.48979988473824
4.802955214598479 -1.0006457745019128 -42.53953171346549
4.782024359632692 -0.9221213590965182 -42.59372627272257
4.7604330505624395 -0.8371874233154947 -42.65235658539345
4.738493891257223 -0.7458815069705818 -42.71539277065945
4.714656821290934 -0.6588651438943985 -42.779578142540835
4.693258600209978 -0.5550904739250636 -42.85109445423459
4.672371804236404 -0.44505939467422556 -42.926862614960235
4.652281550830557 -0.3287947427310222 -43.006846523785455
4.633249764714736 -0.206312477946857 -43.09101287456512
4.615506218846098 -0.07762089007761337 -43.17933227628601
4.599241583956432 0.05727971170956582 -43.27178014169388
4.586141559600742 0.20285912298824513 -43.3702799863781
4.572317749357949 0.350131726115699 -43.47076240140811
4.560019411866315 0.5038338461655409 -43.57540082075973
4.55521048002003 0.6666376074307631 -43.686631313432656
4.54706742516922 0.8313601800923568 -43.79919161937457
4.540210766787015 1.0027049176621483 -43.91592566629638
4.534835397610648 1.1807189979730242 -44.0368134679678
4.53110975095147 1.3654560148425092 -44.16183802318887
4.529175911585351 1.556975146779346 -44.290985264110915
4.529151661355063 1.7553401858248112 -44.4242437936241
4.533311688501136 1.9564050128688484 -44.559223610124185
4.536657800746156 2.1674473151929594 -44.701016201399916
4.541238866279667 2.388608954081173 -44.84796149937661
4.546530593673495 2.6124517833118532 -44.99762691277062
4.55276185839203 2.8436078092535424 -45.15147849307079
4.560013405398701 3.082165233312916 -45.30950517140224
4.571828268980704 3.320025566726024 -45.47285175321461
4.582564112911292 3.5700229725700092 -45.63982858608654
4.594660700158271 3.8265059263285077 -45.811003507557245
4.6082147677793355 4.089469806615284 -45.986368443665484
4.6232868498935185 4.360839070091424 -46.164772726584985
4.634556651932453 4.635844875424938 -46.352506513408265
4.6525976047789666 4.917567824182442 -46.53898789527806
4.672541472117096 5.205911706091795 -46.7297092278172
4.69403895998838 5.500934846679013 -46.924716423566345
4.716486740629612 5.802707720244201 -47.12407979688722
4.7390214480270645 6.111310479542171 -47.32789370635273
4.761486588112789 6.426249386602765 -47.534204264827444
4.782989689416969 6.748009589925371 -47.747595453032275
4.801496881465966 7.0767059371700105 -47.96593735880946
4.804099560910867 7.4145448777422205 -48.19736260495919
4.813126031414578 7.756519060873118 -48.42451648300021
4.819915046164852 8.105182913619998 -48.656366218060775
4.821699675324215 8.163405875648666 -48.949975050918134
4.818849906111328 7.929978308164498 -49.29981345031818
4.814057133133333 7.700830378549501 -49.64341844228564
4.8064081972831785 7.47591988114231 -49.98088863003644
4.798888055320286 7.255975740760585 -50.31114354422571
4.7873777484780184 7.039413277847012 -50.62958661994468
4.771230012762618 6.8278072641578476 -50.94803737641172
4.753796570888375 6.620279152762192 -51.26016962368854
4.736157960637944 6.416854923253476 -51.56586931244625
4.7191519222471525 6.217565154970462 -51.865046139418006
4.703318540027181 6.0224399055314635 -52.157640487360396
4.6889332259395955 5.831506184025631 -52.44362085371553
4.676078163645412 5.6447873437216645 -52.722976807542906
4.667030451606316 5.462559377974203 -52.999449157000186
4.658840505949147 5.284216900238931 -53.26559250850948
4.652236925743859 5.110239498418306 -53.525051042613406
4.6470563800185705 4.940631611338909 -53.77784634287184
4.643153453613532 4.775396945660847 -54.02399805176154
4.64040014494986 4.614538714018747 -54.26352378262501
4.638681497652942 4.458059705390971 -54.49643948460043
4.637710805460575 4.304822967194622 -54.71468524575196
4.637047364597158 4.156890449003467 -54.93451489108188
4.637085832659844 4.013344977682878 -55.14777452841742
4.637859424479206 3.8741856686733573 -55.354465611960464
4.638488728187818 3.74224015196898 -55.56206940674964
4.641870201530436 3.611867085822161 -55.75544979800694
4.646536754037067 3.4858471978621495 -55.94223583760681
4.652599042948764 3.3641880952956376 -56.12241950330611
4.660173355697812 3.2468981201487908 -56.29599228186774
4.6693736481734 3.133986169881456 -56.46294584644293
4.680301246690616 3.0254613868522884 -56.62327293598971
4.691889981528523 2.9183610527138 -56.777726147169794
4.7066826055515145 2.8188342466165324 -56.92483317024767
4.723298162099105 2.723603431627768 -57.06530409242663
4.7416163320219376 2.632685665533977 -57.19915128173787
4.761463924498677 2.5460952934732894 -57.32639150862674
4.782615548777361 2.4638436842654503 -57.44704588850603
4.804799199021026 2.385939157697334 -57.56113940209339
4.827706097469983 2.3123871076627758 -57.66870005022063
4.851003551874299 2.2431902984126912 -57.76975775047477
4.874349258416055 2.1783492902841353 -57.864343110869434
4.897405449230634 2.117862940046385 -57.95248621836192
4.924266941191742 2.0669723397839164 -58.032698995194174
4.946863323231618 2.015640816339687 -58.10792458953606
4.968348120609379 1.9686529505893786 -58.17678343953843
4.9884680047261165 1.9259967264165363 -58.23929787650203
5.007008874758279 1.8876609684370904 -58.29548676946337
5.023795459743067 1.8536355581268293 -58.34536556557407
5.038688823383574 1.823911563459673 -58.38894651256029
5.051582422400312 1.7984812965122048 -58.42623900670608
4.901240538517493 -1.3353334571152666 -42.308788598206434
4.889014160486325 -1.2959370693452992 -42.33592069440126
4.874938754646844 -1.2499552038705894 -42.36759981540126
4.859131753851205 -1.1974087885767757 -42.40381552744973
4.841740142369939 -1.138322408443909 -42.44455444028672
4.822943361753027 -1.072724236805726 -42.48979988473824
4.802955214598479 -1.0006457745019128 -42.53953171346549
4.782024359632692 -0.9221213590965182 -42.59372627272257
4.7604330505624395 -0.8371874233154947 -42.65235658539345
4.738493891257223 -0.7458815069705818 -42.71539277065945
4.714656821290934 -0.6588651438943985 -42.779578142540835
4.693258600209978 -0.5550904739250636 -42.85109445423459
4.672371804236404 -0.44505939467422556 -42.926862614960235
4.652281550830557 -0.3287947427310222 -43.006846523785455
4.633249764714736 -0.206312477946857 -43.09101287456512
4.615506218846098 -0.07762089007761337 -43.17933227628601
4.599241583956432 0.05727971170956582 -43.27178014169388
4.586141559600742 0.20285912298824513 -43.3702799863781
4.572317749357949 0.350131726115699 -43.47076240140811
4.560019411866315 0.5038338461655409 -43.57540082075973
4.55521048002003 0.6666376074307631 -43.686631313432656
4.54706742516922 0.8313601800923568 -43.79919161937457
4.540210766787015 1.0027049176621483 -43.91592566629638
4.534835397610648 1.1807189979730242 -44.0368134679678
4.53110975095147 1.3654560148425092 -44.16183802318887
4.529175911585351 1.556975146779346 -44.290985264110915
4.529151661355063 1.7553401858248112 -44.4242437936241
4.533311688501136 1.9564050128688484 -44.559223610124185
4.536657800746156 2.1674473151929594 -44.701016201399916
4.541238866279667 2.388608954081173 -44.84796149937661
4.546530593673495 2.6124517833118532 -44.99762691277062
4.55276185839203 2.8436078092535424 -45.15147849307079
4.560013405398701 3.082165233312916 -45.30950517140224
4.571828268980704 3.320025566726024 -45.47285175321461
4.582564112911292 3.5700229725700092 -45.63982858608654
4.594660700158271 3.8265059263285077 -45.811003507557245
4.6082147677793355 4.089469806615284 -45.986368443665484
4.6232868498935185 4.360839070091424 -46.164772726584985
4.634556651932453 4.635844875424938 -46.352506513408265
4.6525976047789666 4.917567824182442 -46.53898789527806
4.672541472117096 5.205911706091795 -46.7297092278172
4.69403895998838 5.500934846679013 -46.924716423566345
4.716486740629612 5.802707720244201 -47.12407979688722
4.7390214480270645 6.111310479542171 -47.32789370635273
4.761486588112789 6.426249386602765 -47.534204264827444
4.782989689416969 6.748009589925371 -47.747595453032275
4.801496881465966 7.0767059371700105 -47.96593735880946
4.804099560910867 7.4145448777422205 -48.19736260495919
4.813126031414578 7.756519060873118 -48.42451648300021
4.819915046164852 8.105182913619998 -48.656366218060775
4.821699675324215 8.163405875648666 -48.949975050918134
4.818849906111328 7.929978308164498 -49.29981345031818
4.814057133133333 7.700830378549501 -49.64341844228564
4.8064081972831785 7.47591988114231 -49.98088863003644
4.798888055320286 7.255975740760585 -50.31114354422571
4.7873777484780184 7.039413277847012 -50.62958661994468
4.771230012762618 6.8278072641578476 -50.94803737641172
4.753796570888375 6.620279152762192 -51.26016962368854
4.736157960637944 6.416854923253476 -51.56586931244625
4.7191519222471525 6.217565154970462 -51.865046139418006
4.703318540027181 6.0224399055314635 -52.157640487360396
4.6889332259395955 5.831506184025631 -52.44362085371553
4.676078163645412 5.6447873437216645 -52.722976807542906
4.667030451606316 5.462559377974203 -52.999449157000186
4.658840505949147 5.284216900238931 -53.26559250850948
4.652236925743859 5.110239498418306 -53.525051042613406
4.6470563800185705 4.940631611338909 -53.77784634287184
4.643153453613532 4.775396945660847 -54.02399805176154
4.64040014494986 4.614538714018747 -54.26352378262501
4.638681497652942 4.458059705390971 -54.49643948460043
4.637710805460575 4.304822967194622 -54.71468524575196
4.637047364597158 4.156890449003467 -54.93451489108188
4.637085832659844 4.013344977682878 -55.14777452841742
4.637859424479206 3.8741856686733573 -55.354465611960464
4.638488728187818 3.74224015196898 -55.56206940674964
4.641870201530436 3.611867085822161 -55.75544979800694
4.646536754037067 3.4858471978621495 -55.94223583760681
4.652599042948764 3.3641880952956376 -56.12241950330611
4.660173355697812 3.2468981201487908 -56.29599228186774
4.6693736481734 3.133986169881456 -56.46294584644293
4.680301246690616 3.0254613868522884 -56.62327293598971
4.691889981528523 2.9183610527138 -56.777726147169794
4.7066826055515145 2.8188342466165324 -56.92483317024767
4.723298162099105 2.723603431627768 -57.06530409242663
4.7416163320219376 2.632685665533977 -57.19915128173787
4.761463924498677 2.5460952934732894 -57.32639150862674
4.782615548777361 2.4638436842654503 -57.44704588850603
4.804799199021026 2.385939157697334 -57.56113940209339
4.827706097469983 2.3123871076627758 -57.66870005022063
4.851003551874299 2.2431902984126912 -57.76975775047477
4.874349258416055 2.1783492902841353 -57.864343110869434
4.897405449230634 2.117862940046385 -57.95248621836192
4.924266941191742 2.0669723397839164 -58.032698995194174
4.946863323231618 2.015640816339687 -58.10792458953606
4.968348120609379 1.9686529505893786 -58.17678343953843
4.9884680047261165 1.9259967264165363 -58.23929787650203
5.007008874758279 1.8876609684370904 -58.29548676946337
5.023795459743067 1.8536355581268293 -58.34536556557407
5.038688823383574 1.823911563459673 -58.38894651256029
5.051582422400312 1.7984812965122048 -58.42623900670608

VECTORS L float
0.05408160038107537 0.0 0.0
0.09777009659148891 0.0 0.0
0.14516752491131826 0.0 0.0
0.197872424476975 0.0 0.0
0.256346828866779 0.0 0.0
0.32074183806564366 0.0 0.0
0.3910972424091825 0.0 0.0
0.4673662542101685 0.0 0.0
0.5494523626551858 0.0 0.0
0.6372143243381747 0.0 0.0
0.7304698000814255 0.0 0.0
0.8290236668810984 0.0 0.0
0.932605791490438 0.0 0.0
1.0409306930524742 0.0 0.0
1.1536881709505622 0.0 0.0
1.2705512042907248 0.0 0.0
1.391198356427593 0.0 0.0
1.5153078502555044 0.0 0.0
1.642560265858615 0.0 0.0
1.7726738880607356 0.0 0.0
1.905460605992157 0.0 0.0
2.0405348626030184 0.0 0.0
2.177714753477116 0.0 0.0
2.3167589392059194 0.0 0.0
2.4575184272038006 0.0 0.0
2.599847524185743 0.0 0.0
2.7436226390452454 0.0 0.0
2.8887584187103164 0.0 0.0
3.0350049763978135 0.0 0.0
3.182265946494992 0.0 0.0
3.330407163977901 0.0 0.0
3.4792662627233617 0.0 0.0
3.6288340929883334 0.0 0.0
3.778602374152083 0.0 0.0
3.928374257367342 0.0 0.0
4.077878013631089 0.0 0.0
4.226713718379863 0.0 0.0
4.374351512228821 0.0 0.0
4.520014818601904 0.0 0.0
4.663432745228753 0.0 0.0
4.8035664662355595 0.0 0.0
4.939079476986886 0.0 0.0
5.068955570255255 0.0 0.0
5.190658663691937 0.0 0.0
5.302928903820184 0.0 0.0
5.404534990233235 0.0 0.0
5.49402261840422 0.0 0.0
5.5718111863906215 0.0 0.0
5.64439593308542 0.0 0.0
5.734441654019066 0.0 0.0
5.9884794449184415 0.0 0.0
6.016403734449582 0.0 0.0
6.0590040647373185 0.0 0.0
6.092655042773592 0.0 0.0
6.111719203534436 0.0 0.0
6.114208108690039 0.0 0.0
6.099479164919633 0.0 0.0
6.068934256619846 0.0 0.0
6.02396856635773 0.0 0.0
5.966027303163588 0.0 0.0
5.896342876718898 0.0 0.0
5.81622944647052 0.0 0.0
5.726330957445847 0.0 0.0
5.627636124370803 0.0 0.0
5.520086466585389 0.0 0.0
5.405367860186724 0.0 0.0
5.283291826785665 0.0 0.0
5.154233237808856 0.0 0.0
5.018512995914705 0.0 0.0
4.87641657556246 0.0 0.0
4.728248542816305 0.0 0.0
4.574217260759861 0.0 0.0
4.414656815827092 0.0 0.0
4.249887089901168 0.0 0.0
4.080268760093845 0.0 0.0
3.9066927781342926 0.0 0.0
3.7287996003779624 0.0 0.0
3.5473872387609986 0.0 0.0
3.3629564756856793 0.0 0.0
3.176120359281627 0.0 0.0
2.9874232525448132 0.0 0.0
2.797549840945709 0.0 0.0
2.607294976588238 0.0 0.0
2.4174025819293603 0.0 0.0
2.228772330808321 0.0 0.0
2.0422456116807415 0.0 0.0
1.8587406439864147 0.0 0.0
1.6791940250548787 0.0 0.0
1.5045196849977365 0.0 0.0
1.3356068584812248 0.0 0.0
1.173301010775243 0.0 0.0
1.0183885272811126 0.0 0.0
0.8716000134676817 0.0 0.0
0.7335146578103189 0.0 0.0
0.6046846799026925 0.0 0.0
0.48553390778084304 0.0 0.0
0.37632605015864146 0.0 0.0
0.277053335803077 0.0 0.0
0.18708102270812038 0.0 0.0
0.10351908497446394 0.0 0.0
0.05408160038107537 0.0 0.0
0.09777009659148891 0.0 0.0
0.14516752491131826 0.0 0.0
0.197872424476975 0.0 0.0
0.256346828866779 0.0 0.0
0.32074183806564366 0.0 0.0
0.3910972424091825 0.0 0.0
0.4673662542101685 0.0 0.0
0.5494523626551858 0.0 0.0
0.6372143243381747 0.0 0.0
0.7304698000814255 0.0 0.0
0.8290236668810984 0.0 0.0
0.932605791490438 0.0 0.0
1.0409306930524742 0.0 0.0
1.1536881709505622 0.0 0.0
1.2705512042907248 0.0 0.0
1.391198356427593 0.0 0.0
1.5153078502555044 0.0 0.0
1.642560265858615 0.0 0.0
1.7726738880607356 0.0 0.0
1.905460605992157 0.0 0.0
2.0405348626030184 0.0 0.0
2.177714753477116 0.0 0.0
2.3167589392059194 0.0 0.0
2.4575184272038006 0.0 0.0
2.599847524185743 0.0 0.0
2.7436226390452454 0.0 0.0
2.8887584187103164 0.0 0.0
3.0350049763978135 0.0 0.0
3.182265946494992 0.0 0.0
3.330407163977901 0.0 0.0
3.4792662627233617 0.0 0.0
3.6288340929883334 0.0 0.0
3.778602374152083 0.0 0.0
3.928374257367342 0.0 0.0
4.077878013631089 0.0 0.0
4.226713718379863 0.0 0.0
4.374351512228821 0.0 0.0
4.520014818601904 0.0 0.0
4.663432745228753 0.0 0.0
4.8035664662355595 0.0 0.0
4.939079476986886 0.0 0.0
5.068955570255255 0.0 0.0
5.190658663691937 0.0 0.0
5.302928903820184 0.0 0.0
5.404534990233235 0.0 0.0
5.49402261840422 0.0 0.0
5.5718111863906215 0.0 0.0
5.64439593308542 0.0 0.0
5.734441654019066 0.0 0.0
5.9884794449184415 0.0 0.0
6.016403734449582 0.0 0.0
6.0590040647373185 0.0 0.0
6.092655042773592 0.0 0.0
6.111719203534436 0.0 0.0
6.114208108690039 0.0 0.0
6.099479164919633 0.0 0.0
6.068934256619846 0.0 0.0
6.02396856635773 0.0 0.0
5.966027303163588 0.0 0.0
5.896342876718898 0.0 0.0
5.81622944647052 0.0 0.0
5.726330957445847 0.0 0.0
5.627636124370803 0.0 0.0
5.520086466585389 0.0 0.0
5.405367860186724 0.0 0.0
5.283291826785665 0.0 0.0
5.154233237808856 0.0 0.0
5.018512995914705 0.0 0.0
4.87641657556246 0.0 0.0
4.728248542816305 0.0 0.0
4.574217260759861 0.0 0.0
4.414656815827092 0.0 0.0
4.249887089901168 0.0 0.0
4.080268760093845 0.0 0.0
3.9066927781342926 0.0 0.0
3.7287996003779624 0.0 0.0
3.5473872387609986 0.0 0.0
3.3629564756856793 0.0 0.0
3.176120359281627 0.0 0.0
2.9874232525448132 0.0 0.0
2.797549840945709 0.0 0.0
2.607294976588238 0.0 0.0
2.4174025819293603 0.0 0.0
2.228772330808321 0.0 0.0
2.0422456116807415 0.0 0.0
1.8587406439864147 0.0 0.0
1.6791940250548787 0.0 0.0
1.5045196849977365 0.0 0.0
1.3356068584812248 0.0 0.0
1.173301010775243 0.0 0.0
1.0183885272811126 0.0 0.0
0.8716000134676817 0.0 0.0
0.7335146578103189 0.0 0.0
0.6046846799026925 0.0 0.0
0.48553390778084304 0.0 0.0
0.37632605015864146 0.0 0.0
0.277053335803077 0.0 0.0
0.18708102270812038 0.0 0.0
0.10351908497446394 0.0 0.0

SCALARS Gamma float
LOOKUP_TABLE default
0.39041926673097094
0.6001735429911
0.7719373742941806
0.9265703608045595
1.0710960025595995
1.2085918425193618
1.3406279176373856
1.4679657567803768
1.5909726795446728
1.7097780080022211
1.8243654735792554
1.9346845755494724
2.0405343475598268
2.141729436326166
2.238082622539957
2.329423767531411
2.415636624906261
2.4966394158778686
2.5723842395990912
2.6429032400268433
2.7083644330725622
2.768666220687792
2.823997357352428
2.8744628241937824
2.920274879524149
2.9616332591759926
2.9987470202196436
3.0318467072568467
3.060983531258924
3.0863615175622643
3.108135515920533
3.126428104868366
3.141384465743879
3.1531487854938
3.161585048976158
3.1667355063958373
3.1685548142586666
3.1669232323002703
3.161583173486701
3.152657000140137
3.1397708104684923
3.1224279470654532
3.1001875875157174
3.0725195826624945
3.0389432018494746
2.9993235321905
2.95353098617806
2.902077598986482
2.848364233746174
2.79888076205455
2.7939918839151465
2.8332868624110716
2.876479201999257
2.9171831806376383
2.9531559620334065
2.983338266048427
3.0075666538597456
3.0262406745144905
3.0398811104278796
3.0490363595721415
3.054154685854532
3.0557334913296326
3.053930997514424
3.049083960487085
3.041271507649258
3.030586874268182
3.0170517881590104
3.000655481181243
2.9813449446968865
2.959032023822477
2.9336231338569485
2.9049467590125664
2.872885875796415
2.8372934472145985
2.7980250648908394
2.7550278835912563
2.7081211548697426
2.6571353879307082
2.6019240557779217
2.542400060432024
2.478399124832915
2.4098417742213702
2.3367251361308092
2.2589917117613547
2.1767156393756206
2.089920881872522
1.9987115816276193
1.9032308771809898
1.8036251006372273
1.7000438318704214
1.5926174987179833
1.4814304771412221
1.366509967066994
1.247643040975161
1.124492631543287
0.996329049212704
0.861725448089833
0.7178003262575703
0.5580134967725292
0.36295331706760936
0.39041926673097094
0.6001735429911
0.7719373742941806
0.9265703608045595
1.0710960025595995
1.2085918425193618
1.3406279176373856
1.4679657567803768
1.5909726795446728
1.7097780080022211
1.8243654735792554
1.9346845755494724
2.0405343475598268
2.141729436326166
2.238082622539957
2.329423767531411
2.415636624906261
2.4966394158778686
2.5723842395990912
2.6429032400268433
2.7083644330725622
2.768666220687792
2.823997357352428
2.8744628241937824
2.920274879524149
2.9616332591759926
2.9987470202196436
3.0318467072568467
3.060983531258924
3.0863615175622643
3.108135515920533
3.126428104868366
3.141384465743879
3.1531487854938
3.161585048976158
3.1667355063958373
3.1685548142586666
3.1669232323002703
3.161583173486701
3.152657000140137
3.1397708104684923
3.1224279470654532
3.1001875875157174
3.0725195826624945
3.0389432018494746
2.9993235321905
2.95353098617806
2.902077598986482
2.848364233746174
2.79888076205455
2.7939918839151465
2.8332868624110716
2.876479201999257
2.9171831806376383
2.9531559620334065
2.983338266048427
3.0075666538597456
3.0262406745144905
3.0398811104278796
3.0490363595721415
3.054154685854532
3.0557334913296326
3.053930997514424
3.049083960487085
3.041271507649258
3.030586874268182
3.0170517881590104
3.000655481181243
2.9813449446968865
2.959032023822477
2.9336231338569485
2.9049467590125664
2.872885875796415
2.8372934472145985
2.7980250648908394
2.7550278835912563
2.7081211548697426
2.6571353879307082
2.6019240557779217
2.542400060432024
2.478399124832915
2.4098417742213702
2.3367251361308092
2.2589917117613547