# vtk DataFile Version 4.0
[MyVLM domain - lattices] 
ASCII
DATASET UNSTRUCTURED_GRID
POINTS 302 float
0.034182456231286344 2.175559948795854 -6.091284652229639
0.0340581563904453 2.181740356031826 -6.092941937248296
0.033911025966592644 2.1890559401070577 -6.094903621556093
0.033741064959728354 2.1975067010215503 -6.097169705153032
0.03354827336985246 2.2070926387753023 -6.099740188039112
0.033332651196964935 2.217813753368315 -6.102615070214332
0.03309419844106579 2.2296700448005877 -6.105794351678694
0.03283291510215504 2.2426615130721204 -6.109278032432197
0.032548801180232664 2.2567881581829132 -6.11306611247484
0.032241856675298664 2.272049980132966 -6.117158591806625
0.031912081587353036 2.2884469789222797 -6.121555470427551
0.031559475916395796 2.305979154550853 -6.126256748337617
0.031184039662426943 2.3246465070186857 -6.131262425536826
0.030785772825446464 2.3444490363257797 -6.1365725020251745
0.030364675405454362 2.365386742472133 -6.142186977802664
0.029920747402450643 2.3874596254577467 -6.148105852869295
0.02945398881643531 2.410667685282621 -6.154329127225067
0.028964399647408344 2.4350109219467555 -6.16085680086998
0.028451979895369767 2.4604893354501494 -6.167688873804034
0.02791672956031957 2.487102925792804 -6.174825346027228
0.02735864864225775 2.5148516929747187 -6.182266217539564
0.02677773714118431 2.5437356369958932 -6.1900114883410415
0.026173995057099258 2.573754757856328 -6.198061158431659
0.025547422390002576 2.604909055556023 -6.206415227811418
0.02489801913989428 2.637198530094978 -6.215073696480318
0.024225785306774363 2.670623181473193 -6.224036564438359
0.023530720890642832 2.7051830096906686 -6.233303831685541
0.02281282589149967 2.740878014747404 -6.242875498221864
0.022072100309344894 2.7777081966434 -6.252751564047328
0.0213085441441785 2.8156735553786554 -6.2629320291619335
0.02052215739600048 2.854774090953171 -6.273416893565679
0.019712940064810846 2.8950098033669476 -6.284206157258566
0.01888089215060959 2.936380692619984 -6.2952998202405945
0.018026013653396716 2.97888675871228 -6.306697882511763
0.017148304573172218 3.0225280016438365 -6.3184003440720735
0.016247764909936104 3.0673044214146534 -6.330407204921524
0.015324394663688365 3.11321601802473 -6.342718465060116
0.014378193834429015 3.160262791474067 -6.355334124487849
0.01340916242215804 3.208444741762664 -6.368254183204724
0.012417300426875449 3.2577618688905217 -6.381478641210739
0.011402607848581233 3.308214172857638 -6.395007498505895
0.0103650846872754 3.359801653664016 -6.408840755090193
0.009304730942957947 3.4125243113096535 -6.422978410963631
0.008221546615628869 3.4663821457945514 -6.43742046612621
0.007115531705288175 3.52137515711871 -6.45216692057793
0.005986686211935861 3.577503345282127 -6.467217774318791
0.004835010135571926 3.6347667102848056 -6.482573027348794
0.003660503476196372 3.6931652521267435 -6.498232679667937
0.0024631662338092048 3.752698970807942 -6.514196731276222
0.0012429984084104122 3.8133678663284005 -6.5304651821736455
0.0 3.8751719386881196 -6.547038032360213
0.001242998408410416 3.8586224117829566 -6.608848354174349
0.0024631662338092117 3.842376855780133 -6.669523384363327
0.0036605034761963886 3.8264352706796494 -6.729063122927147
0.004835010135571945 3.810797656481505 -6.78746756986581
0.00598668621193588 3.795464013185701 -6.844736725179315
0.007115531705288196 3.7804343407922363 -6.9008705888676625
0.008221546615628893 3.7657086393011117 -6.9558691609308525
0.00930473094295797 3.7512869087123266 -7.009732441368885
0.010365084687275426 3.7371691490258807 -7.06246043018176
0.011402607848581265 3.7233553602417757 -7.114053127369479
0.012417300426875482 3.7098455423600094 -7.164510532932037
0.013409162422158076 3.6966396953805836 -7.213832646869439
0.014378193834429051 3.6837378193034973 -7.262019469181684
0.01532439466368841 3.6711399141287497 -7.309070999868771
0.016247764909936145 3.658845979856344 -7.3549872389307
0.017148304573172266 3.646856016486276 -7.399768186367472
0.018026013653396764 3.6351700240185485 -7.443413842179085
0.018880892150609643 3.6237880024531615 -7.485924206365542
0.019712940064810905 3.6127099517901127 -7.527299278926842
0.02052215739600054 3.601935872029405 -7.567539059862982
0.021308544144178557 3.591465763171036 -7.606643549173966
0.022072100309344957 3.581299625215007 -7.644612746859792
0.02281282589149973 3.571437458161318 -7.68144665292046
0.02353072089064289 3.5618792620099686 -7.717145267355972
0.02422578530677443 3.5526250367609595 -7.7517085901663245
0.02489801913989435 3.543674782414289 -7.785136621351521
0.02554742239000265 3.535028498969959 -7.817429360911561
0.026173995057099327 3.526686186427968 -7.84858680884644
0.026777737141184386 3.518647844788318 -7.878608965156163
0.027358648642257826 3.5109134740510064 -7.907495829840728
0.027916729560319646 3.503483074216035 -7.935247402900137
0.028451979895369846 3.496356645283404 -7.961863684334386
0.028964399647408417 3.489534187253113 -7.987344674143479
0.02945398881643538 3.4830157001251605 -8.011690372327415
0.029920747402450727 3.476801183899548 -8.034900778886191
0.030364675405454445 3.4708906385762752 -8.056975893819812
0.03078577282544654 3.465284064155343 -8.077915717128274
0.031184039662427027 3.4599814606367496 -8.097720248811578
0.03155947591639588 3.4549828280204955 -8.116389488869725
0.031912081587353126 3.4502881663065823 -8.133923437302716
0.03224185667529875 3.445897475495008 -8.150322094110548
0.03254880118023275 3.441810755585774 -8.165585459293222
0.03283291510215512 3.43802800657888 -8.179713532850737
0.03309419844106589 3.434549228474325 -8.192706314783099
0.033332651196965025 3.43137442127211 -8.204563805090299
0.03354827336985255 3.4285035849722347 -8.215286003772343
0.03374106495972845 3.4259367195746995 -8.22487291082923
0.033911025966592734 3.4236738250795042 -8.233324526260958
0.0340581563904454 3.4217149014866477 -8.240640850067528
0.03418245623128644 3.420059948796131 -8.246821882248943
0.0478554387238009 1.7446151528390035 -6.3400907461812706
0.04773113888295986 1.7507955600749747 -6.341748031199927
0.0475840084591072 1.7581111441502075 -6.343709715507725
0.04741404745224292 1.7665619050646992 -6.3459757991046635
0.047221255862367015 1.7761478428184518 -6.348546281990743
0.04700563368947949 1.7868689574114647 -6.351421164165964
0.04676718093358036 1.7987252488437364 -6.354600445630325
0.046505897594669596 1.8117167171152695 -6.358084126383828
0.04622178367274722 1.8258433622260621 -6.361872206426471
0.04591483916781322 1.8411051841761155 -6.365964685758256
0.0455850640798676 1.8575021829654284 -6.370361564379182
0.04523245840891036 1.875034358594002 -6.37506284228925
0.0448570221549415 1.893701711061835 -6.380068519488457
0.04445875531796102 1.9135042403689289 -6.385378595976806
0.04403765789796892 1.9344419465152822 -6.390993071754296
0.043593729894965204 1.9565148295008963 -6.396911946820927
0.043126971308949866 1.9797228893257703 -6.403135221176698
0.0426373821399229 2.0040661259899046 -6.4096628948216114
0.042124962387884324 2.0295445394932985 -6.416494967755665
0.04158971205283413 2.056158129835953 -6.42363143997886
0.04103163113477232 2.0839068970178674 -6.431072311491196
0.040450719633698874 2.1127908410390424 -6.438817582292673
0.03984697754961382 2.142809961899477 -6.44686725238329
0.039220404882517136 2.173964259599172 -6.45522132176305
0.03857100163240884 2.206253734138127 -6.46387979043195
0.03789876779928892 2.2396783855163425 -6.4728426583899905
0.037203703383157385 2.2742382137338177 -6.482109925637173
0.03648580838401423 2.3099332187905532 -6.491681592173496
0.03574508280185946 2.346763400686549 -6.501557657998959
0.034981526636693065 2.3847287594218045 -6.511738123113566
0.03419513988851504 2.4238292949963207 -6.522222987517311
0.033385922557325406 2.4640650074100967 -6.533012251210198
0.03255387464312415 2.505435896663133 -6.544105914192225
0.031698996145911276 2.547941962755429 -6.555503976463394
0.030821287065686775 2.5915832056869856 -6.567206438023705
0.029920747402450664 2.6363596254578026 -6.579213298873156
0.02899737715620293 2.6822712220678793 -6.591524559011748
0.02805117632694357 2.729317995517216 -6.604140218439481
0.0270821449146726 2.777499945805813 -6.617060277156355
0.02609028291939001 2.8268170729336703 -6.630284735162371
0.025075590341095796 2.8772693769007875 -6.643813592457527
0.02403806717978996 2.928856857707165 -6.657646849041823
0.022977713435472506 2.9815795153528026 -6.671784504915262
0.021894529108143428 3.0354373498377005 -6.6862265600778406
0.020788514197802734 3.0904303611618587 -6.700973014529562
0.01965966870445042 3.1465585493252766 -6.7160238682704225
0.018507992628086486 3.2038219143279547 -6.731379121300424
0.017333485968710934 3.262220456169893 -6.747038773619568
0.016136148726323764 3.3217541748510913 -6.7630028252278525
0.014915980900924972 3.38242307037155 -6.779271276125278
0.013672982492514557 3.444227142731269 -6.795844126311843
0.014915980900924974 3.4276776158261058 -6.857654448125979
0.01613614872632377 3.411432059823282 -6.918329478314958
0.017333485968710947 3.3954904747227985 -6.977869216878778
0.018507992628086504 3.3798528605246547 -7.036273663817442
0.019659668704450437 3.36451921722885 -7.093542819130946
0.020788514197802754 3.3494895448353854 -7.149676682819295
0.021894529108143452 3.3347638433442603 -7.204675254882484
0.02297771343547253 3.3203421127554753 -7.2585385353205165
0.024038067179789985 3.3062243530690303 -7.311266524133391
0.025075590341095823 3.292410564284925 -7.362859221321109
0.02609028291939004 3.2789007464031585 -7.4133166268836685
0.02708214491467263 3.2656948994237327 -7.46263874082107
0.028051176326943608 3.2527930233466464 -7.510825563133316
0.028997377156202972 3.2401951181718993 -7.557877093820402
0.029920747402450706 3.2279011838994927 -7.603793332882332
0.030821287065686823 3.215911220529425 -7.648574280319102
0.03169899614591133 3.2042252280616976 -7.6922199361307175
0.0325538746431242 3.1928432064963097 -7.734730300317175
[...]
CELL_DATA 200

VECTORS Vinf float
5.172624319731933 -40.7259002794248 -11.407451532814038
5.158670167631526 -40.740068762347406 -11.453579273470622
5.142591566624155 -40.75660465419957 -11.507422797209788
5.124513177469347 -40.77549856582583 -11.568959706523774
5.104590208722576 -40.796738551059086 -11.638163462525963
5.083011173490839 -40.82030978641598 -11.71500342925693
5.059999546444736 -40.84619431866927 -11.799445158801596
5.035813889830761 -40.8743709165737 -11.891450969630531
5.010746076093617 -40.904815060869545 -11.990980851240273
4.985117356189837 -40.9374990998871 -12.09799369854173
4.959272210174833 -40.97239258600774 -12.212448840556087
4.933570161357155 -41.00946279109764 -12.334307783232372
4.906555728603578 -41.048753202763 -12.46419653662969
4.881536603018478 -41.090244038300845 -12.600401212236912
4.8574207493954376 -41.13386648813948 -12.74383633184336
4.8344491957765 -41.179597501911154 -12.894482123748109
4.81282133463737 -41.227416637307144 -13.052327896632042
4.792690781573996 -41.277306562535585 -13.217371872005012
4.7741646109605105 -41.32925332394451 -13.389620387954855
4.757305878916608 -41.3832463652667 -13.569086577814
4.742138904852999 -41.43927831796328 -13.75578869742893
4.725490490208171 -41.49805896900245 -13.950176182362295
4.711838676702302 -41.55797413361665 -14.153080520906096
4.699549748207017 -41.61967769342703 -14.362123961682855
4.692852373640971 -41.68395422740165 -14.576860771954358
4.686991296397337 -41.75024811106104 -14.79926697924433
4.682057712419168 -41.818535728540475 -15.02938481238655
4.678126247480785 -41.88879421612452 -15.267260063875051
4.675260276623075 -41.961001175280096 -15.512941012744584
4.67351838831774 -42.03513425549473 -15.766477396673611
4.672961078522366 -42.11117067780333 -16.027919563804108
4.6768533202633815 -42.190128189742204 -16.292392139892826
4.678831299727463 -42.27055390493997 -16.567688244418417
4.682382964708966 -42.35298888545711 -16.850391832530672
4.687630887866795 -42.437415811603 -17.140512784813488
4.694696523547721 -42.5238178772545 -17.438061801606437
4.703693551473498 -42.6121795287219 -17.743051182365907
4.715750652136256 -42.70255387457334 -18.053976188309328
4.728365472706386 -42.794975044528215 -18.37341501964477
4.742829532232361 -42.889377651148344 -18.70028576831164
4.758968948334585 -42.98577442938537 -19.034616731140627
4.776410015838681 -43.084192968839595 -19.37645239235212
4.794528466316302 -43.184679074929434 -19.72585555644318
4.812438904872066 -43.287297579623925 -20.082905343341746
4.829061766454948 -43.39212834890573 -20.447688087174182
4.843152325520419 -43.4992539936366 -20.82036793953372
4.853943017737092 -43.60878522643297 -21.200799079435082
4.861182511172759 -43.72074965746271 -21.588992626665522
4.865561762065445 -43.83497291694858 -21.985064232837267
4.867007845760753 -43.95165098177889 -22.388784373534488
4.8684661965959375 -44.213702647027155 -22.533597540789682
4.870322423540598 -44.61625460910082 -22.4168602029841
4.869945645641101 -45.01152987534346 -22.30239773371479
4.866227303337462 -45.3996611080298 -22.19019752926855
4.858707066212937 -45.780720240487774 -22.080224245590127
4.8476855562111645 -46.15469946297117 -21.972430863136605
4.834057084573427 -46.521523079024114 -21.86677084006827
4.818988214071722 -46.881078727486724 -21.76320674959664
4.803605253245775 -47.233250624254616 -21.661713883126655
4.786448082957067 -47.578124020559784 -21.562949391658663
4.773656109657655 -47.91527756096779 -21.46524742514074
4.762046376258857 -48.24485929483844 -21.369639253540893
4.751751208352715 -48.56684832080514 -21.276136689015424
4.742768677165419 -48.88123913559781 -21.18475315133168
4.734468476365562 -49.188109494980665 -21.095070850330032
4.72841422216962 -49.48712659318424 -21.008448796213294
4.723397071142516 -49.77861748820522 -20.923806735828734
4.719315990221742 -50.06258955239992 -20.841163483233714
4.716094613240696 -50.339047896175224 -20.760536646628022
4.7136805579108385 -50.607995256539425 -20.68194283179031
4.712042491458569 -50.86943218492598 -20.605397856540595
4.712467471446461 -51.12301966445375 -20.531491632901922
4.713079768041195 -51.3692657986192 -20.459331440603123
4.714715267562196 -51.607951319641494 -20.389306092057673
4.717446497582884 -51.83906932564368 -20.321419228197026
4.721364156714662 -52.062611073707735 -20.255674828632454
4.7265744324010495 -52.27856622335103 -20.192077348566542
4.733195020013065 -52.486923190602454 -20.13063183031538
4.741349206200695 -52.68766967625205 -20.071343978450773
4.751157576045691 -52.88079341616328 -20.014220183251563
4.762727327433464 -53.066283163281916 -19.959267476601603
4.776139764538153 -53.2441298557809 -19.906493408993395
4.79143715348401 -53.4143278668167 -19.85590584559605
4.808610576847682 -53.57687618572211 -19.80751269164553
4.827590565373599 -53.73177936311472 -19.76132156976613
4.848242045326967 -53.87904807073111 -19.717339481143412
4.870364559698547 -54.018699177808 -19.675572486441638
4.893697937954783 -54.1507553173752 -19.636025440129686
4.917830623912041 -54.27524181675565 -19.598330527663265
4.942797902276984 -54.39214165117029 -19.563308962305943
4.96795690179757 -54.501539766652186 -19.53051009440275
4.992937708336934 -54.60347065445914 -19.499932638470007
5.017382607432636 -54.69796801463425 -19.47157413655223
5.038804334084149 -54.785386780914834 -19.445765130248194
5.061107344779669 -54.865157913135086 -19.42172780380377
5.081983481956887 -54.93757740931526 -19.399908739743193
5.101213290653466 -55.00266707119519 -19.3803025617669
5.118617407945629 -55.06044501650177 -19.36290392522185
5.134053929572004 -55.1109258622882 -19.347707704946966
5.147414291865414 -55.154121053291355 -19.334709151742235
5.172624319731933 -40.7259002794248 -11.407451532814038
5.158670167631526 -40.740068762347406 -11.453579273470622
5.142591566624155 -40.75660465419957 -11.507422797209788
5.124513177469347 -40.77549856582583 -11.568959706523774
5.104590208722576 -40.796738551059086 -11.638163462525963
5.083011173490839 -40.82030978641598 -11.71500342925693
5.059999546444736 -40.84619431866927 -11.799445158801596
5.035813889830761 -40.8743709165737 -11.891450969630531
5.010746076093617 -40.904815060869545 -11.990980851240273
4.985117356189837 -40.9374990998871 -12.09799369854173
4.959272210174833 -40.97239258600774 -12.212448840556087
4.933570161357155 -41.00946279109764 -12.334307783232372
4.906555728603578 -41.048753202763 -12.46419653662969
4.881536603018478 -41.090244038300845 -12.600401212236912
4.8574207493954376 -41.13386648813948 -12.74383633184336
4.8344491957765 -41.179597501911154 -12.894482123748109
4.81282133463737 -41.227416637307144 -13.052327896632042
4.792690781573996 -41.277306562535585 -13.217371872005012
4.7741646109605105 -41.32925332394451 -13.389620387954855
4.757305878916608 -41.3832463652667 -13.569086577814
4.742138904852999 -41.43927831796328 -13.75578869742893
4.725490490208171 -41.49805896900245 -13.950176182362295
4.711838676702302 -41.55797413361665 -14.153080520906096
4.699549748207017 -41.61967769342703 -14.362123961682855
4.692852373640971 -41.68395422740165 -14.576860771954358
4.686991296397337 -41.75024811106104 -14.79926697924433
4.682057712419168 -41.818535728540475 -15.02938481238655
4.678126247480785 -41.88879421612452 -15.267260063875051
4.675260276623075 -41.961001175280096 -15.512941012744584
4.67351838831774 -42.03513425549473 -15.766477396673611
4.672961078522366 -42.11117067780333 -16.027919563804108
4.6768533202633815 -42.190128189742204 -16.292392139892826
4.678831299727463 -42.27055390493997 -16.567688244418417
4.682382964708966 -42.35298888545711 -16.850391832530672
4.687630887866795 -42.437415811603 -17.140512784813488
4.694696523547721 -42.5238178772545 -17.438061801606437
4.703693551473498 -42.6121795287219 -17.743051182365907
4.715750652136256 -42.70255387457334 -18.053976188309328
4.728365472706386 -42.794975044528215 -18.37341501964477
4.742829532232361 -42.889377651148344 -18.70028576831164
4.758968948334585 -42.98577442938537 -19.034616731140627
4.776410015838681 -43.084192968839595 -19.37645239235212
4.794528466316302 -43.184679074929434 -19.72585555644318
4.812438904872066 -43.287297579623925 -20.082905343341746
4.829061766454948 -43.39212834890573 -20.447688087174182
4.843152325520419 -43.4992539936366 -20.82036793953372
4.853943017737092 -43.60878522643297 -21.200799079435082
4.861182511172759 -43.72074965746271 -21.588992626665522
4.865561762065445 -43.83497291694858 -21.985064232837267
4.867007845760753 -43.95165098177889 -22.388784373534488
4.8684661965959375 -44.213702647027155 -22.533597540789682
4.870322423540598 -44.61625460910082 -22.4168602029841
4.869945645641101 -45.01152987534346 -22.30239773371479
4.866227303337462 -45.3996611080298 -22.19019752926855
4.858707066212937 -45.780720240487774 -22.080224245590127
4.8476855562111645 -46.15469946297117 -21.972430863136605
4.834057084573427 -46.521523079024114 -21.86677084006827
4.818988214071722 -46.881078727486724 -21.76320674959664
4.803605253245775 -47.233250624254616 -21.661713883126655
4.786448082957067 -47.578124020559784 -21.562949391658663
4.773656109657655 -47.91527756096779 -21.46524742514074
4.762046376258857 -48.24485929483844 -21.369639253540893
4.751751208352715 -48.56684832080514 -21.276136689015424
4.742768677165419 -48.88123913559781 -21.18475315133168
4.734468476365562 -49.188109494980665 -21.095070850330032
4.72841422216962 -49.48712659318424 -21.008448796213294
4.723397071142516 -49.77861748820522 -20.923806735828734
4.719315990221742 -50.06258955239992 -20.841163483233714
4.716094613240696 -50.339047896175224 -20.760536646628022
4.7136805579108385 -50.607995256539425 -20.68194283179031
4.712042491458569 -50.86943218492598 -20.605397856540595
4.712467471446461 -51.12301966445375 -20.531491632901922
4.713079768041195 -51.3692657986192 -20.459331440603123
4.714715267562196 -51.607951319641494 -20.389306092057673
4.717446497582884 -51.83906932564368 -20.321419228197026
4.721364156714662 -52.062611073707735 -20.255674828632454
4.7265744324010495 -52.27856622335103 -20.192077348566542
4.733195020013065 -52.486923190602454 -20.13063183031538
4.741349206200695 -52.68766967625205 -20.071343978450773
4.751157576045691 -52.88079341616328 -20.014220183251563
4.762727327433464 -53.066283163281916 -19.959267476601603
4.776139764538153 -53.2441298557809 -19.906493408993395
4.79143715348401 -53.4143278668167 -19.85590584559605
4.808610576847682 -53.57687618572211 -19.80751269164553
4.827590565373599 -53.73177936311472 -19.76132156976613
4.848242045326967 -53.87904807073111 -19.717339481143412
4.870364559698547 -54.018699177808 -19.675572486441638
4.893697937954783 -54.1507553173752 -19.636025440129686
4.917830623912041 -54.27524181675565 -19.598330527663265
4.942797902276984 -54.39214165117029 -19.563308962305943
4.96795690179757 -54.501539766652186 -19.53051009440275
4.992937708336934 -54.60347065445914 -19.499932638470007
5.017382607432636 -54.69796801463425 -19.47157413655223
5.038804334084149 -54.785386780914834 -19.445765130248194
5.061107344779669 -54.865157913135086 -19.42172780380377
5.081983481956887 -54.93757740931526 -19.399908739743193
5.101213290653466 -55.00266707119519 -19.3803025617669
5.118617407945629 -55.06044501650177 -19.36290392522185
5.134053929572004 -55.1109258622882 -19.347707704946966
5.147414291865414 -55.154121053291355 -19.334709151742235

VECTORS L float
0.0577168087359363 0.0 0.0
0.10436017621351505 0.0 0.0
0.15495162159216155 0.0 0.0
0.2111933337760944 0.0 0.0
0.27357010740722154 0.0 0.0
0.342237670215471 0.0 0.0
0.4172144944206128 0.0 0.0
0.4984398008606376 0.0 0.0
0.5857915845569437 0.0 0.0
0.6791131563757145 0.0 0.0
0.7781912964816186 0.0 0.0
0.8827772320454327 0.0 0.0
0.9925552993371373 0.0 0.0
1.1072161951886599 0.0 0.0
1.2264012668016127 0.0 0.0
1.3497386561732632 0.0 0.0
1.4768507907399584 0.0 0.0
1.607364509327356 0.0 0.0
1.7409188874276549 0.0 0.0
1.8771701208193483 0.0 0.0
2.015791127913789 0.0 0.0
2.156450516167346 0.0 0.0
2.298951607764678 0.0 0.0
2.443074035535615 0.0 0.0
2.5886740013413596 0.0 0.0
2.7354802847608783 0.0 0.0
2.8832996515150766 0.0 0.0
3.031962006941052 0.0 0.0
3.181316034268877 0.0 0.0
3.3312211450982026 0.0 0.0
3.481545190501471 0.0 0.0
3.632171869055389 0.0 0.0
3.7828003928750964 0.0 0.0
3.9332896585686457 0.0 0.0
4.083418267679035 0.0 0.0
4.232901374094176 0.0 0.0
4.3813737297949364 0.0 0.0
4.528396819614928 0.0 0.0
4.673210130307037 0.0 0.0
4.815092291878289 0.0 0.0
4.9530845926828375 0.0 0.0
5.086000228911571 0.0 0.0
5.212435682941194 0.0 0.0
5.3308145174859725 0.0 0.0
5.439434419297175 0.0 0.0
5.536886250472055 0.0 0.0
5.622508377964908 0.0 0.0
5.697439754254658 0.0 0.0
5.767216543095299 0.0 0.0
5.855917756011778 0.0 0.0
6.105867855499611 0.0 0.0
6.13452231570353 0.0 0.0
6.179365427075439 0.0 0.0
6.215703620824046 0.0 0.0
6.237251543550633 0.0 0.0
6.241963663174282 0.0 0.0
6.229783607314923 0.0 0.0
6.201554434192621 0.0 0.0
6.158551154552003 0.0 0.0
6.102002924658079 0.0 0.0
6.03350452381207 0.0 0.0
5.953974764767512 0.0 0.0
5.864292818238451 0.0 0.0
5.765222581194027 0.0 0.0
5.6573851031875995 0.0 0.0
5.541399903408076 0.0 0.0
5.417676973661281 0.0 0.0
5.2865978087409875 0.0 0.0
5.148523417696295 0.0 0.0
5.003751136110572 0.0 0.0
4.8526274469524 0.0 0.0
4.695502814312394 0.0 0.0
4.532620529713997 0.0 0.0
4.364332404011558 0.0 0.0
4.19102386666891 0.0 0.0
4.013082382775815 0.0 0.0
3.8309393445048125 0.0 0.0
3.645074513990799 0.0 0.0
3.456009607481461 0.0 0.0
3.264361300081289 0.0 0.0
3.070759004718863 0.0 0.0
2.8759053730876434 0.0 0.0
2.6805608298504398 0.0 0.0
2.485548943071822 0.0 0.0
2.2917464603888487 0.0 0.0
2.1000724638392247 0.0 0.0
1.9114759780226729 0.0 0.0
1.726921704298336 0.0 0.0
1.547350344580996 0.0 0.0
1.3736857470258457 0.0 0.0
1.2067910225020428 0.0 0.0
1.0474747814420247 0.0 0.0
0.8964711191528101 0.0 0.0
0.7544243954184718 0.0 0.0
0.6219112215839631 0.0 0.0
0.49935678555315377 0.0 0.0
0.38702991911958096 0.0 0.0
0.2849225064905546 0.0 0.0
0.1923842635126426 0.0 0.0
0.1064420991463602 0.0 0.0
0.0577168087359363 0.0 0.0
0.10436017621351505 0.0 0.0
0.15495162159216155 0.0 0.0
0.2111933337760944 0.0 0.0
0.27357010740722154 0.0 0.0
0.342237670215471 0.0 0.0
0.4172144944206128 0.0 0.0
0.4984398008606376 0.0 0.0
0.5857915845569437 0.0 0.0
0.6791131563757145 0.0 0.0
0.7781912964816186 0.0 0.0
0.8827772320454327 0.0 0.0
0.9925552993371373 0.0 0.0
1.1072161951886599 0.0 0.0
1.2264012668016127 0.0 0.0
1.3497386561732632 0.0 0.0
1.4768507907399584 0.0 0.0
1.607364509327356 0.0 0.0
1.7409188874276549 0.0 0.0
1.8771701208193483 0.0 0.0
2.015791127913789 0.0 0.0
2.156450516167346 0.0 0.0
2.298951607764678 0.0 0.0
2.443074035535615 0.0 0.0
2.5886740013413596 0.0 0.0
2.7354802847608783 0.0 0.0
2.8832996515150766 0.0 0.0
3.031962006941052 0.0 0.0
3.181316034268877 0.0 0.0
3.3312211450982026 0.0 0.0
3.481545190501471 0.0 0.0
3.632171869055389 0.0 0.0
3.7828003928750964 0.0 0.0
3.9332896585686457 0.0 0.0
4.083418267679035 0.0 0.0
4.232901374094176 0.0 0.0
4.3813737297949364 0.0 0.0
4.528396819614928 0.0 0.0
4.673210130307037 0.0 0.0
4.815092291878289 0.0 0.0
4.9530845926828375 0.0 0.0
5.086000228911571 0.0 0.0
5.212435682941194 0.0 0.0
5.3308145174859725 0.0 0.0
5.439434419297175 0.0 0.0
5.536886250472055 0.0 0.0
5.622508377964908 0.0 0.0
5.697439754254658 0.0 0.0
5.767216543095299 0.0 0.0
5.855917756011778 0.0 0.0
6.105867855499611 0.0 0.0
6.13452231570353 0.0 0.0
6.179365427075439 0.0 0.0
6.215703620824046 0.0 0.0
6.237251543550633 0.0 0.0
6.241963663174282 0.0 0.0
6.229783607314923 0.0 0.0
6.201554434192621 0.0 0.0
6.158551154552003 0.0 0.0
6.102002924658079 0.0 0.0
6.03350452381207 0.0 0.0
5.953974764767512 0.0 0.0
5.864292818238451 0.0 0.0
5.765222581194027 0.0 0.0
5.6573851031875995 0.0 0.0
5.541399903408076 0.0 0.0
5.417676973661281 0.0 0.0
5.2865978087409875 0.0 0.0
5.148523417696295 0.0 0.0
5.003751136110572 0.0 0.0
4.8526274469524 0.0 0.0
4.695502814312394 0.0 0.0
4.532620529713997 0.0 0.0
4.364332404011558 0.0 0.0
4.19102386666891 0.0 0.0
4.013082382775815 0.0 0.0
3.8309393445048125 0.0 0.0
3.645074513990799 0.0 0.0
3.456009607481461 0.0 0.0
3.264361300081289 0.0 0.0
3.070759004718863 0.0 0.0
2.8759053730876434 0.0 0.0
2.6805608298504398 0.0 0.0
2.485548943071822 0.0 0.0
2.2917464603888487 0.0 0.0
2.1000724638392247 0.0 0.0
1.9114759780226729 0.0 0.0
1.726921704298336 0.0 0.0
1.547350344580996 0.0 0.0
1.3736857470258457 0.0 0.0
1.2067910225020428 0.0 0.0
1.0474747814420247 0.0 0.0
0.8964711191528101 0.0 0.0
0.7544243954184718 0.0 0.0
0.6219112215839631 0.0 0.0
0.49935678555315377 0.0 0.0
0.38702991911958096 0.0 0.0
0.2849225064905546 0.0 0.0
0.1923842635126426 0.0 0.0
0.1064420991463602 0.0 0.0

SCALARS Gamma float
LOOKUP_TABLE default
0.41741498675702454
0.6415741997631821
0.8250302533339849
0.9900982999105841
1.144274267948658
1.290849635761176
1.4314432423361119
1.5668700090101213
1.6975018840916305
1.8234966553577359
1.9448208813140235
2.061360796150143
2.172886973544501
2.279236205801902
2.380194220058461
2.475577701051111
2.5652433858121864
2.6490981283989483
2.727102001610008
2.799265575727717
2.8656399217687287
2.9262840564598402
2.981436555606378
3.031289096910296
3.076108370379159
3.1159979594233227
3.1511476072920863
3.1817609400161646
3.208047929591534
3.2302154353304506
3.248464868938166
3.262997350607937
3.2738464343866984
3.2811858312836115
3.2851165315318163
3.285691096064322
3.282909165334098
3.2767302312257396
3.2669120860835856
3.2532831834368627
3.2355560671434684
3.213353730863418
3.186233767042348
3.1537274614284208
3.115373810508469
3.070946797052089
3.0206484132001346
2.9655287147126748
2.9083454519996446
2.8560654982661244
2.850356462147274
2.890684414730449
2.9354653361315703
2.9780094027769164
3.01578923223972
3.047841472066138
3.0740356794389503
3.0946349372213304
3.110100692271214
3.120870860835906
3.1275728910598013
3.130500929239543
3.129927713803308
3.126066397025749
3.1190527584657763
3.1090184164239067
3.0959750319123818
3.0799074566173408
3.0607769610378432
3.0384934836907327
3.012979169567836
2.984141947677847
2.951802485958525
2.9158245525714794
2.8760707776385317
2.8323801922843073
2.7845944820797794
2.732561760712487
2.6761327674275477
2.6152031054266995
2.5496546451286544
2.4794041715835595
2.404397565000489
2.32462155160197
2.240104254183582
2.150915237971388
2.0571642294933117
1.958997574127089
1.8565637193128384
1.7500245073500251
1.6395031219612386
1.5250808811614607
1.4067520462087972
1.2843628020974607
1.157583242819749
1.0256465513807465
0.8870794016545581
0.7389145324752542
0.5744255222358731
0.3736273836991509
0.41741498675702454
0.6415741997631821
0.8250302533339849
0.9900982999105841
1.144274267948658
1.290849635761176
1.4314432423361119
1.5668700090101213
1.6975018840916305
1.8234966553577359
1.9448208813140235
2.061360796150143
2.172886973544501
2.279236205801902
2.380194220058461
2.475577701051111
2.5652433858121864
2.6490981283989483
2.727102001610008
2.799265575727717
2.8656399217687287
2.9262840564598402
2.981436555606378
3.031289096910296
3.076108370379159
3.1159979594233227
3.1511476072920863
3.1817609400161646
3.208047929591534
3.2302154353304506
3.248464868938166
3.262997350607937
3.2738464343866984
3.2811858312836115
3.2851165315318163
3.285691096064322
3.282909165334098
3.2767302312257396
3.2669120860835856
3.2532831834368627
3.2355560671434684
3.213353730863418
3.186233767042348
3.1537274614284208
3.115373810508469
3.070946797052089
3.0206484132001346
2.9655287147126748
2.9083454519996446
2.8560654982661244
2.850356462147274
2.890684414730449
2.9354653361315703
2.9780094027769164
3.01578923223972
3.047841472066138
3.0740356794389503
3.0946349372213304
3.110100692271214
3.120870860835906
3.1275728910598013
3.130500929239543
3.129927713803308
3.126066397025749
3.1190527584657763
3.1090184164239067
3.0959750319123818
3.0799074566173408
3.0607769610378432
3.0384934836907327
3.012979169567836
2.984141947677847
2.951802485958525
2.9158245525714794
2.8760707776385317