# vtk DataFile Version 4.0
[MyVLM domain - lattices] 
ASCII
DATASET UNSTRUCTURED_GRID
POINTS 302 float
0.03418245623128642 -3.4047854209887816 5.154328100778166
0.034058156390445384 -3.4111780300252597 5.154608416568405
0.03391102596659272 -3.418744791741907 5.154940218932362
0.03374106495972844 -3.427485706138724 5.155323507870037
0.03354827336985254 -3.43740077321571 5.155758283381428
0.03333265119696501 -3.4484899929728656 5.156244545466538
0.03309419844106588 -3.460753365410191 5.156782294125365
0.032832915102155115 -3.474190890527686 5.157371529357909
0.03254880118023274 -3.4888025683253496 5.158012251164171
0.03224185667529873 -3.5045883988031825 5.15870445954415
0.03191208158735311 -3.5215483819611855 5.159448154497847
0.031559475916395865 -3.539682517799358 5.16024333602526
0.031184039662427016 -3.5589908063176985 5.161090004126392
0.030785772825446537 -3.579473247516209 5.1619881588012415
0.030364675405454435 -3.6011298413948905 5.162937800049807
0.029920747402450716 -3.62396058795374 5.163938927872092
0.029453988816435375 -3.647965487192759 5.164991542268093
0.028964399647408406 -3.6731445391119477 5.166095643237812
0.028451979895369833 -3.6994977437113064 5.167251230781249
0.027916729560319632 -3.727025100990833 5.168458304898402
0.027358648642257816 -3.7557266109505303 5.169716865589273
0.02677773714118437 -3.785602273590396 5.171026912853862
0.026173995057099313 -3.8166520889104323 5.172388446692168
0.025547422390002638 -3.8488760569106377 5.173801467104192
0.02489801913989434 -3.8822741775910115 5.175265974089934
0.024225785306774425 -3.9168464509515557 5.176781967649392
0.023530720890642884 -3.9525928769922696 5.178349447782568
0.022812825891499727 -3.989513455713152 5.179968414489461
0.02207210030934495 -4.027608187114204 5.181638867770072
0.021308544144178546 -4.066877071195426 5.183360807624401
0.02052215739600053 -4.107320107956817 5.1851342340524464
0.01971294006481089 -4.148937297398378 5.1869591470542105
0.018880892150609636 -4.191728639520107 5.188835546629691
0.018026013653396757 -4.2356941343220065 5.190763432778889
0.01714830457317226 -4.280833781804076 5.192742805501805
0.01624776490993614 -4.327147581966313 5.194773664798438
0.015324394663688401 -4.374635534808721 5.196856010668789
0.01437819383442905 -4.423297640331299 5.198989843112857
0.013409162422158071 -4.473133898534045 5.201175162130642
0.012417300426875479 -4.524144309416961 5.203411967722145
0.011402607848581263 -4.576328872980046 5.205700259887366
0.010365084687275424 -4.6296875892233 5.2080400386263035
0.009304730942957968 -4.684220458146725 5.210431303938959
0.008221546615628888 -4.739927479750318 5.212874055825332
0.007115531705288193 -4.7968086540340815 5.2153682942854225
0.005986686211935874 -4.854863980998013 5.21791401931923
0.004835010135571937 -4.914093460642115 5.220511230926755
0.0036605034761963812 -4.974497092966386 5.223159929107998
0.002463166233809211 -5.036074877970827 5.225860113862958
0.001242998408410415 -5.098826815655437 5.228611785191636
0.0 -5.162752906020216 5.231414943094031
0.0012429984084104094 -5.159973871173829 5.295342086694182
0.0024631662338091987 -5.157245879824621 5.358095058269024
0.003660503476196368 -5.154568931972591 5.419673857818557
0.004835010135571919 -5.151943027617739 5.480078485342781
0.005986686211935849 -5.149368166760067 5.539308940841695
0.007115531705288158 -5.146844349399572 5.597365224315302
0.008221546615628848 -5.1443715755362565 5.654247335763599
0.009304730942957919 -5.141949845170119 5.709955275186587
0.01036508468727537 -5.139579158301161 5.764489042584267
0.011402607848581202 -5.13725951492938 5.817848637956637
0.012417300426875414 -5.134990915054779 5.870034061303699
0.013409162422158004 -5.132773358677356 5.921045312625452
0.014378193834428976 -5.130606845797112 5.970882391921896
0.015324394663688328 -5.128491376414045 6.019545299193031
0.01624776490993606 -5.126426950528158 6.067034034438858
0.017148304573172173 -5.124413568139449 6.113348597659375
0.018026013653396667 -5.122451229247918 6.158488988854583
0.018880892150609542 -5.120539933853567 6.202455208024483
0.019712940064810797 -5.118679681956394 6.245247255169073
0.02052215739600043 -5.116870473556399 6.286865130288355
0.021308544144178442 -5.115112308653583 6.327308833382328
0.02207210030934484 -5.1134051872479445 6.366578364450993
0.022812825891499605 -5.111749109339486 6.404673723494347
0.023530720890642762 -5.110144074928205 6.441594910512393
0.024225785306774297 -5.108590084014103 6.47734192550513
0.024898019139894215 -5.107087136597179 6.5119147684725585
0.025547422390002506 -5.105635232677434 6.545313439414679
0.026173995057099185 -5.104234372254868 6.577537938331489
0.026777737141184248 -5.10288455532948 6.608588265222991
0.02735864864225768 -5.10158578190127 6.638464420089183
0.027916729560319493 -5.1003380519702395 6.667166402930067
0.028451979895369687 -5.099141365536386 6.694694213745643
0.028964399647408268 -5.097995722599713 6.721047852535909
0.029453988816435222 -5.096901123160218 6.746227319300865
0.029920747402450563 -5.095857567217901 6.7702326140405145
0.030364675405454282 -5.094865054772763 6.7930637367548545
0.030785772825446374 -5.093923585824803 6.814720687443884
0.031184039662426857 -5.093033160374022 6.835203466107607
0.03155947591639571 -5.09219377842042 6.854512072746019
0.03191208158735295 -5.091405439963995 6.872646507359123
0.032241856675298566 -5.0906681450047495 6.8896067699469175
0.032548801180232574 -5.089981893542682 6.905392860509403
0.03283291510215495 -5.0893466855777945 6.920004779046581
0.03309419844106571 -5.088762521110084 6.93344252555845
0.033332651196964845 -5.088229400139553 6.94570610004501
0.03354827336985237 -5.0877473226662 6.956795502506261
0.03374106495972827 -5.087316288690026 6.966710732942202
0.033911025966592546 -5.08693629821103 6.975451791352834
0.03405815639044522 -5.086607351229213 6.9830186777381575
0.034182456231286254 -5.086329447744574 6.989411392098175
0.04785543872380096 -3.0379072323273664 5.490510022115821
0.04773113888295992 -3.044299841363844 5.490790337906061
0.04758400845910726 -3.0518666030804917 5.491122140270018
0.04741404745224297 -3.0606075174773086 5.491505429207692
0.04722125586236708 -3.0705225845542947 5.491940204719084
0.047005633689479555 -3.0816118043114504 5.4924264668041936
0.04676718093358041 -3.0938751767487753 5.49296421546302
0.04650589759466965 -3.10731270186627 5.493553450695564
0.04622178367274728 -3.1219243796639335 5.494194172501826
0.045914839167813276 -3.137710210141767 5.494886380881805
0.045585064079867656 -3.15467019329977 5.495630075835502
0.045232458408910416 -3.172804329137942 5.496425257362916
0.04485702215494155 -3.1921126176562833 5.497271925464048
0.04445875531796107 -3.2125950588547942 5.498170080138896
0.04403765789796897 -3.234251652733475 5.499119721387463
0.04359372989496525 -3.2570823992923246 5.500120849209747
0.043126971308949914 -3.281087298531343 5.501173463605749
0.04263738213992294 -3.3062663504505325 5.502277564575468
0.04212496238788437 -3.332619555049891 5.5034331521189035
0.041589712052834175 -3.3601469123294176 5.504640226236058
0.04103163113477236 -3.388848422289115 5.505898786926929
0.040450719633698916 -3.418724084928981 5.507208834191518
0.03984697754961385 -3.449773900249017 5.508570368029824
0.03922040488251717 -3.4819978682492225 5.509983388441848
0.038571001632408876 -3.5153959889295963 5.5114478954275885
0.03789876779928896 -3.5499682622901405 5.512963888987048
0.03720370338315743 -3.585714688330854 5.514531369120223
0.03648580838401426 -3.622635267051737 5.516150335827117
0.035745082801859486 -3.6607299984527897 5.517820789107728
0.03498152663669309 -3.6999988825340107 5.519542728962056
0.034195139888515066 -3.740441919295402 5.521316155390102
0.033385922557325434 -3.7820591087369624 5.523141068391865
0.03255387464312417 -3.8248504508586922 5.525017467967346
0.031698996145911304 -3.868815945660591 5.5269453541165445
0.030821287065686796 -3.913955593142661 5.528924726839461
0.02992074740245068 -3.9602693933048987 5.530955586136093
0.028997377156202944 -4.007757346147306 5.533037932006444
0.02805117632694358 -4.056419451669883 5.535171764450512
0.02708214491467261 -4.106255709872629 5.537357083468298
0.026090282919390022 -4.157266120755545 5.539593889059801
0.0250755903410958 -4.209450684318631 5.541882181225021
0.024038067179789964 -4.262809400561885 5.544221959963959
0.02297771343547251 -4.317342269485309 5.546613225276615
0.021894529108143428 -4.373049291088903 5.549055977162988
0.02078851419780273 -4.429930465372665 5.551550215623078
0.019659668704450413 -4.487985792336598 5.554095940656886
0.01850799262808648 -4.5472152719807 5.556693152264411
0.01733348596871092 -4.607618904304971 5.559341850445653
0.01613614872632375 -4.669196689309412 5.562042035200614
0.014915980900924955 -4.731948626994021 5.564793706529292
0.013672982492514538 -4.795874717358801 5.567596864431687
0.01491598090092495 -4.793095682512414 5.631524008031837
0.016136148726323737 -4.790367691163206 5.694276979606679
0.017333485968710906 -4.787690743311176 5.755855779156212
0.018507992628086455 -4.785064838956324 5.816260406680436
0.01965966870445039 -4.782489978098651 5.875490862179351
0.020788514197802695 -4.779966160738157 5.933547145652957
0.021894529108143386 -4.777493386874841 5.990429257101255
0.022977713435472457 -4.775071656508704 6.046137196524243
0.02403806717978991 -4.772700969639746 6.100670963921923
0.025075590341095744 -4.770381326267965 6.154030559294293
0.026090282919389952 -4.768112726393364 6.206215982641355
0.027082144914672538 -4.76589517001594 6.257227233963108
0.028051176326943508 -4.763728657135696 6.307064313259552
0.028997377156202868 -4.76161318775263 6.355727220530687
0.029920747402450598 -4.759548761866743 6.403215955776513
0.030821287065686712 -4.757535379478034 6.44953051899703
0.03169899614591121 -4.755573040586503 6.494670910192239
0.03255387464312408 -4.753661745192151 6.5386371293621375
0.03338592255732534 -4.751801493294978 6.58142917650673
[...]
CELL_DATA 200

VECTORS Vinf float
5.149947852902994 37.28483789325777 19.958154322196442
5.13591604361517 37.28863933414384 20.006393883832786
5.121751544982518 37.29418815313907 20.059891449699656
5.10380707202483 37.29928390182587 20.12414436400554
5.084041601591876 37.305016419241625 20.196378103656517
5.062638913568273 37.31138166333615 20.276552709669954
5.0398135528588055 37.318373987946515 20.36462368173573
5.015810038096374 37.325985930084926 20.46054264941875
4.990900203277748 37.33420806196814 20.56425837922702
4.965378453367825 37.34302893156089 20.675718122247265
4.939554899111803 37.35243511204967 20.794869267746044
4.9137465756727154 37.36241137384224 20.921661222245
4.88826722055569 37.37294098242294 21.056047387071676
4.863416349148577 37.384006112398744 21.197987068620222
4.83946856998554 37.39558835388933 21.347447134120117
4.816664173268359 37.407669274267406 21.50440323026202
4.795827238200316 37.41954988502674 21.669945352959644
4.775569486057027 37.43279032227375 21.841463324703366
4.75801842389323 37.44916884821917 22.015022079514303
4.742072981142149 37.46218350934218 22.203472406294495
4.72729530541735 37.47573216730788 22.399347259895926
4.713801946966476 37.48981044217845 22.60262479957345
4.7016917463808365 37.50441510683993 22.81328503695189
4.691050748575189 37.51954411536854 23.031308525910273
4.68195736848334 37.53519653052614 23.25667518441266
4.674487232305345 37.55137237262795 23.48936334917194
4.6687173229283925 37.568072417149516 23.729349108690744
4.66589216383872 37.58656855392771 23.973360619284087
4.662825188540881 37.60376629810262 24.229251918976303
4.660939728365078 37.62144430385526 24.49266725702263
4.660362632765809 37.639589359704864 24.76359638848777
4.661214722885698 37.65818823681489 25.04203019026846
4.663618716291188 37.67722751061875 25.32795949821954
4.667705545847617 37.69669338565315 25.621374387200294
4.677490531140124 37.71901458001369 25.914663235337436
4.6829972826775395 37.73866080528276 26.224947835831486
4.690485868511824 37.75870932608057 26.542706051316635
4.700059430950761 37.779150017916 26.867934114267317
4.711770629955956 37.79997644798355 27.200634271211754
4.725583411618099 37.82118803814333 27.540818258342558
4.741321744123414 37.84279282591714 27.888511617501546
4.758611503433424 37.864810522543216 28.24375806649871
4.776831918762237 37.88727517508142 28.606622187610014
4.795105947303435 37.910236243007795 28.97718756172643
4.812366717519079 37.93375650546315 29.35554701770051
4.826559047027763 37.956722733149824 29.744021838407477
4.837424372594957 37.981171336738015 30.13917543097016
4.844684868226723 38.00627165096405 30.542509283801532
4.848608202503374 38.032037436047915 30.95395593328755
4.850034315967103 38.058449235021556 31.37339865338657
4.851532671306416 38.28287575322047 31.571597438636907
4.853482143951082 38.70113262567211 31.54490922719957
4.853208688339745 39.11179226396865 31.518858971602295
4.849605498475683 39.51498587271109 31.493463472010717
4.842211649095475 39.91079061938486 31.46870457084979
4.8313250715875125 40.299208798183905 31.44453572656569
4.817836275923891 40.68017676967978 31.42089626681173
4.802908011536976 41.05359347423039 31.397726394070528
4.787663473798521 41.4193519684106 31.374977756026198
4.772987237365409 41.77736187527405 31.352617925880832
4.75945805969947 42.1275591370238 31.33062993501364
4.747641433744382 42.47021413553912 31.30880136797495
4.736749904242753 42.80497349431049 31.287084429034092
4.727245593580415 43.13183260427984 31.265844652707845
4.719051985049302 43.450793961253204 31.245090944991617
4.71207056965854 43.761863572489666 31.224832464801935
4.706205629253774 44.0650482440583 31.205077740758156
4.706995401399634 44.359783439222774 31.18559230274266
4.703415923058719 44.64762488913438 31.16597954293727
4.700632219418815 44.92752278146702 31.147034514281938
4.698613004493948 45.199487841453596 31.128747885595523
4.697347774635839 45.46352841124323 31.111109947404742
4.6968384480896415 45.719651193001724 31.094110937782332
4.697089878695602 45.96786215076332 31.07774131459916
4.70057830791923 46.20585908739855 31.06510671761463
4.705018292299531 46.438727627634044 31.048556177275145
4.710677547425759 46.66358968329162 31.032720157390877
4.717608918787711 46.880451567997284 31.017579989142124
4.725873419289433 47.08931813178617 31.00311796653637
4.735532273278061 47.29019346736467 30.989317508902445
4.746636975133905 47.483081819086316 30.976163300794845
4.759217996933635 47.66798864384156 30.96364139249592
4.773273316416158 47.84492172112807 30.951739241957835
4.788758309491477 48.01389217052527 30.94044568169724
4.812437803029522 48.17467465468029 30.928238150712485
4.8330111823631245 48.32796835212941 30.917220970444806
4.855049333336405 48.47334676882302 30.90671536845519
4.8782930794218995 48.61083085712302 30.89673094927196
4.902434252118119 48.74044659990822 30.887277013774
4.927129666557221 48.862223820157546 30.878362200753767
4.952016974431708 48.97619477376608 30.869994178987188
4.976730674388724 49.082392682322606 30.862179415987914
5.000916756154125 49.18085034959024 30.854923038406188
5.024244836459516 49.27159897407519 30.848228787401414
5.046417111652624 49.35466722930723 30.842099062208042
5.067173911947624 49.430080641722604 30.83653503769497
5.086296029278064 49.49786125977448 30.83153683744518
5.103604269257741 49.55802758071749 30.82710374256201
5.118956840422153 49.610594684562194 30.82323441743015
5.132245253548362 49.6555745171535 30.81992713622465
5.149947852902994 37.28483789325777 19.958154322196442
5.13591604361517 37.28863933414384 20.006393883832786
5.121751544982518 37.29418815313907 20.059891449699656
5.10380707202483 37.29928390182587 20.12414436400554
5.084041601591876 37.305016419241625 20.196378103656517
5.062638913568273 37.31138166333615 20.276552709669954
5.0398135528588055 37.318373987946515 20.36462368173573
5.015810038096374 37.325985930084926 20.46054264941875
4.990900203277748 37.33420806196814 20.56425837922702
4.965378453367825 37.34302893156089 20.675718122247265
4.939554899111803 37.35243511204967 20.794869267746044
4.9137465756727154 37.36241137384224 20.921661222245
4.88826722055569 37.37294098242294 21.056047387071676
4.863416349148577 37.384006112398744 21.197987068620222
4.83946856998554 37.39558835388933 21.347447134120117
4.816664173268359 37.407669274267406 21.50440323026202
4.795827238200316 37.41954988502674 21.669945352959644
4.775569486057027 37.43279032227375 21.841463324703366
4.75801842389323 37.44916884821917 22.015022079514303
4.742072981142149 37.46218350934218 22.203472406294495
4.72729530541735 37.47573216730788 22.399347259895926
4.713801946966476 37.48981044217845 22.60262479957345
4.7016917463808365 37.50441510683993 22.81328503695189
4.691050748575189 37.51954411536854 23.031308525910273
4.68195736848334 37.53519653052614 23.25667518441266
4.674487232305345 37.55137237262795 23.48936334917194
4.6687173229283925 37.568072417149516 23.729349108690744
4.66589216383872 37.58656855392771 23.973360619284087
4.662825188540881 37.60376629810262 24.229251918976303
4.660939728365078 37.62144430385526 24.49266725702263
4.660362632765809 37.639589359704864 24.76359638848777
4.661214722885698 37.65818823681489 25.04203019026846
4.663618716291188 37.67722751061875 25.32795949821954
4.667705545847617 37.69669338565315 25.621374387200294
4.677490531140124 37.71901458001369 25.914663235337436
4.6829972826775395 37.73866080528276 26.224947835831486
4.690485868511824 37.75870932608057 26.542706051316635
4.700059430950761 37.779150017916 26.867934114267317
4.711770629955956 37.79997644798355 27.200634271211754
4.725583411618099 37.82118803814333 27.540818258342558
4.741321744123414 37.84279282591714 27.888511617501546
4.758611503433424 37.864810522543216 28.24375806649871
4.776831918762237 37.88727517508142 28.606622187610014
4.795105947303435 37.910236243007795 28.97718756172643
4.812366717519079 37.93375650546315 29.35554701770051
4.826559047027763 37.956722733149824 29.744021838407477
4.837424372594957 37.981171336738015 30.13917543097016
4.844684868226723 38.00627165096405 30.542509283801532
4.848608202503374 38.032037436047915 30.95395593328755
4.850034315967103 38.058449235021556 31.37339865338657
4.851532671306416 38.28287575322047 31.571597438636907
4.853482143951082 38.70113262567211 31.54490922719957
4.853208688339745 39.11179226396865 31.518858971602295
4.849605498475683 39.51498587271109 31.493463472010717
4.842211649095475 39.91079061938486 31.46870457084979
4.8313250715875125 40.299208798183905 31.44453572656569
4.817836275923891 40.68017676967978 31.42089626681173
4.802908011536976 41.05359347423039 31.397726394070528
4.787663473798521 41.4193519684106 31.374977756026198
4.772987237365409 41.77736187527405 31.352617925880832
4.75945805969947 42.1275591370238 31.33062993501364
4.747641433744382 42.47021413553912 31.30880136797495
4.736749904242753 42.80497349431049 31.287084429034092
4.727245593580415 43.13183260427984 31.265844652707845
4.719051985049302 43.450793961253204 31.245090944991617
4.71207056965854 43.761863572489666 31.224832464801935
4.706205629253774 44.0650482440583 31.205077740758156
4.706995401399634 44.359783439222774 31.18559230274266
4.703415923058719 44.64762488913438 31.16597954293727
4.700632219418815 44.92752278146702 31.147034514281938
4.698613004493948 45.199487841453596 31.128747885595523
4.697347774635839 45.46352841124323 31.111109947404742
4.6968384480896415 45.719651193001724 31.094110937782332
4.697089878695602 45.96786215076332 31.07774131459916
4.70057830791923 46.20585908739855 31.06510671761463
4.705018292299531 46.438727627634044 31.048556177275145
4.710677547425759 46.66358968329162 31.032720157390877
4.717608918787711 46.880451567997284 31.017579989142124
4.725873419289433 47.08931813178617 31.00311796653637
4.735532273278061 47.29019346736467 30.989317508902445
4.746636975133905 47.483081819086316 30.976163300794845
4.759217996933635 47.66798864384156 30.96364139249592
4.773273316416158 47.84492172112807 30.951739241957835
4.788758309491477 48.01389217052527 30.94044568169724
4.812437803029522 48.17467465468029 30.928238150712485
4.8330111823631245 48.32796835212941 30.917220970444806
4.855049333336405 48.47334676882302 30.90671536845519
4.8782930794218995 48.61083085712302 30.89673094927196
4.902434252118119 48.74044659990822 30.887277013774
4.927129666557221 48.862223820157546 30.878362200753767
4.952016974431708 48.97619477376608 30.869994178987188
4.976730674388724 49.082392682322606 30.862179415987914
5.000916756154125 49.18085034959024 30.854923038406188
5.024244836459516 49.27159897407519 30.848228787401414
5.046417111652624 49.35466722930723 30.842099062208042
5.067173911947624 49.430080641722604 30.83653503769497
5.086296029278064 49.49786125977448 30.83153683744518
5.103604269257741 49.55802758071749 30.82710374256201
5.118956840422153 49.610594684562194 30.82323441743015
5.132245253548362 49.6555745171535 30.81992713622465

VECTORS L float
0.05744721445011457 0.0 0.0
0.10387436705466091 0.0 0.0
0.1542342278747754 0.0 0.0
0.21021830521533078 0.0 0.0
0.2723104072264037 0.0 0.0
0.3406662944499893 0.0 0.0
0.41530514856282247 0.0 0.0
0.49616774558560583 0.0 0.0
0.5831374338269132 0.0 0.0
0.6760485823704518 0.0 0.0
0.7746905681969283 0.0 0.0
0.8788106452516823 0.0 0.0
0.9881172913214602 0.0 0.0
1.1022855298726797 0.0 0.0
1.2209637595700855 0.0 0.0
1.3437794556000384 0.0 0.0
1.470394151692519 0.0 0.0
1.6003584501328512 0.0 0.0
1.7334102848732449 0.0 0.0
1.8691694616423735 0.0 0.0
2.0073002720037265 0.0 0.0
2.1475026742102608 0.0 0.0
2.289507224356146 0.0 0.0
2.433073755535406 0.0 0.0
2.577974928820658 0.0 0.0
2.724029544690742 0.0 0.0
2.8709994969850423 0.0 0.0
3.018965427873902 0.0 0.0
3.1676212204379453 0.0 0.0
3.3168247943083475 0.0 0.0
3.4656611268718693 0.0 0.0
3.6156248646954094 0.0 0.0
3.7656708297858765 0.0 0.0
3.9156067251437356 0.0 0.0
4.065281845773319 0.0 0.0
4.214020800099915 0.0 0.0
4.361613887025751 0.0 0.0
4.507627782538714 0.0 0.0
4.651478495013033 0.0 0.0
4.792374931866259 0.0 0.0
4.929464573230468 0.0 0.0
5.061544329478448 0.0 0.0
5.1878899897166235 0.0 0.0
5.30571560813457 0.0 0.0
5.413914637592387 0.0 0.0
5.510958674281969 0.0 0.0
5.596206826740726 0.0 0.0
5.670799707085427 0.0 0.0
5.740145977299801 0.0 0.0
5.828168596412942 0.0 0.0
6.075531871017396 0.0 0.0
6.104136595900187 0.0 0.0
6.148798211669352 0.0 0.0
6.185006793043799 0.0 0.0
6.206513192624005 0.0 0.0
6.211289334688261 0.0 0.0
6.199258007118582 0.0 0.0
6.171278709938645 0.0 0.0
6.128599596659402 0.0 0.0
6.072548756856111 0.0 0.0
6.004372721086973 0.0 0.0
5.925180216787944 0.0 0.0
5.835815424153448 0.0 0.0
5.737127387185117 0.0 0.0
5.629703601241939 0.0 0.0
5.51417388794227 0.0 0.0
5.390969088868178 0.0 0.0
5.26072101228446 0.0 0.0
5.123278616379194 0.0 0.0
4.9792544908943945 0.0 0.0
4.82878055926181 0.0 0.0
4.672262281641839 0.0 0.0
4.510018933759505 0.0 0.0
4.342431988323603 0.0 0.0
4.1699574887883655 0.0 0.0
3.9928941772501476 0.0 0.0
3.8116700936556875 0.0 0.0
3.626778683931963 0.0 0.0
3.438683798186645 0.0 0.0
3.247982469997151 0.0 0.0
3.055323816552124 0.0 0.0
2.861408514958935 0.0 0.0
2.6670123718506447 0.0 0.0
2.472978522950722 0.0 0.0
2.2802639203714534 0.0 0.0
2.089597774122255 0.0 0.0
1.901976562154291 0.0 0.0
1.718362046639697 0.0 0.0
1.5397003326564562 0.0 0.0
1.3669060138644429 0.0 0.0
1.2008460226658675 0.0 0.0
1.0423258970485614 0.0 0.0
0.8920782914911795 0.0 0.0
0.7507502735319472 0.0 0.0
0.6188934608118747 0.0 0.0
0.49694068847538453 0.0 0.0
0.3851618967068204 0.0 0.0
0.2835505592966623 0.0 0.0
0.19146021826591714 0.0 0.0
0.10593258032545097 0.0 0.0
0.05744721445011457 0.0 0.0
0.10387436705466091 0.0 0.0
0.1542342278747754 0.0 0.0
0.21021830521533078 0.0 0.0
0.2723104072264037 0.0 0.0
0.3406662944499893 0.0 0.0
0.41530514856282247 0.0 0.0
0.49616774558560583 0.0 0.0
0.5831374338269132 0.0 0.0
0.6760485823704518 0.0 0.0
0.7746905681969283 0.0 0.0
0.8788106452516823 0.0 0.0
0.9881172913214602 0.0 0.0
1.1022855298726797 0.0 0.0
1.2209637595700855 0.0 0.0
1.3437794556000384 0.0 0.0
1.470394151692519 0.0 0.0
1.6003584501328512 0.0 0.0
1.7334102848732449 0.0 0.0
1.8691694616423735 0.0 0.0
2.0073002720037265 0.0 0.0
2.1475026742102608 0.0 0.0
2.289507224356146 0.0 0.0
2.433073755535406 0.0 0.0
2.577974928820658 0.0 0.0
2.724029544690742 0.0 0.0
2.8709994969850423 0.0 0.0
3.018965427873902 0.0 0.0
3.1676212204379453 0.0 0.0
3.3168247943083475 0.0 0.0
3.4656611268718693 0.0 0.0
3.6156248646954094 0.0 0.0
3.7656708297858765 0.0 0.0
3.9156067251437356 0.0 0.0
4.065281845773319 0.0 0.0
4.214020800099915 0.0 0.0
4.361613887025751 0.0 0.0
4.507627782538714 0.0 0.0
4.651478495013033 0.0 0.0
4.792374931866259 0.0 0.0
4.929464573230468 0.0 0.0
5.061544329478448 0.0 0.0
5.1878899897166235 0.0 0.0
5.30571560813457 0.0 0.0
5.413914637592387 0.0 0.0
5.510958674281969 0.0 0.0
5.596206826740726 0.0 0.0
5.670799707085427 0.0 0.0
5.740145977299801 0.0 0.0
5.828168596412942 0.0 0.0
6.075531871017396 0.0 0.0
6.104136595900187 0.0 0.0
6.148798211669352 0.0 0.0
6.185006793043799 0.0 0.0
6.206513192624005 0.0 0.0
6.211289334688261 0.0 0.0
6.199258007118582 0.0 0.0
6.171278709938645 0.0 0.0
6.128599596659402 0.0 0.0
6.072548756856111 0.0 0.0
6.004372721086973 0.0 0.0
5.925180216787944 0.0 0.0
5.835815424153448 0.0 0.0
5.737127387185117 0.0 0.0
5.629703601241939 0.0 0.0
5.51417388794227 0.0 0.0
5.390969088868178 0.0 0.0
5.26072101228446 0.0 0.0
5.123278616379194 0.0 0.0
4.9792544908943945 0.0 0.0
4.82878055926181 0.0 0.0
4.672262281641839 0.0 0.0
4.510018933759505 0.0 0.0
4.342431988323603 0.0 0.0
4.1699574887883655 0.0 0.0
3.9928941772501476 0.0 0.0
3.8116700936556875 0.0 0.0
3.626778683931963 0.0 0.0
3.438683798186645 0.0 0.0
3.247982469997151 0.0 0.0
3.055323816552124 0.0 0.0
2.861408514958935 0.0 0.0
2.6670123718506447 0.0 0.0
2.472978522950722 0.0 0.0
2.2802639203714534 0.0 0.0
2.089597774122255 0.0 0.0
1.901976562154291 0.0 0.0
1.718362046639697 0.0 0.0
1.5397003326564562 0.0 0.0
1.3669060138644429 0.0 0.0
1.2008460226658675 0.0 0.0
1.0423258970485614 0.0 0.0
0.8920782914911795 0.0 0.0
0.7507502735319472 0.0 0.0
0.6188934608118747 0.0 0.0
0.49694068847538453 0.0 0.0
0.3851618967068204 0.0 0.0
0.2835505592966623 0.0 0.0
0.19146021826591714 0.0 0.0
0.10593258032545097 0.0 0.0

SCALARS Gamma float
LOOKUP_TABLE default
0.4154332565742841
0.6385375907787664
0.8211477832160485
0.9854540747261114
1.1389229585651715
1.2848322201493811
1.4247943938478507
1.5596229634999303
1.6896988842177825
1.815149754126721
1.9359479130619612
2.05197015017371
2.163037982707623
2.2689487774520876
2.369499922964045
2.4645044508453156
2.5538801518110597
2.6374028455624736
2.715188812546533
2.787181090101207
2.8534136058301818
2.91398178388059
2.9690241050222683
3.0187119394327087
3.06322454391467
3.102783341174286
3.137537995722354
3.167955289455222
3.1940715161233975
3.216089630652319
3.234199095173099
3.248572982015192
3.2593611496132207
3.266688335562352
3.270705719963283
3.271162032349038
3.26819464216736
3.2617776655178896
3.2517980084686444
3.2380337156545353
3.220265372148419
3.1980988958238434
3.1710828767966506
3.1387341416791354
3.1006143143026925
3.056425050380621
3.0063791037017933
2.9515267275004664
2.8945653660573205
2.8424380859412572
2.8367211856051924
2.8768644123485476
2.9214413219939703
2.9638004095886084
3.001426715048293
3.0333647525019702
3.059474662455708
3.080028467158477
3.0954757067131395
3.106305304676391
3.112969856848022
3.1158573159076877
3.1152225074427093
3.1113233210812883
3.104278889661007
3.0942270546799415
3.0811923478958367
3.0653052482590617
3.046238334668403
3.024081429402881
2.9986308878968213
2.969824366938446
2.9375294759036663
2.9016314178535554
2.8620440478988836
2.8185528751217337
2.7710002874804416
2.7192481850269683
2.6631085524895566
2.6024628158693695
2.537208993421207
2.467264376081712
2.392590699902282
2.3131973134450026
2.2291972639838704
2.1404896286282553
2.0472285691838596
1.949559973785345
1.8476412837839358
1.7416272181687875
1.6316492600719152
1.5177896082230486
1.4000460916528519
1.2782765620760224
1.1521162718701814
1.0208148038234046
0.882908480316132
0.7354458535680173
0.5717325592681664
0.3718776609870509
0.4154332565742841
0.6385375907787664
0.8211477832160485
0.9854540747261114
1.1389229585651715
1.2848322201493811
1.4247943938478507
1.5596229634999303
1.6896988842177825
1.815149754126721
1.9359479130619612
2.05197015017371
2.163037982707623
2.2689487774520876
2.369499922964045
2.4645044508453156
2.5538801518110597
2.6374028455624736
2.715188812546533
2.787181090101207
2.8534136058301818
2.91398178388059
2.9690241050222683
3.0187119394327087
3.06322454391467
3.102783341174286
3.137537995722354
3.167955289455222
3.1940715161233975
3.216089630652319
3.234199095173099
3.248572982015192
3.2593611496132207
3.266688335562352
3.270705719963283
3.271162032349038
3.26819464216736
3.2617776655178896
3.2517980084686444
3.2380337156545353
3.220265372148419
3.1980988958238434
3.1710828767966506
3.1387341416791354
3.1006143143026925
3.056425050380621
3.0063791037017933
2.9515267275004664
2.8945653660573205
2.8424380859412572
2.8367211856051924
2.8768644123485476
2.9214413219939703
2.9638004095886084
3.001426715048293
3.0333647525019702
3.059474662455708
3.080028467158477
3.0954757067131395
3.106305304676391
3.112969856848022
3.1158573159076877
3.1152225074427093
3.1113233210812883
3.104278889661007
3.0942270546799415
3.0811923478958367
3.0653052482590617
3.046238334668403
3.024081429402881
2.9986308878968213
2.969824366938446
2.9375294759036663
2.9016314178535554
2.8620440478988836
2.8185528751217337
2.7710002874804416
2.7192481850269683
2.6631085524895566
2.6024628158693695
2.537208993421207
2.467264376081712
2.392590699902282
2.3131973134450026
2.2291972639838704
2.1404896286282553
2.0472285691838596
1.949559973785345
1.8476412837839358
1.7416272181687875
1.6316492600719152
1.5177896082230486
1.4000460916528519
1.2782765620760224
1.1521162718701814
1.0208148038234046