# vtk DataFile Version 4.0
[MyVLM domain - lattices] 
ASCII
DATASET UNSTRUCTURED_GRID
POINTS 302 float
0.03418245623128626 -3.378439573116741 -5.496921595068997
0.034058156390445224 -3.3759919921812807 -5.502833732990248
0.03391102596659257 -3.3730948555637976 -5.509831773794994
0.03374106495972828 -3.369748163264291 -5.517915717483234
0.03354827336985239 -3.3659519152827615 -5.52708556405497
0.033332651196964866 -3.361706111619208 -5.5373413135102005
0.033094198441065724 -3.357010752273632 -5.5486829658489265
0.03283291510215496 -3.3518658372460317 -5.561110521071147
0.03254880118023259 -3.346271366536409 -5.574623979176863
0.03224185667529859 -3.3402273401447626 -5.589223340166074
0.03191208158735297 -3.333733758071093 -5.60490860403878
0.03155947591639573 -3.3267906203154003 -5.62167977079498
0.03118403966242687 -3.319397926877684 -5.639536840434676
0.030785772825446388 -3.3115556777579447 -5.658479812957867
0.030364675405454292 -3.3032638729561823 -5.678508688364553
0.029920747402450574 -3.294522512472396 -5.699623466654733
0.02945398881643524 -3.2853315963065874 -5.721824147828409
0.028964399647408278 -3.275691124458754 -5.74511073188558
0.028451979895369697 -3.265601096928899 -5.769483218826246
0.027916729560319504 -3.25506151371702 -5.794941608650407
0.027358648642257687 -3.2440723748231175 -5.821485901358063
0.02677773714118425 -3.2326336802471918 -5.8491160969492135
0.026173995057099195 -3.2207454299892433 -5.87783219542386
0.02554742239000252 -3.208407624049271 -5.907634196782
0.024898019139894225 -3.195620262427276 -5.938522101023636
0.02422578530677431 -3.182383345123257 -5.970495908148767
0.023530720890642776 -3.168696872137215 -6.003555618157394
0.02281282589149962 -3.1545608434691497 -6.037701231049514
0.022072100309344846 -3.1399752591190615 -6.07293274682513
0.021308544144178453 -3.1249401190869497 -6.109250165484242
0.020522157396000437 -3.1094554233728147 -6.146653487026848
0.0197129400648108 -3.0935211719766564 -6.185142711452949
0.01888089215060955 -3.0771373648984746 -6.224717838762545
0.018026013653396674 -3.06030400213827 -6.265378868955636
0.01714830457317218 -3.0430210836960416 -6.307125802032222
0.01624776490993607 -3.02528860957179 -6.349958637992303
0.015324394663688332 -3.0071065797655154 -6.39387737683588
0.014378193834428982 -2.9884749942772175 -6.438882018562951
0.013409162422158009 -2.9693938531068964 -6.484972563173517
0.01241730042687542 -2.949863156254552 -6.5321490106675775
0.01140260784858121 -2.929882903720184 -6.580411361045132
0.010365084687275377 -2.909453095503793 -6.629759614306184
0.009304730942957926 -2.8885737316053786 -6.680193770450731
0.00822154661562885 -2.867244812024941 -6.731713829478773
0.007115531705288159 -2.84546633676248 -6.78431979139031
0.005986686211935847 -2.8232383058179957 -6.838011656185341
0.0048350101355719155 -2.800560719191488 -6.892789423863866
0.0036605034761963643 -2.7774335768829577 -6.948653094425887
0.002463166233809199 -2.7538568788924036 -7.005602667871403
0.0012429984084104094 -2.7298306252198263 -7.063638144200415
0.0 -2.705354815865226 -7.122759523412921
0.0012429984084104133 -2.7644669547891527 -7.147257640797531
0.002463166233809206 -2.8224933605491707 -7.1713057927607915
0.0036605034761963795 -2.8794340331452797 -7.1949039793027
0.004835010135571933 -2.93528897257748 -7.21805220042326
0.005986686211935867 -2.9900581788457714 -7.24075045612247
0.007115531705288181 -3.0437416519501537 -7.26299874640033
0.008221546615628874 -3.0963393918906275 -7.28479707125684
0.009304730942957947 -3.147851398667192 -7.306145430691999
0.010365084687275402 -3.198277672279848 -7.327043824705808
0.011402607848581239 -3.2476182127285953 -7.347492253298269
0.012417300426875453 -3.2958730200134334 -7.36749071646938
0.013409162422158047 -3.3430420941343626 -7.387039214219139
0.014378193834429022 -3.3891254350913833 -7.406137746547549
0.015324394663688377 -3.434123042884495 -7.424786313454608
0.01624776490993611 -3.478034917513697 -7.442984914940318
0.017148304573172225 -3.5208610589789915 -7.4607335510046795
0.018026013653396723 -3.562601467280377 -7.478032221647689
0.0188808921506096 -3.6032561424178526 -7.4948809268693495
0.01971294006481086 -3.64282508439142 -7.511279666669659
0.020522157396000495 -3.6813082932010786 -7.52722844104862
0.021308544144178508 -3.7187057688468284 -7.542727250006231
0.022072100309344908 -3.7550175113286692 -7.557776093542491
0.022812825891499678 -3.7902435206466008 -7.572374971657401
0.023530720890642835 -3.824383796800624 -7.58652388435096
0.024225785306774373 -3.8574383397907384 -7.600222831623172
0.024898019139894294 -3.8894071496169427 -7.613471813474032
0.025547422390002593 -3.9202902262792394 -7.626270829903542
0.026173995057099272 -3.9500875697776268 -7.638619880911702
0.026777737141184327 -3.9787991801121065 -7.650518966498512
0.027358648642257764 -4.0064250572826765 -7.661968086663974
0.027916729560319584 -4.032965201289337 -7.672967241408084
0.028451979895369777 -4.058419612132089 -7.683516430730844
0.028964399647408358 -4.0827882898109324 -7.693615654632254
0.029453988816435312 -4.106071234325867 -7.7032649131123145
0.02992074740245066 -4.128268445676893 -7.712464206171027
0.03036467540545438 -4.149379923864009 -7.721213533808386
0.030785772825446468 -4.169405668887217 -7.7295128960243975
0.031184039662426954 -4.188345680746516 -7.737362292819056
0.03155947591639581 -4.206199959441906 -7.74476172419237
0.03191208158735306 -4.222968504973387 -7.751711190144328
0.03224185667529867 -4.23865131734096 -7.7582106906749395
0.03254880118023267 -4.253248396544624 -7.7642602257842
0.032832915102155046 -4.266759742584378 -7.769859795472112
0.03309419844106581 -4.279185355460224 -7.775009399738671
0.03333265119696494 -4.290525235172161 -7.779709038583882
0.033548273369852465 -4.300779381720188 -7.7839587120077445
0.033741064959728374 -4.309947795104308 -7.787758420010255
0.03391102596659266 -4.318030475324519 -7.791108162591415
0.03405815639044532 -4.3250274223808205 -7.794007939751228
0.03418245623128636 -4.3309386362732125 -7.796457751489688
0.04785543872380079 -3.8381732886486417 -5.306493655015566
0.04773113888295975 -3.835725707713182 -5.312405792936817
0.04758400845910709 -3.8328285710956984 -5.319403833741562
0.04741404745224281 -3.8294818787961917 -5.327487777429803
0.04722125586236692 -3.8256856308146623 -5.336657624001539
0.047005633689479395 -3.8214398271511083 -5.346913373456769
0.04676718093358025 -3.816744467805532 -5.358255025795495
0.04650589759466949 -3.8115995527779325 -5.370682581017716
0.04622178367274712 -3.8060050820683093 -5.384196039123431
0.045914839167813117 -3.799961055676663 -5.398795400112642
0.045585064079867496 -3.793467473602994 -5.414480663985348
0.04523245840891026 -3.786524335847301 -5.431251830741549
0.0448570221549414 -3.7791316424095847 -5.449108900381244
0.044458755317960924 -3.7712893932898455 -5.468051872904436
0.044037657897968825 -3.7629975884880826 -5.488080748311122
0.04359372989496511 -3.754256228004297 -5.509195526601302
0.04312697130894977 -3.7450653118384882 -5.531396207774978
0.042637382139922804 -3.7354248399906553 -5.554682791832149
0.04212496238788423 -3.7253348124607992 -5.579055278772815
0.04158971205283404 -3.7147952292489204 -5.604513668596976
0.04103163113477222 -3.7038060903550187 -5.631057961304632
0.04045071963369878 -3.6923673957790926 -5.658688156895782
0.03984697754961373 -3.6804791455211436 -5.687404255370428
0.039220404882517046 -3.668141339581171 -5.717206256728569
0.03857100163240875 -3.655353977959176 -5.748094160970205
0.037898767799288836 -3.642117060655158 -5.780067968095336
0.0372037033831573 -3.6284305876691154 -5.813127678103962
0.03648580838401415 -3.6142945590010505 -5.847273290996083
0.035745082801859375 -3.5997089746509627 -5.882504806771699
0.03498152663669298 -3.5846738346188505 -5.9188222254308105
0.03419513988851496 -3.5691891389047155 -5.956225546973416
0.03338592255732533 -3.5532548875085572 -5.994714771399517
0.03255387464312407 -3.5368710804303745 -6.034289898709114
0.03169899614591121 -3.5200377176701703 -6.074950928902204
0.030821287065686705 -3.502754799227942 -6.116697861978791
0.029920747402450598 -3.4850223251036905 -6.159530697938871
0.028997377156202868 -3.4668402952974167 -6.2034494367824475
0.028051176326943504 -3.4482087098091183 -6.248454078509519
0.027082144914672538 -3.4291275686387968 -6.2945446231200854
0.02609028291938995 -3.409596871786452 -6.341721070614146
0.02507559034109574 -3.3896166192520845 -6.389983420991702
0.024038067179789905 -3.3691868110356937 -6.439331674252753
0.022977713435472454 -3.34830744713728 -6.4897658303973
0.02189452910814338 -3.3269785275568413 -6.541285889425341
0.02078851419780269 -3.3052000522943805 -6.593891851336878
0.019659668704450378 -3.2829720213498965 -6.6475837161319085
0.018507992628086445 -3.2602944347233884 -6.702361483810436
0.017333485968710895 -3.237167292414858 -6.758225154372456
0.016136148726323726 -3.2135905944243044 -6.815174727817972
0.014915980900924938 -3.189564340751727 -6.873210204146983
0.01367298249251453 -3.165088531397126 -6.93233158335949
0.014915980900924941 -3.224200670321053 -6.956829700744099
0.016136148726323733 -3.282227076081071 -6.980877852707359
0.017333485968710906 -3.339167748677181 -7.004476039249268
0.018507992628086462 -3.3950226881093806 -7.027624260369828
0.019659668704450392 -3.4497918943776713 -7.0503225160690395
0.02078851419780271 -3.5034753674820545 -7.072570806346899
0.021894529108143403 -3.556073107422528 -7.094369131203408
0.022977713435472478 -3.607585114199093 -7.115717490638568
0.02403806717978993 -3.6580113878117486 -7.136615884652378
0.025075590341095768 -3.707351928260496 -7.157064313244837
0.02609028291938998 -3.7556067355453338 -7.177062776415948
0.027082144914672573 -3.8027758096662634 -7.196611274165707
0.02805117632694355 -3.848859150623283 -7.215709806494119
0.028997377156202906 -3.8938567584163954 -7.234358373401178
0.029920747402450636 -3.9377686330455988 -7.252556974886888
[...]
CELL_DATA 200

VECTORS Vinf float
5.173484488683438 -33.83951883399838 25.36520398176947
5.159525279887325 -33.88480562745536 25.34828198752728
5.144104582615439 -33.93786783116359 25.328060097754552
5.126016293036463 -33.9981828968227 25.305608074843278
5.106053335512527 -34.066015159045726 25.280347292292852
5.084400240658486 -34.14133268707563 25.25228314714195
5.061279534994225 -34.22409812426003 25.221420870423813
5.036952846244521 -34.31426889112952 25.18776508049565
5.011720069646721 -34.411797744810535 25.151319237343774
4.98591628542251 -34.516633724046955 25.112085016050862
4.95990630797762 -34.62872346959685 25.070061632813257
4.934077002959487 -34.74801286125446 25.025245171795653
4.908376165337946 -34.87372059677071 24.97867725824257
4.880552176469505 -35.01408773641653 24.91996073157036
4.858547561246273 -35.152902276630726 24.868886936526714
4.836941233139496 -35.298889959509204 24.815019436454893
4.816005431789751 -35.45203438792423 24.75832856344554
4.795998098401804 -35.61232484928597 24.698779951982555
4.777157135837969 -35.779756843462685 24.63633485648579
4.759697299632711 -35.95433206810745 24.57095068100508
4.743809892440392 -36.13605789532885 24.502581652881894
4.729665022297207 -36.32494644689902 24.431179552278962
4.717415847040876 -36.521013424136065 24.356694405585596
4.707204016983978 -36.72427686615271 24.279075062839073
4.692692014492708 -36.93812260293711 24.194618631188433
4.686929445761109 -37.15436445360356 24.112537265113307
4.682142775475925 -37.37803671469468 24.02721335449349
4.678435486714199 -37.60917227457701 23.938582594878373
4.675892155327983 -37.84780824330245 23.846578471201077
4.6745878109359795 -38.0939843310078 23.751132805463968
4.674597981935651 -38.34774131959695 23.65217609366562
4.676008004658593 -38.609119820504546 23.549637614805796
4.678432445208152 -38.87308004322006 23.450166946644597
4.683781219246073 -39.146960087129465 23.343955190707828
4.690869655370517 -39.42848118553984 23.23407499242331
4.698052064413212 -39.716896705870305 23.121765741505197
4.706976904481102 -40.01240240976758 23.00652762817065
4.71773294818151 -40.31499446104757 22.888353027343733
4.731620472595236 -40.62473890318041 22.767175522539475
4.745420297972767 -40.94138293778417 22.643345055438324
4.761131359809469 -41.26520682036636 22.516463012001832
4.778354017674567 -41.596278185350876 22.386508478248548
4.796430252677876 -41.9346913881878 22.253464768956714
4.814437314385976 -42.280565717906384 22.117321350543996
4.831467079874915 -42.63337328125816 21.97890933515871
4.845446463295065 -42.994114649169305 21.837216117464486
4.856275309003216 -43.362580579843055 21.692567025769648
4.863535825142197 -43.73879923426325 21.544997613428926
4.867214796244611 -44.123086746104 21.393817140281666
4.869578674691848 -44.51487887567476 21.239032272159164
4.871505533216652 -44.78910989286739 21.358921672815192
4.874537630889888 -44.94123925345873 21.749514541061213
4.875429065886965 -45.090715493253434 22.132978605452717
4.873070003140524 -45.23761277910611 22.509422769203525
4.867004613735645 -45.38194987551893 22.878921443181326
4.8575435595503755 -45.523687376264796 23.241492761914976
4.835907094262058 -45.66432045423624 23.598165841773238
4.820743283303667 -45.80135979520128 23.94604888078436
4.805146881402748 -45.935397883806246 24.28704688102186
4.790059696179081 -46.06637561659414 24.621069858620363
4.776406835119936 -46.19463481592852 24.947405266823893
4.764182794683122 -46.31968018167578 25.266874142742676
4.7536951401653305 -46.44160009825027 25.57936634813528
4.74423237872547 -46.56078013073125 25.884167893105662
4.736369020623087 -46.676835341047514 26.18185673770952
4.729959376433473 -46.789794446614266 26.472420029994044
4.724864924069202 -46.89968511467093 26.75584596827253
4.720964765496388 -47.00653311228472 27.032122696644908
4.715366948634221 -47.11179903302808 27.29984114759413
4.7133461674147155 -47.21350916471808 27.560563125223826
4.71227810228503 -47.312172986966864 27.814177068930455
4.712143501385167 -47.40780759960705 28.06066619565815
4.712944637467739 -47.50042826408257 28.300012385714002
4.714700820520197 -47.59004880941027 28.532196410795137
4.717442732264927 -47.676682070497506 28.7571982971117
4.721205602185898 -47.760340346142954 28.97499781878411
4.726455828596673 -47.84083625115128 29.185715014964806
4.734719704389901 -47.919756137201986 29.387021094104828
4.742355664204368 -47.99508434078251 29.582099328588953
4.752151723905857 -48.06735148727009 29.770098259590917
4.763710978738434 -48.13669210847647 29.95071896147565
4.777114754868033 -48.20310676422267 30.123949568717315
4.792405272747716 -48.26659835994802 30.289780761122632
4.809573511662885 -48.3271726468751 30.448206868600256
4.828549853973774 -48.384838539736876 30.599226817365853
4.849199046078496 -48.439608186862486 30.74284477975658
4.8713204329994175 -48.49149676159999 30.87907042799352
4.894025207617966 -48.540411135273665 31.007309342191565
4.918427629123513 -48.58653068755459 31.12888386957942
4.94336209603561 -48.62983645683874 31.243114430825656
4.968465016764325 -48.6703481758348 31.350028357260644
4.993370716954256 -48.70808491218522 31.449654174499823
5.017725811339703 -48.743064371781834 31.542020430958598
5.0412011055024415 -48.775302368316375 31.62715466170971
5.0635003485287795 -48.80481248338499 31.705082555686715
5.084365619714666 -48.8316059170486 31.775827359355457
5.103579520265727 -48.85569150954404 31.83940951880307
5.1209646193132645 -48.87707590221407 31.895846538119155
5.136380765481154 -48.89576379954709 31.94515301620519
5.149720933873609 -48.91175829342886 31.987340816306503
5.173484488683438 -33.83951883399838 25.36520398176947
5.159525279887325 -33.88480562745536 25.34828198752728
5.144104582615439 -33.93786783116359 25.328060097754552
5.126016293036463 -33.9981828968227 25.305608074843278
5.106053335512527 -34.066015159045726 25.280347292292852
5.084400240658486 -34.14133268707563 25.25228314714195
5.061279534994225 -34.22409812426003 25.221420870423813
5.036952846244521 -34.31426889112952 25.18776508049565
5.011720069646721 -34.411797744810535 25.151319237343774
4.98591628542251 -34.516633724046955 25.112085016050862
4.95990630797762 -34.62872346959685 25.070061632813257
4.934077002959487 -34.74801286125446 25.025245171795653
4.908376165337946 -34.87372059677071 24.97867725824257
4.880552176469505 -35.01408773641653 24.91996073157036
4.858547561246273 -35.152902276630726 24.868886936526714
4.836941233139496 -35.298889959509204 24.815019436454893
4.816005431789751 -35.45203438792423 24.75832856344554
4.795998098401804 -35.61232484928597 24.698779951982555
4.777157135837969 -35.779756843462685 24.63633485648579
4.759697299632711 -35.95433206810745 24.57095068100508
4.743809892440392 -36.13605789532885 24.502581652881894
4.729665022297207 -36.32494644689902 24.431179552278962
4.717415847040876 -36.521013424136065 24.356694405585596
4.707204016983978 -36.72427686615271 24.279075062839073
4.692692014492708 -36.93812260293711 24.194618631188433
4.686929445761109 -37.15436445360356 24.112537265113307
4.682142775475925 -37.37803671469468 24.02721335449349
4.678435486714199 -37.60917227457701 23.938582594878373
4.675892155327983 -37.84780824330245 23.846578471201077
4.6745878109359795 -38.0939843310078 23.751132805463968
4.674597981935651 -38.34774131959695 23.65217609366562
4.676008004658593 -38.609119820504546 23.549637614805796
4.678432445208152 -38.87308004322006 23.450166946644597
4.683781219246073 -39.146960087129465 23.343955190707828
4.690869655370517 -39.42848118553984 23.23407499242331
4.698052064413212 -39.716896705870305 23.121765741505197
4.706976904481102 -40.01240240976758 23.00652762817065
4.71773294818151 -40.31499446104757 22.888353027343733
4.731620472595236 -40.62473890318041 22.767175522539475
4.745420297972767 -40.94138293778417 22.643345055438324
4.761131359809469 -41.26520682036636 22.516463012001832
4.778354017674567 -41.596278185350876 22.386508478248548
4.796430252677876 -41.9346913881878 22.253464768956714
4.814437314385976 -42.280565717906384 22.117321350543996
4.831467079874915 -42.63337328125816 21.97890933515871
4.845446463295065 -42.994114649169305 21.837216117464486
4.856275309003216 -43.362580579843055 21.692567025769648
4.863535825142197 -43.73879923426325 21.544997613428926
4.867214796244611 -44.123086746104 21.393817140281666
4.869578674691848 -44.51487887567476 21.239032272159164
4.871505533216652 -44.78910989286739 21.358921672815192
4.874537630889888 -44.94123925345873 21.749514541061213
4.875429065886965 -45.090715493253434 22.132978605452717
4.873070003140524 -45.23761277910611 22.509422769203525
4.867004613735645 -45.38194987551893 22.878921443181326
4.8575435595503755 -45.523687376264796 23.241492761914976
4.835907094262058 -45.66432045423624 23.598165841773238
4.820743283303667 -45.80135979520128 23.94604888078436
4.805146881402748 -45.935397883806246 24.28704688102186
4.790059696179081 -46.06637561659414 24.621069858620363
4.776406835119936 -46.19463481592852 24.947405266823893
4.764182794683122 -46.31968018167578 25.266874142742676
4.7536951401653305 -46.44160009825027 25.57936634813528
4.74423237872547 -46.56078013073125 25.884167893105662
4.736369020623087 -46.676835341047514 26.18185673770952
4.729959376433473 -46.789794446614266 26.472420029994044
4.724864924069202 -46.89968511467093 26.75584596827253
4.720964765496388 -47.00653311228472 27.032122696644908
4.715366948634221 -47.11179903302808 27.29984114759413
4.7133461674147155 -47.21350916471808 27.560563125223826
4.71227810228503 -47.312172986966864 27.814177068930455
4.712143501385167 -47.40780759960705 28.06066619565815
4.712944637467739 -47.50042826408257 28.300012385714002
4.714700820520197 -47.59004880941027 28.532196410795137
4.717442732264927 -47.676682070497506 28.7571982971117
4.721205602185898 -47.760340346142954 28.97499781878411
4.726455828596673 -47.84083625115128 29.185715014964806
4.734719704389901 -47.919756137201986 29.387021094104828
4.742355664204368 -47.99508434078251 29.582099328588953
4.752151723905857 -48.06735148727009 29.770098259590917
4.763710978738434 -48.13669210847647 29.95071896147565
4.777114754868033 -48.20310676422267 30.123949568717315
4.792405272747716 -48.26659835994802 30.289780761122632
4.809573511662885 -48.3271726468751 30.448206868600256
4.828549853973774 -48.384838539736876 30.599226817365853
4.849199046078496 -48.439608186862486 30.74284477975658
4.8713204329994175 -48.49149676159999 30.87907042799352
4.894025207617966 -48.540411135273665 31.007309342191565
4.918427629123513 -48.58653068755459 31.12888386957942
4.94336209603561 -48.62983645683874 31.243114430825656
4.968465016764325 -48.6703481758348 31.350028357260644
4.993370716954256 -48.70808491218522 31.449654174499823
5.017725811339703 -48.743064371781834 31.542020430958598
5.0412011055024415 -48.775302368316375 31.62715466170971
5.0635003485287795 -48.80481248338499 31.705082555686715
5.084365619714666 -48.8316059170486 31.775827359355457
5.103579520265727 -48.85569150954404 31.83940951880307
5.1209646193132645 -48.87707590221407 31.895846538119155
5.136380765481154 -48.89576379954709 31.94515301620519
5.149720933873609 -48.91175829342886 31.987340816306503

VECTORS L float
0.05773422747312399 0.0 0.0
0.10439213290503624 0.0 0.0
0.15500048967109578 0.0 0.0
0.21126085313300266 0.0 0.0
0.2736585160320732 0.0 0.0
0.34234940083328447 0.0 0.0
0.4173523025345479 0.0 0.0
0.4985918202709638 0.0 0.0
0.5859732293865495 0.0 0.0
0.6793227114897674 0.0 0.0
0.7784296399074527 0.0 0.0
0.8830411640508475 0.0 0.0
0.992862296036648 0.0 0.0
1.1075566238238037 0.0 0.0
1.226820859727356 0.0 0.0
1.3502633505958115 0.0 0.0
1.4775076586304814 0.0 0.0
1.6081725089884726 0.0 0.0
1.7416090170747254 0.0 0.0
1.8779107382724995 0.0 0.0
2.016577569084235 0.0 0.0
2.157347211417431 0.0 0.0
2.299943145180318 0.0 0.0
2.444118153136341 0.0 0.0
2.5895733547265136 0.0 0.0
2.73634914480597 0.0 0.0
2.884186303125763 0.0 0.0
3.0328947709357346 0.0 0.0
3.1823136952824935 0.0 0.0
3.33228094299494 0.0 0.0
3.4826776866106552 0.0 0.0
3.6333450280856847 0.0 0.0
3.7840995593064 0.0 0.0
3.934787973281649 0.0 0.0
4.085147641882255 0.0 0.0
4.234798431228125 0.0 0.0
4.383231971729762 0.0 0.0
4.530380429306552 0.0 0.0
4.675296912705769 0.0 0.0
4.817197582257735 0.0 0.0
4.955195371991955 0.0 0.0
5.0881079204946476 0.0 0.0
5.21457632346922 0.0 0.0
5.333001957458214 0.0 0.0
5.4417425418058665 0.0 0.0
5.539309742309691 0.0 0.0
5.625079774585172 0.0 0.0
5.700488953125361 0.0 0.0
5.770446978997921 0.0 0.0
5.85950802151667 0.0 0.0
6.110223176380503 0.0 0.0
6.1393827606559945 0.0 0.0
6.1847640742257886 0.0 0.0
6.221564329549125 0.0 0.0
6.24339891081439 0.0 0.0
6.248081651527084 0.0 0.0
6.2350416565633155 0.0 0.0
6.206449018147114 0.0 0.0
6.1631887668249545 0.0 0.0
6.106556598960878 0.0 0.0
6.037801581054286 0.0 0.0
5.957866813572965 0.0 0.0
5.86787079296156 0.0 0.0
5.768498732736454 0.0 0.0
5.660423034097685 0.0 0.0
5.544178083832146 0.0 0.0
5.420204381658711 0.0 0.0
5.2888760296982555 0.0 0.0
5.150439474873431 0.0 0.0
5.005483878965162 0.0 0.0
4.854229005846243 0.0 0.0
4.696945212139378 0.0 0.0
4.5339658296453935 0.0 0.0
4.365608542451095 0.0 0.0
4.192230079225561 0.0 0.0
4.014231308288651 0.0 0.0
3.8320506464164263 0.0 0.0
3.646193044261848 0.0 0.0
3.4570868473566594 0.0 0.0
3.265378467906635 0.0 0.0
3.0717080552649985 0.0 0.0
2.8767808406817283 0.0 0.0
2.6813636370707283 0.0 0.0
2.486284553742191 0.0 0.0
2.292415805172191 0.0 0.0
2.1006832026436495 0.0 0.0
1.9120294829782842 0.0 0.0
1.7274095822780584 0.0 0.0
1.54778751121292 0.0 0.0
1.3740721271294605 0.0 0.0
1.2071316946774404 0.0 0.0
1.0477741654492119 0.0 0.0
0.8967346448828786 0.0 0.0
0.7546641084406418 0.0 0.0
0.6221160737026441 0.0 0.0
0.49952512771260127 0.0 0.0
0.3871620909431489 0.0 0.0
0.28502085082353346 0.0 0.0
0.1924511518848475 0.0 0.0
0.10647921407688253 0.0 0.0
0.05773422747312399 0.0 0.0
0.10439213290503624 0.0 0.0
0.15500048967109578 0.0 0.0
0.21126085313300266 0.0 0.0
0.2736585160320732 0.0 0.0
0.34234940083328447 0.0 0.0
0.4173523025345479 0.0 0.0
0.4985918202709638 0.0 0.0
0.5859732293865495 0.0 0.0
0.6793227114897674 0.0 0.0
0.7784296399074527 0.0 0.0
0.8830411640508475 0.0 0.0
0.992862296036648 0.0 0.0
1.1075566238238037 0.0 0.0
1.226820859727356 0.0 0.0
1.3502633505958115 0.0 0.0
1.4775076586304814 0.0 0.0
1.6081725089884726 0.0 0.0
1.7416090170747254 0.0 0.0
1.8779107382724995 0.0 0.0
2.016577569084235 0.0 0.0
2.157347211417431 0.0 0.0
2.299943145180318 0.0 0.0
2.444118153136341 0.0 0.0
2.5895733547265136 0.0 0.0
2.73634914480597 0.0 0.0
2.884186303125763 0.0 0.0
3.0328947709357346 0.0 0.0
3.1823136952824935 0.0 0.0
3.33228094299494 0.0 0.0
3.4826776866106552 0.0 0.0
3.6333450280856847 0.0 0.0
3.7840995593064 0.0 0.0
3.934787973281649 0.0 0.0
4.085147641882255 0.0 0.0
4.234798431228125 0.0 0.0
4.383231971729762 0.0 0.0
4.530380429306552 0.0 0.0
4.675296912705769 0.0 0.0
4.817197582257735 0.0 0.0
4.955195371991955 0.0 0.0
5.0881079204946476 0.0 0.0
5.21457632346922 0.0 0.0
5.333001957458214 0.0 0.0
5.4417425418058665 0.0 0.0
5.539309742309691 0.0 0.0
5.625079774585172 0.0 0.0
5.700488953125361 0.0 0.0
5.770446978997921 0.0 0.0
5.85950802151667 0.0 0.0
6.110223176380503 0.0 0.0
6.1393827606559945 0.0 0.0
6.1847640742257886 0.0 0.0
6.221564329549125 0.0 0.0
6.24339891081439 0.0 0.0
6.248081651527084 0.0 0.0
6.2350416565633155 0.0 0.0
6.206449018147114 0.0 0.0
6.1631887668249545 0.0 0.0
6.106556598960878 0.0 0.0
6.037801581054286 0.0 0.0
5.957866813572965 0.0 0.0
5.86787079296156 0.0 0.0
5.768498732736454 0.0 0.0
5.660423034097685 0.0 0.0
5.544178083832146 0.0 0.0
5.420204381658711 0.0 0.0
5.2888760296982555 0.0 0.0
5.150439474873431 0.0 0.0
5.005483878965162 0.0 0.0
4.854229005846243 0.0 0.0
4.696945212139378 0.0 0.0
4.5339658296453935 0.0 0.0
4.365608542451095 0.0 0.0
4.192230079225561 0.0 0.0
4.014231308288651 0.0 0.0
3.8320506464164263 0.0 0.0
3.646193044261848 0.0 0.0
3.4570868473566594 0.0 0.0
3.265378467906635 0.0 0.0
3.0717080552649985 0.0 0.0
2.8767808406817283 0.0 0.0
2.6813636370707283 0.0 0.0
2.486284553742191 0.0 0.0
2.292415805172191 0.0 0.0
2.1006832026436495 0.0 0.0
1.9120294829782842 0.0 0.0
1.7274095822780584 0.0 0.0
1.54778751121292 0.0 0.0
1.3740721271294605 0.0 0.0
1.2071316946774404 0.0 0.0
1.0477741654492119 0.0 0.0
0.8967346448828786 0.0 0.0
0.7546641084406418 0.0 0.0
0.6221160737026441 0.0 0.0
0.49952512771260127 0.0 0.0
0.3871620909431489 0.0 0.0
0.28502085082353346 0.0 0.0
0.1924511518848475 0.0 0.0
0.10647921407688253 0.0 0.0

SCALARS Gamma float
LOOKUP_TABLE default
0.4176074984621726
0.6418733556263976
0.8254222345898192
0.9905725836269096
1.1448258724798275
1.2914756151868363
1.4321423181574402
1.5676436215977714
1.6983627367470466
1.8244283853521108
1.945812790140973
2.0623912800613957
2.1739761276049965
2.2803426783665652
2.3813802319907733
2.4768532779669727
2.5666108603094244
2.6505384875527502
2.7285923192352906
2.8007880669087495
2.8671852411467444
2.9279330709400035
2.9831581318731826
3.0330211894342565
3.077622345681074
3.1174373881534247
3.152569311880873
3.183194400671293
3.209509451922471
3.231699051582656
3.249976956045434
3.2645072190224287
3.2754257270594795
3.2828880781076943
3.286955972693872
3.2876073833446613
3.2848357021362564
3.2786013836092573
3.2688007594004826
3.255129887331734
3.237353016653678
3.215096909384697
3.187946350870213
3.1554176953669204
3.117082728497685
3.0726682885614336
3.0223969239308257
2.967329919465474
2.910200700031834
2.858048390599905
2.8525114053534293
2.8931005489850805
2.9381542048008105
2.9809378715600428
3.018876610344096
3.0509369252606198
3.0767328522865034
3.0971680055822737
3.1125207526651115
3.123263769224229
3.12984488526081
3.1325914481759125
3.1318801302095367
3.1278843826042477
3.1207676618487876
3.1106159768250405
3.0974568921324286
3.0812638021519114
3.061952557817598
3.03958004908755
3.013999092430611
2.985089002328605
2.952707214951735
2.9167040913814954
2.876924061432951
2.833215177500997
2.7854248810359596
2.73342110794194
2.676986791251875
2.616036896974781
2.5504605380895495
2.48017584916425
2.40513356611637
2.325324394789824
2.2407724145865258
2.1515536494883483
2.0577718811987262
1.959562279752297
1.8570985382788445
1.7505262619569015
1.6399746846914165
1.5255247704309167
1.4071728659094362
1.284777352581736
1.157970620286508
1.0259979585562267
0.8873875123122185
0.7391742057404258
0.5746292445814557
0.3737608310942773
0.4176074984621726
0.6418733556263976
0.8254222345898192
0.9905725836269096
1.1448258724798275
1.2914756151868363
1.4321423181574402
1.5676436215977714
1.6983627367470466
1.8244283853521108
1.945812790140973
2.0623912800613957
2.1739761276049965
2.2803426783665652
2.3813802319907733
2.4768532779669727
2.5666108603094244
2.6505384875527502
2.7285923192352906
2.8007880669087495
2.8671852411467444
2.9279330709400035
2.9831581318731826
3.0330211894342565
3.077622345681074
3.1174373881534247
3.152569311880873
3.183194400671293
3.209509451922471
3.231699051582656
3.249976956045434
3.2645072190224287
3.2754257270594795
3.2828880781076943
3.286955972693872
3.2876073833446613
3.2848357021362564
3.2786013836092573
3.2688007594004826
3.255129887331734
3.237353016653678
3.215096909384697
3.187946350870213
3.1554176953669204
3.117082728497685
3.0726682885614336
3.0223969239308257
2.967329919465474
2.910200700031834
2.858048390599905
2.8525114053534293
2.8931005489850805
2.9381542048008105
2.9809378715600428
3.018876610344096
3.0509369252606198
3.0767328522865034
3.0971680055822737
3.1125207526651115
3.123263769224229
3.12984488526081
3.1325914481759125
3.1318801302095367
3.1278843826042477
3.1207676618487876
3.1106159768250405
3.0974568921324286
3.0812638021519114
3.061952557817598
3.03958004908755
3.013999092430611
2.985089002328605
2.952707214951735
2.9167040913814954
2.876924061432951
2.833215177500997
2.7854248810359596
2.73342110794194
2.676986791251875
2.616036896974781
2.5504605380895495
2.48017584916425
2.40513356611637
2.325324394789824