# vtk DataFile Version 4.0
[MyVLM domain - lattices] 
ASCII
DATASET UNSTRUCTURED_GRID
POINTS 302 float
0.03418245623128637 -5.607088332379215 2.738968920072608
0.034058156390445335 -5.612764652096388 2.7360153761498
0.03391102596659268 -5.619483561149367 2.7325193445677005
0.03374106495972839 -5.627245059538153 2.728480825326309
0.03354827336985249 -5.636049147262748 2.7238998184256267
0.03333265119696497 -5.645895824323148 2.7187763238656526
0.03309419844106583 -5.656785090719357 2.713110341646388
0.032832915102155066 -5.668716946451371 2.7069018717678315
0.03254880118023269 -5.681691391519194 2.7001509142299835
0.03224185667529869 -5.695708425922823 2.692857469032844
0.03191208158735307 -5.71076804966226 2.6850215361764134
0.031559475916395824 -5.726870262737504 2.676643115660692
0.03118403966242697 -5.744015065148554 2.667722207485679
0.030785772825446492 -5.762202456895412 2.6582588116513746
0.030364675405454393 -5.781432437978078 2.6482529281577785
0.029920747402450678 -5.80170500839655 2.6377045570048914
0.029453988816435336 -5.82302016815083 2.6266136981927124
0.02896439964740837 -5.845377917240917 2.614980351721243
0.028451979895369787 -5.868778255666811 2.6028045175904815
0.027916729560319594 -5.893221183428512 2.5900861958004286
0.027358648642257778 -5.91870670052602 2.576825386351085
0.026777737141184338 -5.945234806959335 2.56302208924245
0.026173995057099282 -5.972805502728457 2.5486763044745233
0.025547422390002603 -6.001418787833387 2.533788032047305
0.024898019139894305 -6.031074662274124 2.518357271960796
0.024225785306774387 -6.061773126050668 2.5023840242149955
0.023530720890642853 -6.093514179163019 2.4858682888099035
0.022812825891499695 -6.126297821611177 2.46881006574552
0.02207210030934492 -6.160124053395143 2.4512093550218452
0.02130854414417852 -6.194992874514916 2.4330661566388794
0.020522157396000502 -6.230904284970495 2.414380470596622
0.019712940064810867 -6.267858284761882 2.3951522968950734
0.018880892150609608 -6.305854873889076 2.3753816355342336
0.018026013653396733 -6.344894052352077 2.355068486514102
0.017148304573172235 -6.384975820150886 2.3342128498346795
0.016247764909936117 -6.426100177285501 2.3128147254959655
0.015324394663688382 -6.468267123755924 2.29087411349796
0.014378193834429027 -6.511476659562153 2.268391013840663
0.013409162422158054 -6.55572878470419 2.2453654265240752
0.012417300426875461 -6.601023499182034 2.221797351548196
0.011402607848581246 -6.647360802995687 2.197686788913025
0.01036508468727541 -6.694740696145143 2.173033738618563
0.009304730942957957 -6.743163178630409 2.14783820066481
0.008221546615628876 -6.792628250451483 2.1221001750517647
0.007115531705288182 -6.843135911608362 2.0958196617794287
0.005986686211935866 -6.894686162101049 2.068996660847801
0.004835010135571931 -6.9472790019295445 2.0416311722568823
0.0036605034761963756 -7.000914431093846 2.0137231960066724
0.0024631662338092074 -7.055592449593953 1.9852727320971713
0.0012429984084104135 -7.111313057429868 1.9562797805283783
0.0 -7.168076254601591 1.926744341300294
0.0012429984084104118 -7.19763311162668 1.9834963890726003
0.002463166233809203 -7.226647087604372 2.0392060522939865
0.0036605034761963756 -7.2551181825346625 2.0938733309644535
0.004835010135571928 -7.283046396417554 2.147498225084
0.00598668621193586 -7.310431729253044 2.2000807346526265
0.00711553170528817 -7.337274181041136 2.251620859670333
0.008221546615628865 -7.3635737517818285 2.30211860013712
0.009304730942957936 -7.3893304414751215 2.351573956052987
0.01036508468727539 -7.414544250121014 2.3999869274179337
0.011402607848581223 -7.4392151777195075 2.4473575142319612
0.012417300426875439 -7.4633432242706 2.4936857164950683
0.01340916242215803 -7.486928389774295 2.5389715342072554
0.014378193834429 -7.509970674230589 2.583214967368523
0.015324394663688356 -7.532470077639485 2.6264160159788705
0.01624776490993609 -7.55442660000098 2.668574680038298
0.017148304573172204 -7.575840241315075 2.7096909595468053
0.0180260136533967 -7.596711001581771 2.7497648545043933
0.018880892150609577 -7.617038880801068 2.788796364911061
0.019712940064810832 -7.636823878972964 2.826785490766809
0.02052215739600047 -7.656065996097461 2.863732232071637
0.021308544144178484 -7.674765232174559 2.899636588825545
0.022072100309344877 -7.692921587204257 2.9344985610285335
0.02281282589149965 -7.7105350611865555 2.968318148680601
0.023530720890642808 -7.727605654121454 3.00109535178175
0.024225785306774345 -7.744133366008954 3.032830170331978
0.024898019139894263 -7.760118196849053 3.0635226043312866
0.025547422390002558 -7.775560146641753 3.0931726537796753
0.026173995057099237 -7.790459215387054 3.121780318677144
0.026777737141184293 -7.804815403084954 3.149345599023693
0.027358648642257732 -7.818628709735455 3.175868494819322
0.027916729560319542 -7.831899135338555 3.2013490060640306
0.028451979895369742 -7.844626679894258 3.2257871327578194
0.028964399647408316 -7.856811343402562 3.249182874900688
0.029453988816435274 -7.8684531258634625 3.2715362324926374
0.02992074740245062 -7.879552027276967 3.2928472055336675
0.030364675405454337 -7.8901080476430705 3.3131157940237763
0.030785772825446433 -7.9001211869617745 3.332341997962966
0.031184039662426916 -7.9095914452330796 3.350525817351236
0.03155947591639577 -7.918518822456983 3.3676672521885855
0.031912081587353015 -7.926903318633488 3.3837663024750158
0.032241856675298636 -7.934744933762594 3.398822968210525
0.03254880118023264 -7.942043667844298 3.4128372493951145
0.03283291510215501 -7.948799520878606 3.4258091460287847
0.03309419844106577 -7.955012492865512 3.4377386581115355
0.03333265119696491 -7.960682583805019 3.4486257856433644
0.03354827336985243 -7.965809793697127 3.458470528624275
0.03374106495972833 -7.970394122541834 3.4672728870542664
0.033911025966592616 -7.974435570339143 3.4750328609333363
0.03405815639044528 -7.9779341370890515 3.4817504502614867
0.034182456231286316 -7.980889822791561 3.4874256550387175
0.047855438723800915 -5.457453461572733 3.213550098574756
0.04773113888295988 -5.463129781289906 3.2105965546519477
0.047584008459107215 -5.469848690342886 3.207100523069848
0.04741404745224293 -5.477610188731672 3.2030620038284567
0.047221255862367036 -5.486414276456266 3.198480996927774
0.04700563368947951 -5.496260953516667 3.1933575023678005
0.04676718093358037 -5.507150219912875 3.1876915201485354
0.04650589759466961 -5.51908207564489 3.181483050269979
0.046221783672747235 -5.532056520712713 3.174732092732131
0.045914839167813234 -5.546073555116342 3.1674386475349916
0.04558506407986761 -5.561133178855778 3.1596027146785612
0.045232458408910374 -5.577235391931023 3.15122429416284
0.044857022154941514 -5.594380194342073 3.1423033859878267
0.044458755317961035 -5.612567586088931 3.132839990153522
0.044037657897968936 -5.6317975671715965 3.1228341066599263
0.04359372989496522 -5.652070137590069 3.1122857355070392
0.04312697130894988 -5.673385297344349 3.1011948766948603
0.042637382139922915 -5.695743046434435 3.0895615302233903
0.04212496238788434 -5.719143384860329 3.0773856960926294
0.04158971205283414 -5.74358631262203 3.0646673743025765
0.04103163113477232 -5.769071829719538 3.0514065648532327
0.040450719633698874 -5.795599936152854 3.0376032677445974
0.03984697754961382 -5.823170631921976 3.023257482976671
0.03922040488251714 -5.851783917026906 3.008369210549453
0.03857100163240885 -5.881439791467643 2.992938450462944
0.03789876779928893 -5.912138255244186 2.976965202717143
0.03720370338315739 -5.9438793083565375 2.960449467312051
0.03648580838401424 -5.9766629508046965 2.943391244247668
0.03574508280185946 -6.010489182588661 2.925790533523993
0.034981526636693065 -6.045358003708434 2.9076473351410272
0.034195139888515046 -6.081269414164014 2.8889616490987695
0.03338592255732541 -6.1182234139554 2.8697334753972212
0.03255387464312415 -6.156220003082595 2.849962814036381
0.031698996145911276 -6.1952591815455955 2.82964966501625
0.030821287065686775 -6.235340949344404 2.808794028336827
0.02992074740245066 -6.27646530647902 2.787395903998113
0.02899737715620293 -6.318632252949442 2.765455292000108
0.028051176326943563 -6.361841788755672 2.742972192342811
0.027082144914672597 -6.406093913897709 2.719946605026223
0.026090282919390004 -6.451388628375553 2.696378530050344
0.02507559034109579 -6.497725932189204 2.672267967415173
0.024038067179789954 -6.545105825338663 2.647614917120711
0.0229777134354725 -6.593528307823928 2.622419379166957
0.021894529108143417 -6.6429933796450005 2.5966813535539126
0.020788514197802727 -6.6935010408018805 2.5704008402815766
0.01965966870445041 -6.745051291294568 2.543577839349949
0.018507992628086473 -6.797644131123061 2.51621235075903
0.01733348596871092 -6.851279560287363 2.48830437450882
0.01613614872632375 -6.905957578787471 2.4598539105993185
0.014915980900924958 -6.961678186623387 2.430860959030526
0.013672982492514541 -7.01844138379511 2.401325519802442
0.014915980900924952 -7.0479982408202 2.458077567574748
0.016136148726323744 -7.07701221679789 2.5137872307961344
0.017333485968710916 -7.105483311728181 2.568454509466601
0.018507992628086473 -7.133411525611072 2.6220794035861474
0.0196596687044504 -7.160796858446563 2.6746619131547744
0.020788514197802713 -7.187639310234654 2.726202038172481
0.021894529108143407 -7.213938880975347 2.7766997786392675
0.02297771343547248 -7.239695570668638 2.8261551345551346
0.02403806717978993 -7.264909379314533 2.8745681059200816
0.025075590341095768 -7.289580306913026 2.9219386927341087
0.02609028291938998 -7.3137083534641185 2.9682668949972157
0.027082144914672573 -7.3372935189678135 3.0135527127094033
0.028051176326943535 -7.360335803424109 3.0577961458706704
0.0289973771562029 -7.382835206833001 3.100997194481018
0.029920747402450633 -7.404791729194498 3.143155858540445
0.030821287065686747 -7.426205370508593 3.1842721380489527
0.03169899614591125 -7.447076130775289 3.224346033006541
0.03255387464312413 -7.467404009994587 3.2633775434132093
[...]
CELL_DATA 200

VECTORS Vinf float
5.232950037937557 22.32609873074195 35.90924413556382
5.218832435699109 22.305334932559994 35.9529079629626
5.20259518439202 22.28110376057265 36.003864717864886
5.184377525585109 22.253416975746024 36.06208740155788
5.164350980131003 22.222287734497517 36.12754370242309
5.14272192593651 22.18773030989449 36.20019584284606
5.119733042868302 22.149759698243404 36.28000065511985
5.0956631958820795 22.108391102599743 36.366909949238334
5.070825389038356 22.063639296427105 36.46087121934756
5.045571517259113 22.016091221134626 36.561699640939494
5.018768749575471 21.96473600720384 36.6696978118284
4.991783755925559 21.90997841848091 36.78468277987375
4.964944387711591 21.85181250171013 36.90661440219581
4.939078592386134 21.788841073034884 37.03584548964376
4.91468690365673 21.724316194164658 37.17103591223802
4.8914615672539155 21.656491628144256 37.3129583717115
4.869605195863647 21.585359876169925 37.46159080624769
4.849273976841753 21.510909650323022 37.61692000077371
4.830576891492653 21.4331266295319 37.778941171786066
4.813578265226487 21.351994391334436 37.94765698346099
4.798303109551688 21.26749541240921 38.12307613938567
4.784744386974344 21.179612025565287 38.305211742378226
4.771231795198331 21.085728903328494 38.49601349878122
4.761829775233064 20.991887162644176 38.69097804247765
4.753686103778935 20.894395888366965 38.89289612049793
4.7468673544281925 20.79321043486517 39.10178730953223
4.741435871947672 20.688285707861674 39.3176718591895
4.737456201347592 20.579576338500807 39.54056974592671
4.735000975180757 20.46703667117147 39.770499928085655
4.734155410875693 20.35062057694747 40.00747989857185
4.732890371489482 20.23433885858012 40.24910744525416
4.733886571256438 20.111659046540424 40.49929446205774
4.7365897985116 19.98575866421014 40.75619572945933
4.740770511474052 19.856361867189147 41.01992193828483
4.746509538914241 19.723463692256253 41.29046719920779
4.753904082701643 19.587058709669968 41.567824610273924
4.763041402930285 19.446564550698888 41.85237688431201
4.77438182171588 19.303264226682806 42.14321059624121
4.787504086913088 19.156207843357787 42.441006452103885
4.802356011818168 19.005358537382968 42.74579699116806
4.818729085858896 18.85067898958493 43.05763325887464
4.836200659073397 18.69213191114036 43.37658999884952
4.854304974512542 18.533428740424625 43.70041879762207
4.872482366102231 18.368696929070847 44.03282617805234
4.889332462342139 18.200396391305627 44.37243820734738
4.903734387683872 18.028537515137156 44.71937012770989
4.91480261423979 17.85314432470464 45.07370391655064
4.924256735285017 17.674193213310197 45.43489898991061
4.9278313331693635 17.49174383946025 45.804194921129806
4.928820961911662 17.30591018826528 46.180728273636525
4.930316188292086 17.401970083185034 46.46441613148463
4.9327995290079425 17.778031396346613 46.65003969550546
4.9331074524209475 18.147120599190814 46.832448677235995
4.930119284027902 18.509347544195744 47.01172473115123
4.917132215813193 18.866933699948778 47.18771051085096
4.905508715954498 19.216160301622303 47.360599882764824
4.891225606791708 19.558650851716052 47.53023626883135
4.8754705662855455 19.894346838856002 47.696514268504096
4.859390106826807 20.223178051153926 47.859335638787094
4.844048813005474 20.545148760952397 48.01862464459784
4.8299018098459445 20.859861221612277 48.17442977297393
4.817041137730383 21.167761074566627 48.32653367364903
4.805583044023801 21.46881092339204 48.474941806168076
4.7955018978504595 21.762985094349887 48.61967160754907
4.787330353637342 22.049473182650335 48.76114885715972
4.7802068795970865 22.3303969253656 48.89843908170273
4.77465856811178 22.602675717221597 49.03281860889315
4.770233548193454 22.86824427784383 49.16346717406194
4.766845429455275 23.12707843977899 49.29041176128115
4.764429879169317 23.379153412891668 49.413676845727785
4.76293951585645 23.62444389231774 49.533284861364045
4.762333745619078 23.862924676885577 49.64925696696009
4.760859256200175 24.092205866576606 49.76311861509483
4.7620531467356315 24.315298417161262 49.8728517914698
4.764292121212141 24.531534773265356 49.97895353979082
4.767604338535226 24.74089346021546 50.08143568917447
4.772031192242677 24.94335227572827 50.18030895722842
4.777622104913399 25.138888596924545 50.275583331553676
4.786985984354514 25.326558350692665 50.3674296931798
4.796538007524512 25.5077173835277 50.45563977269962
4.8078854300952045 25.68176703609205 50.540298761621024
4.821110969822188 25.8486960011029 50.62140588550151
4.836257853284295 26.008495295539372 50.69896295770212
4.8533174837768716 26.161159335613288 50.77297498614725
4.872219922727745 26.30668686734544 50.843450581118795
4.892828748523422 26.445081618912862 50.9104020861223
4.914637043333976 26.576138455548787 50.97400206059016
4.9379270008843035 26.700353066866533 51.033933694580725
4.9621788018506345 26.81746618288678 51.09039826514092
4.987027030915597 26.927502660200314 51.143418957532774
5.012502314942092 27.030543656561637 51.19294434708555
5.037409819106908 27.12648439382939 51.23916264180606
5.061795949078228 27.21543462401071 51.28200204730517
5.085324815724852 27.29742032030568 51.32148159009772
5.107693679239832 27.37246588118581 51.35761783694542
5.129517517302584 27.44196611320034 51.389385185183315
5.148751093287245 27.50318011062737 51.41889983399566
5.166162327084944 27.55751347584848 51.44510297114108
5.181607665418244 27.604980757723034 51.46800064567074
5.194977287813068 27.64559386055104 51.487597035720725
5.232950037937557 22.32609873074195 35.90924413556382
5.218832435699109 22.305334932559994 35.9529079629626
5.20259518439202 22.28110376057265 36.003864717864886
5.184377525585109 22.253416975746024 36.06208740155788
5.164350980131003 22.222287734497517 36.12754370242309
5.14272192593651 22.18773030989449 36.20019584284606
5.119733042868302 22.149759698243404 36.28000065511985
5.0956631958820795 22.108391102599743 36.366909949238334
5.070825389038356 22.063639296427105 36.46087121934756
5.045571517259113 22.016091221134626 36.561699640939494
5.018768749575471 21.96473600720384 36.6696978118284
4.991783755925559 21.90997841848091 36.78468277987375
4.964944387711591 21.85181250171013 36.90661440219581
4.939078592386134 21.788841073034884 37.03584548964376
4.91468690365673 21.724316194164658 37.17103591223802
4.8914615672539155 21.656491628144256 37.3129583717115
4.869605195863647 21.585359876169925 37.46159080624769
4.849273976841753 21.510909650323022 37.61692000077371
4.830576891492653 21.4331266295319 37.778941171786066
4.813578265226487 21.351994391334436 37.94765698346099
4.798303109551688 21.26749541240921 38.12307613938567
4.784744386974344 21.179612025565287 38.305211742378226
4.771231795198331 21.085728903328494 38.49601349878122
4.761829775233064 20.991887162644176 38.69097804247765
4.753686103778935 20.894395888366965 38.89289612049793
4.7468673544281925 20.79321043486517 39.10178730953223
4.741435871947672 20.688285707861674 39.3176718591895
4.737456201347592 20.579576338500807 39.54056974592671
4.735000975180757 20.46703667117147 39.770499928085655
4.734155410875693 20.35062057694747 40.00747989857185
4.732890371489482 20.23433885858012 40.24910744525416
4.733886571256438 20.111659046540424 40.49929446205774
4.7365897985116 19.98575866421014 40.75619572945933
4.740770511474052 19.856361867189147 41.01992193828483
4.746509538914241 19.723463692256253 41.29046719920779
4.753904082701643 19.587058709669968 41.567824610273924
4.763041402930285 19.446564550698888 41.85237688431201
4.77438182171588 19.303264226682806 42.14321059624121
4.787504086913088 19.156207843357787 42.441006452103885
4.802356011818168 19.005358537382968 42.74579699116806
4.818729085858896 18.85067898958493 43.05763325887464
4.836200659073397 18.69213191114036 43.37658999884952
4.854304974512542 18.533428740424625 43.70041879762207
4.872482366102231 18.368696929070847 44.03282617805234
4.889332462342139 18.200396391305627 44.37243820734738
4.903734387683872 18.028537515137156 44.71937012770989
4.91480261423979 17.85314432470464 45.07370391655064
4.924256735285017 17.674193213310197 45.43489898991061
4.9278313331693635 17.49174383946025 45.804194921129806
4.928820961911662 17.30591018826528 46.180728273636525
4.930316188292086 17.401970083185034 46.46441613148463
4.9327995290079425 17.778031396346613 46.65003969550546
4.9331074524209475 18.147120599190814 46.832448677235995
4.930119284027902 18.509347544195744 47.01172473115123
4.917132215813193 18.866933699948778 47.18771051085096
4.905508715954498 19.216160301622303 47.360599882764824
4.891225606791708 19.558650851716052 47.53023626883135
4.8754705662855455 19.894346838856002 47.696514268504096
4.859390106826807 20.223178051153926 47.859335638787094
4.844048813005474 20.545148760952397 48.01862464459784
4.8299018098459445 20.859861221612277 48.17442977297393
4.817041137730383 21.167761074566627 48.32653367364903
4.805583044023801 21.46881092339204 48.474941806168076
4.7955018978504595 21.762985094349887 48.61967160754907
4.787330353637342 22.049473182650335 48.76114885715972
4.7802068795970865 22.3303969253656 48.89843908170273
4.77465856811178 22.602675717221597 49.03281860889315
4.770233548193454 22.86824427784383 49.16346717406194
4.766845429455275 23.12707843977899 49.29041176128115
4.764429879169317 23.379153412891668 49.413676845727785
4.76293951585645 23.62444389231774 49.533284861364045
4.762333745619078 23.862924676885577 49.64925696696009
4.760859256200175 24.092205866576606 49.76311861509483
4.7620531467356315 24.315298417161262 49.8728517914698
4.764292121212141 24.531534773265356 49.97895353979082
4.767604338535226 24.74089346021546 50.08143568917447
4.772031192242677 24.94335227572827 50.18030895722842
4.777622104913399 25.138888596924545 50.275583331553676
4.786985984354514 25.326558350692665 50.3674296931798
4.796538007524512 25.5077173835277 50.45563977269962
4.8078854300952045 25.68176703609205 50.540298761621024
4.821110969822188 25.8486960011029 50.62140588550151
4.836257853284295 26.008495295539372 50.69896295770212
4.8533174837768716 26.161159335613288 50.77297498614725
4.872219922727745 26.30668686734544 50.843450581118795
4.892828748523422 26.445081618912862 50.9104020861223
4.914637043333976 26.576138455548787 50.97400206059016
4.9379270008843035 26.700353066866533 51.033933694580725
4.9621788018506345 26.81746618288678 51.09039826514092
4.987027030915597 26.927502660200314 51.143418957532774
5.012502314942092 27.030543656561637 51.19294434708555
5.037409819106908 27.12648439382939 51.23916264180606
5.061795949078228 27.21543462401071 51.28200204730517
5.085324815724852 27.29742032030568 51.32148159009772
5.107693679239832 27.37246588118581 51.35761783694542
5.129517517302584 27.44196611320034 51.389385185183315
5.148751093287245 27.50318011062737 51.41889983399566
5.166162327084944 27.55751347584848 51.44510297114108
5.181607665418244 27.604980757723034 51.46800064567074
5.194977287813068 27.64559386055104 51.487597035720725

VECTORS L float
0.058587430149370574 0.0 0.0
0.10593648663069964 0.0 0.0
0.15729647538542793 0.0 0.0
0.21439552716622623 0.0 0.0
0.27772657091239494 0.0 0.0
0.347448459729069 0.0 0.0
0.42358211395697065 0.0 0.0
0.5060673806669814 0.0 0.0
0.5947849349517604 0.0 0.0
0.6895664355832156 0.0 0.0
0.7901841340152957 0.0 0.0
0.8963878984521275 0.0 0.0
1.007880268428314 0.0 0.0
1.1243346678530965 0.0 0.0
1.2453968571001828 0.0 0.0
1.37068900962183 0.0 0.0
1.499829196346774 0.0 0.0
1.6324400000332187 0.0 0.0
1.7681569937114403 0.0 0.0
1.906634570858819 0.0 0.0
2.0475469720690134 0.0 0.0
2.190591551084291 0.0 0.0
2.3355237277285616 0.0 0.0
2.482140802997473 0.0 0.0
2.6301815152002552 0.0 0.0
2.7794376215936247 0.0 0.0
2.9297263882892546 0.0 0.0
3.08088181770554 0.0 0.0
3.2327474568351757 0.0 0.0
3.3851420734743143 0.0 0.0
3.537910545873217 0.0 0.0
3.6909095661836977 0.0 0.0
3.844028854802149 0.0 0.0
3.9970409060301675 0.0 0.0
4.149695073707979 0.0 0.0
4.301683087406688 0.0 0.0
4.45262725739951 0.0 0.0
4.602049028026957 0.0 0.0
4.749301896527268 0.0 0.0
4.893584238993554 0.0 0.0
5.033898672498605 0.0 0.0
5.169023423711265 0.0 0.0
5.297550728588874 0.0 0.0
5.417872269999055 0.0 0.0
5.528308401789478 0.0 0.0
5.627443146274677 0.0 0.0
5.714512803629152 0.0 0.0
5.790969430847962 0.0 0.0
5.861930768820158 0.0 0.0
5.952289098811242 0.0 0.0
6.214476752803745 0.0 0.0
6.243378808569845 0.0 0.0
6.288807455872255 0.0 0.0
6.325408216609758 0.0 0.0
6.346363089273149 0.0 0.0
6.350493665948161 0.0 0.0
6.3374957965552925 0.0 0.0
6.308231479076435 0.0 0.0
6.264200621815135 0.0 0.0
6.20635237714377 0.0 0.0
6.1361251724457375 0.0 0.0
6.054616317518631 0.0 0.0
5.962787779279467 0.0 0.0
5.8614437211787545 0.0 0.0
5.751275592463212 0.0 0.0
5.632799817145973 0.0 0.0
5.506507390269152 0.0 0.0
5.372781456242072 0.0 0.0
5.231968865276104 0.0 0.0
5.084396272555535 0.0 0.0
4.930374322969224 0.0 0.0
4.770216911864374 0.0 0.0
4.604135540468571 0.0 0.0
4.432713630884277 0.0 0.0
4.256227551026634 0.0 0.0
4.075079053895527 0.0 0.0
3.8897282852542316 0.0 0.0
3.700678646655332 0.0 0.0
3.508565061590187 0.0 0.0
3.313780430346877 0.0 0.0
3.1170326007490514 0.0 0.0
2.919043560231878 0.0 0.0
2.720590836728248 0.0 0.0
2.5225095689203854 0.0 0.0
2.3256878347768017 0.0 0.0
2.1310563843209156 0.0 0.0
1.9395740759611202 0.0 0.0
1.7522181059851625 0.0 0.0
1.5699461847950016 0.0 0.0
1.3936881216525094 0.0 0.0
1.2243181171374398 0.0 0.0
1.062650510301094 0.0 0.0
0.9094326185348475 0.0 0.0
0.7653235991754208 0.0 0.0
0.6308834542841595 0.0 0.0
0.5065528729356455 0.0 0.0
0.3925980802498292 0.0 0.0
0.28901384748733805 0.0 0.0
0.19514029974252228 0.0 0.0
0.10796138453068475 0.0 0.0
0.058587430149370574 0.0 0.0
0.10593648663069964 0.0 0.0
0.15729647538542793 0.0 0.0
0.21439552716622623 0.0 0.0
0.27772657091239494 0.0 0.0
0.347448459729069 0.0 0.0
0.42358211395697065 0.0 0.0
0.5060673806669814 0.0 0.0
0.5947849349517604 0.0 0.0
0.6895664355832156 0.0 0.0
0.7901841340152957 0.0 0.0
0.8963878984521275 0.0 0.0
1.007880268428314 0.0 0.0
1.1243346678530965 0.0 0.0
1.2453968571001828 0.0 0.0
1.37068900962183 0.0 0.0
1.499829196346774 0.0 0.0
1.6324400000332187 0.0 0.0
1.7681569937114403 0.0 0.0
1.906634570858819 0.0 0.0
2.0475469720690134 0.0 0.0
2.190591551084291 0.0 0.0
2.3355237277285616 0.0 0.0
2.482140802997473 0.0 0.0
2.6301815152002552 0.0 0.0
2.7794376215936247 0.0 0.0
2.9297263882892546 0.0 0.0
3.08088181770554 0.0 0.0
3.2327474568351757 0.0 0.0
3.3851420734743143 0.0 0.0
3.537910545873217 0.0 0.0
3.6909095661836977 0.0 0.0
3.844028854802149 0.0 0.0
3.9970409060301675 0.0 0.0
4.149695073707979 0.0 0.0
4.301683087406688 0.0 0.0
4.45262725739951 0.0 0.0
4.602049028026957 0.0 0.0
4.749301896527268 0.0 0.0
4.893584238993554 0.0 0.0
5.033898672498605 0.0 0.0
5.169023423711265 0.0 0.0
5.297550728588874 0.0 0.0
5.417872269999055 0.0 0.0
5.528308401789478 0.0 0.0
5.627443146274677 0.0 0.0
5.714512803629152 0.0 0.0
5.790969430847962 0.0 0.0
5.861930768820158 0.0 0.0
5.952289098811242 0.0 0.0
6.214476752803745 0.0 0.0
6.243378808569845 0.0 0.0
6.288807455872255 0.0 0.0
6.325408216609758 0.0 0.0
6.346363089273149 0.0 0.0
6.350493665948161 0.0 0.0
6.3374957965552925 0.0 0.0
6.308231479076435 0.0 0.0
6.264200621815135 0.0 0.0
6.20635237714377 0.0 0.0
6.1361251724457375 0.0 0.0
6.054616317518631 0.0 0.0
5.962787779279467 0.0 0.0
5.8614437211787545 0.0 0.0
5.751275592463212 0.0 0.0
5.632799817145973 0.0 0.0
5.506507390269152 0.0 0.0
5.372781456242072 0.0 0.0
5.231968865276104 0.0 0.0
5.084396272555535 0.0 0.0
4.930374322969224 0.0 0.0
4.770216911864374 0.0 0.0
4.604135540468571 0.0 0.0
4.432713630884277 0.0 0.0
4.256227551026634 0.0 0.0
4.075079053895527 0.0 0.0
3.8897282852542316 0.0 0.0
3.700678646655332 0.0 0.0
3.508565061590187 0.0 0.0
3.313780430346877 0.0 0.0
3.1170326007490514 0.0 0.0
2.919043560231878 0.0 0.0
2.720590836728248 0.0 0.0
2.5225095689203854 0.0 0.0
2.3256878347768017 0.0 0.0
2.1310563843209156 0.0 0.0
1.9395740759611202 0.0 0.0
1.7522181059851625 0.0 0.0
1.5699461847950016 0.0 0.0
1.3936881216525094 0.0 0.0
1.2243181171374398 0.0 0.0
1.062650510301094 0.0 0.0
0.9094326185348475 0.0 0.0
0.7653235991754208 0.0 0.0
0.6308834542841595 0.0 0.0
0.5065528729356455 0.0 0.0
0.3925980802498292 0.0 0.0
0.28901384748733805 0.0 0.0
0.19514029974252228 0.0 0.0
0.10796138453068475 0.0 0.0

SCALARS Gamma float
LOOKUP_TABLE default
0.42400571780423835
0.6517133085227376
0.838082798689064
1.0057826698813286
1.1624284060790493
1.3113637900227335
1.4542379153512508
1.5918797689323312
1.7246755371103466
1.8527554791039427
1.9760596665901535
2.0944850827318864
2.207850628615844
2.3159602189889257
2.418614260461279
2.515622711155216
2.606839725342547
2.6921704083838076
2.7715747820812067
2.8450661156801793
2.912702548792791
2.974583716704888
3.030886412510668
3.0818279610679973
3.1275436869982056
3.1682264059686083
3.204085992669305
3.2353365962316287
3.26218788601926
3.2848133913995747
3.3034027403038544
3.318145781547832
3.3292484800454134
3.3368074316821827
3.340901882515427
3.341570334140226
3.338808481591063
3.33255388111146
3.322650158417715
3.308871787891517
3.2909109378083947
3.268375485175642
3.2408284972108325
3.2077904276555356
3.1688217295357384
3.123699173898024
3.072621836262386
3.016703241152854
2.9585354642748847
2.905328728901617
2.8994934370147423
2.94049485405935
2.9859566110513094
3.02904985035559
3.067008284577316
3.099280704024893
3.1256205442467424
3.146297377275899
3.161762171958424
3.1725290202660097
3.1790423961255803
3.181679388463824
3.1807510866249866
3.176488181110833
3.1690611268688698
3.1585425359673773
3.144983882263495
3.12836769200966
3.108643132559851
3.0857328445949457
3.0595329204053647
3.029908610629276
2.996698846614858
2.9598468330752934
2.9191766265103327
2.874523171463773
2.825742058802477
2.7726934039589697
2.7153094899976926
2.653313686949779
2.5866356509155795
2.515198660743284
2.4389538482109043
2.357888875877831
2.27203262916545
2.181455866636104
2.0862677902763966
1.9866170715934315
1.8826604177489237
1.7745562389209435
1.6624302536914701
1.5463595611983867
1.4263446155436776
1.302242837012238
1.1736823911328211
1.0399020736704065
0.8993966167699918
0.7491640937050914
0.5823857652690481
0.3788005162255951
0.42400571780423835
0.6517133085227376
0.838082798689064
1.0057826698813286
1.1624284060790493
1.3113637900227335
1.4542379153512508
1.5918797689323312
1.7246755371103466
1.8527554791039427
1.9760596665901535
2.0944850827318864
2.207850628615844
2.3159602189889257
2.418614260461279
2.515622711155216
2.606839725342547
2.6921704083838076
2.7715747820812067
2.8450661156801793
2.912702548792791
2.974583716704888
3.030886412510668
3.0818279610679973
3.1275436869982056
3.1682264059686083
3.204085992669305
3.2353365962316287
3.26218788601926
3.2848133913995747
3.3034027403038544
3.318145781547832
3.3292484800454134
3.3368074316821827
3.340901882515427
3.341570334140226
3.338808481591063
3.33255388111146
3.322650158417715
3.308871787891517
3.2909109378083947
3.268375485175642
3.2408284972108325
3.2077904276555356
3.1688217295357384
3.123699173898024
3.072621836262386
3.016703241152854
2.9585354642748847
2.905328728901617
2.8994934370147423
2.94049485405935
2.9859566110513094
3.02904985035559
3.067008284577316
3.099280704024893
3.1256205442467424
3.146297377275899
3.161762171958424
3.1725290202660097
3.1790423961255803
3.181679388463824
3.1807510866249866
3.176488181110833
3.1690611268688698
3.1585425359673773
3.144983882263495
3.12836769200966
3.108643132559851
3.0857328445949457
3.0595329204053647
3.029908610629276
2.996698846614858
2.9598468330752934
2.9191766265103327
2.874523171463773
2.825742058802477
2.7726934039589697
2.7153094899976926
2.653313686949779
2.5866356509155795
2.515198660743284
2.4389538482109043
2.357888875877831
2.27203262916545
2.181455866636104
2.0862677902763966
1.9866170715934315
1.8826604177489237
1.7745562389209435
1.6624302536914701
1.5463595611983867
1.4263446155436776
1.302242837012238
1.1736823911328211
1.0399020736704065