# vtk DataFile Version 4.0
[MyVLM domain - lattices] 
ASCII
DATASET UNSTRUCTURED_GRID
POINTS 302 float
0.03418245623128649 -1.1107044950325453 6.052986198296964
0.03405815639044545 -1.1165032234719383 6.055691521886055
0.03391102596659279 -1.123367024481832 6.058893741644571
0.033741064959728506 -1.131295898062227 6.062592857572511
0.03354827336985261 -1.1402898442131222 6.066788869669876
0.03333265119696508 -1.1503488629345184 6.0714817779366665
0.033094198441065946 -1.1614729542264153 6.076671582372882
0.032832915102155184 -1.1736621180888132 6.082358282978522
0.0325488011802328 -1.1869163545217114 6.088541879753586
0.032241856675298795 -1.201235663525111 6.095222372698076
0.031912081587353175 -1.216620045099011 6.10239976181199
0.031559475916395935 -1.233069499243412 6.110074047095329
0.03118403966242708 -1.2505840259583132 6.118245228548093
0.0307857728254466 -1.2691636252437155 6.126913306170282
0.030364675405454497 -1.2888082970996186 6.136078279961896
0.02992074740245078 -1.3095180415260224 6.1457401499229345
0.02945398881643543 -1.3312928585229271 6.155898916053398
0.02896439964740847 -1.3541327480903327 6.166554578353286
0.02845197989536989 -1.3780377102282388 6.177707136822599
0.027916729560319688 -1.4030077449366458 6.189356591461337
0.02735864864225787 -1.4290428522155536 6.201502942269499
0.026777737141184428 -1.4561430320649622 6.214146189247088
0.026173995057099372 -1.4843082844848714 6.2272863323941
0.025547422390002687 -1.5135386094752814 6.2409233717105375
0.02489801913989439 -1.5438340070361922 6.255057307196399
0.024225785306774474 -1.5751944771676039 6.269688138851686
0.023530720890642932 -1.607620019869516 6.284815866676398
0.02281282589149977 -1.6411106351419296 6.3004404906705345
0.02207210030934499 -1.6756663229848432 6.3165620108340965
0.02130854414417859 -1.7112870833982579 6.333180427167083
0.020522157396000572 -1.7479729163821733 6.350295739669494
0.019712940064810933 -1.7857238219365896 6.36790794834133
0.01888089215060967 -1.8245398000615067 6.386017053182591
0.018026013653396795 -1.8644208507569244 6.4046230541932765
0.017148304573172294 -1.905366974022843 6.423725951373387
0.016247764909936176 -1.9473781698592623 6.443325744722922
0.015324394663688432 -1.9904544382661824 6.463422434241883
0.014378193834429077 -2.0345957792436034 6.484016019930268
0.013409162422158099 -2.079802192791525 6.505106501788077
0.012417300426875503 -2.126073678909947 6.526693879815312
0.011402607848581284 -2.17341023759887 6.548778154011971
0.010365084687275445 -2.221811868858294 6.571359324378056
0.009304730942957987 -2.2712785726882188 6.594437390913566
0.008221546615628905 -2.3218103490886444 6.6180123536185
0.007115531705288208 -2.373407198059571 6.6420842124928585
0.005986686211935887 -2.4260691196009976 6.666652967536643
0.004835010135571948 -2.4797961137129256 6.69171861874985
0.003660503476196388 -2.534588180395354 6.7172811661324845
0.002463166233809216 -2.5904453196482833 6.743340609684543
0.0012429984084104176 -2.6473675314717133 6.769896949406026
0.0 -2.705354815865644 6.796950185296933
0.0012429984084104124 -2.678323463716717 6.85494767424734
0.0024631662338092048 -2.651788605790933 6.911879903196615
0.0036605034761963773 -2.6257502420882926 6.967746872144761
0.00483501013557193 -2.600208372608796 7.022548581091777
0.005986686211935864 -2.575162997352443 7.0762850300376625
0.007115531705288175 -2.5506141163192333 7.12895621898242
0.008221546615628869 -2.5265617295091674 7.180562147926045
0.009304730942957943 -2.5030058369222448 7.231102816868541
0.010365084687275396 -2.479946438558466 7.280578225809909
0.011402607848581232 -2.457383534417831 7.328988374750145
0.012417300426875446 -2.435317124500339 7.37633326368925
0.013409162422158038 -2.413747208805991 7.422612892627227
0.014378193834429013 -2.392673787334786 7.467827261564074
0.015324394663688368 -2.3720968600867254 7.511976370499791
0.0162477649099361 -2.352016427061808 7.555060219434378
0.017148304573172214 -2.332432488260034 7.597078808367836
0.018026013653396712 -2.3133450436814034 7.638032137300162
0.01888089215060959 -2.2947540933259165 7.67792020623136
0.019712940064810846 -2.2766596371935734 7.716743015161427
0.020522157396000485 -2.2590616752843737 7.754500564090365
0.021308544144178494 -2.241960207598318 7.791192853018171
0.022072100309344894 -2.225355234135405 7.826819881944851
0.022812825891499664 -2.209246754895636 7.861381650870398
0.023530720890642825 -2.1936347698790106 7.894878159794816
0.02422578530677436 -2.178519279085529 7.927309408718104
0.02489801913989428 -2.1639002825151907 7.9586753976402616
0.025547422390002576 -2.149777780167996 7.9889761265612895
0.026173995057099254 -2.1361517720439447 8.018211595481189
0.026777737141184314 -2.1230222581430374 8.046381804399957
0.02735864864225775 -2.110389238465273 8.073486753317596
0.027916729560319566 -2.0982527130106527 8.099526442234104
0.02845197989536976 -2.086612681779176 8.124500871149483
0.02896439964740834 -2.0754691447708424 8.148410040063732
0.029453988816435295 -2.0648221019856527 8.171253948976851
0.029920747402450643 -2.0546715534236064 8.19303259788884
0.030364675405454362 -2.045017499084704 8.2137459867997
0.03078577282544645 -2.0358599389689447 8.233394115709428
0.031184039662426943 -2.0271988730763293 8.251976984618027
0.031559475916395796 -2.0190343014068572 8.269494593525497
0.03191208158735304 -2.011366223960529 8.285946942431837
0.03224185667529866 -2.004194640737344 8.301334031337046
0.03254880118023265 -1.9975195517373028 8.315655860241126
0.03283291510215503 -1.9913409569604053 8.328912429144076
0.03309419844106579 -1.985658856406651 8.341103738045895
0.03333265119696492 -1.9804732500760407 8.352229786946586
0.03354827336985245 -1.9757841379685737 8.362290575846146
0.033741064959728354 -1.9715915200842502 8.371286104744575
0.03391102596659264 -1.96789539642307 8.379216373641876
0.0340581563904453 -1.9646957669850338 8.386081382538046
0.03418245623128634 -1.961992631770141 8.391881131433088
0.04785543872380106 -0.6431019940468246 6.223179590124201
0.047731138882960024 -0.6489007224862178 6.2258849137132914
0.04758400845910736 -0.6557645234961118 6.229087133471807
0.04741404745224308 -0.6636933970765062 6.232786249399748
0.047221255862367174 -0.6726873432274019 6.236982261497113
0.04700563368947965 -0.6827463619487979 6.241675169763903
0.04676718093358052 -0.6938704532406947 6.246864974200118
0.046505897594669755 -0.7060596171030926 6.252551674805758
0.046221783672747374 -0.7193138535359909 6.258735271580822
0.045914839167813366 -0.7336331625393904 6.265415764525312
0.045585064079867746 -0.7490175441132905 6.272593153639226
0.045232458408910506 -0.7654669982576912 6.280267438922566
0.044857022154941646 -0.7829815249725927 6.28843862037533
0.04445875531796117 -0.801561124257995 6.297106697997519
0.04403765789796907 -0.8212057961138981 6.3062716717891325
0.04359372989496535 -0.8419155405403018 6.315933541750171
0.043126971308950005 -0.8636903575372066 6.326092307880635
0.04263738213992303 -0.8865302471046124 6.3367479701805225
0.042124962387884456 -0.9104352092425185 6.347900528649836
0.04158971205283426 -0.9354052439509254 6.359549983288574
0.04103163113477244 -0.961440351229833 6.371696334096737
0.040450719633699 -0.9885405310792418 6.384339581074324
0.03984697754961394 -1.0167057834991509 6.397479724221337
0.039220404882517254 -1.045936108489561 6.411116763537774
0.03857100163240896 -1.0762315060504717 6.4252506990236355
0.03789876779928904 -1.1075919761818833 6.439881530678923
0.0372037033831575 -1.1400175188837955 6.455009258503635
0.036485808384014336 -1.1735081341562088 6.470633882497771
0.035745082801859555 -1.2080638219991229 6.486755402661333
0.03498152663669316 -1.2436845824125373 6.50337381899432
0.03419513988851514 -1.2803704153964528 6.52048913149673
0.033385922557325504 -1.318121320950869 6.538101340168566
0.03255387464312424 -1.3569372990757862 6.556210445009827
0.031698996145911366 -1.3968183497712037 6.574816446020513
0.030821287065686865 -1.4377644730371224 6.593919343200624
0.02992074740245075 -1.4797756688735417 6.61351913655016
0.028997377156203007 -1.5228519372804619 6.63361582606912
0.028051176326943643 -1.5669932782578828 6.6542094117575035
0.02708214491467267 -1.6121996918058041 6.675299893615315
0.02609028291939007 -1.6584711779242263 6.696887271642548
0.02507559034109585 -1.7058077366131497 6.718971545839208
0.024038067179790016 -1.7542093678725736 6.741552716205294
0.022977713435472558 -1.8036760717024982 6.764630782740802
0.021894529108143473 -1.854207848102924 6.788205745445737
0.02078851419780278 -1.90580469707385 6.812277604320095
0.019659668704450458 -1.958466618615277 6.836846359363879
0.018507992628086518 -2.012193612727205 6.861912010577088
0.017333485968710958 -2.0669856794096333 6.88747455795972
0.01613614872632379 -2.122842818662563 6.91353400151178
0.014915980900924988 -2.179765030485993 6.9400903412332635
0.01367298249251457 -2.2377523148799234 6.967143577124171
0.014915980900924981 -2.2107209627309965 7.025141066074577
0.016136148726323775 -2.1841861048052125 7.082073295023853
0.017333485968710947 -2.1581477411025722 7.1379402639719975
0.0185079926280865 -2.1326058716230754 7.192741972919014
0.019659668704450434 -2.1075604963667223 7.2464784218649
0.020788514197802744 -2.083011615333513 7.299149610809655
0.02189452910814344 -2.058959228523447 7.350755539753282
0.022977713435472513 -2.0354033359365244 7.401296208695778
0.024038067179789964 -2.0123439375727457 7.450771617637144
0.025075590341095803 -1.9897810334321102 7.499181766577381
0.026090282919390015 -1.9677146235146186 7.546526655516487
0.027082144914672607 -1.9461447078202703 7.592806284454465
0.02805117632694358 -1.9250712863490658 7.638020653391312
0.02899737715620294 -1.9044943591010046 7.682169762327028
0.02992074740245067 -1.8844139260760875 7.725253611261614
0.030821287065686785 -1.8648299872743133 7.767272200195071
0.03169899614591128 -1.845742542695683 7.8082255291274
0.03255387464312416 -1.827151592340196 7.848113598058596
[...]
CELL_DATA 200

VECTORS Vinf float
5.230335994750722 42.080811651602396 4.150395412895047
5.2162089787375985 42.10281041369928 4.1934306929974925
5.199942782416364 42.12848566710076 4.243648001443448
5.181665436297892 42.15782431090272 4.3010195222637515
5.161533691529439 42.19081028315664 4.365513093634254
5.139734920389708 42.227424353114706 4.437092429314562
5.116487864758752 42.267644027940115 4.515717568424348
5.092041824804601 42.31144361587998 4.60134559484219
5.066746327745225 42.358717097520596 4.695441358965126
5.041141726914281 42.40959179494041 4.794207692846074
5.014975204818585 42.46397152796996 4.900038022899167
4.988593546027992 42.52181719521531 5.012929983538688
4.962364004261402 42.58308705314115 5.132885590875327
4.936664137541325 42.647737725826744 5.2599129846143216
4.911870961471927 42.715725300060456 5.394028012994875
4.88835054419349 42.78700639284206 5.535255475169776
4.867449210850866 42.861591621548094 5.680257264022924
4.847134797527755 42.93950170288217 5.833861812787378
4.82845406609266 43.02069097915229 5.994184714047403
4.811470794853408 43.105151403420194 6.161240717855907
4.7962093631160885 43.192879039485256 6.335049172273198
4.7826620604527985 43.283873358117326 6.515632282211219
4.770797328029092 43.37813642869306 6.703013453536497
4.7605679838947905 43.47567210092107 6.8972158757430275
4.751918719448229 43.57648524851367 7.0982614315309895
4.744014013274855 43.680609342766815 7.306606130664788
4.738682051956141 43.788011564951255 7.521037006810574
4.733909381539095 43.898741284602835 7.742990236112111
4.732057700209532 44.01261220819963 7.971233323513215
4.730581160035047 44.12988154702106 8.206740297631445
4.730469186622247 44.25044915023561 8.449170322322251
4.731737874624755 44.3743136266234 8.69852789608059
4.734425004650219 44.50147154493862 8.954815470703815
4.739173528525879 44.631864986291795 9.218892682414904
4.744606282210342 44.765623192125425 9.488838274058544
4.751770196096318 44.90265227251406 9.765680835159332
4.760790215247073 45.042939695609405 10.049431961456246
4.771765306070019 45.18647613196107 10.340106072826739
4.784742254251605 45.33325782892754 10.637722223551402
4.799675598318202 45.483290012530226 10.942306662752424
4.816374365735569 45.63659115757173 11.253895932053213
4.833744474033315 45.79316142851699 11.57358751274703
4.852177087060892 45.95315651786392 11.899500019797689
4.870234994742791 46.116649229623825 12.23273225317264
4.887211999946007 46.28362801753069 12.57282786424652
4.901729606276473 46.45425374999859 12.920230245545232
4.912874065408733 46.6286080255087 13.274978731439807
4.920243644428583 46.80673179618625 13.637064610866247
4.924117754010271 46.98852964314556 14.00673535712157
4.925469470751521 47.174062920937075 14.383229945404507
4.9267005331745075 47.45765089147638 14.479520513673302
4.928211806873697 47.83401534146819 14.293867568074068
4.927438854764318 48.20360164167401 14.111742031911465
4.923257723312889 48.566541484119746 13.933108109067478
4.915203201772253 48.92290171574725 13.757917435041021
4.903620891982372 49.272637293556464 13.586122204926228
4.889210310945858 49.615731306383005 13.417764124204401
4.873229620022587 49.95205371700822 13.252607493414308
4.856858135074984 50.28147925512065 13.090658247319153
4.841030899204525 50.60390419167507 12.931931685958482
4.828341625319712 50.91893814173313 12.777660843939405
4.814844800331596 51.22717721888282 12.625824410737144
4.803013863566506 51.528281884755465 12.477204000230524
4.792842023867027 51.822247653375065 12.331826482284088
4.7842520964796345 52.109079189640944 12.189717225505097
4.777140790256347 52.38878534700977 12.050900023379736
4.771403973452198 52.661376093204915 11.915397200009641
4.766946910014236 52.92686100907488 11.783229769535712
4.76429588314159 53.18457134086378 11.658839468755707
4.761556295260414 53.435803306217565 11.534359535943997
4.75976766519533 53.67995758057051 11.413303567359502
4.7589378522669135 53.91703514617422 11.295674969649118
4.75909873466422 54.14703456083734 11.18147728071287
4.760750185102299 54.36981862493024 11.071235498501517
4.763501160219584 54.58562353336617 10.963818615896127
4.767351663099052 54.79434350172655 10.8598308153134
4.77236673533762 54.99597385901829 10.759278866582195
4.778626307021019 55.190508416769134 10.662170213877497
4.786220135026976 55.37793992836243 10.568512964801343
4.794726143196644 55.558312597365514 10.478555978647956
4.806070709500117 55.73142291141819 10.391995859655788
4.819294228610995 55.89738036613949 10.30892372648201
4.834439696626077 56.05618104616931 10.229347777108735
4.85149822372597 56.207825632244315 10.153275449070037
4.870399560172966 56.3523202885006 10.080712932736619
4.89100699456761 56.48967716150084 10.011664736154316
4.913117593473822 56.619914399671316 9.94613335476731
4.936717038986045 56.74317980147792 9.882685131831394
4.961191525855845 56.85918110758459 9.824681599132722
4.986252570866676 56.968158932161224 9.770086984689145
5.0115157572746485 57.070146539332264 9.718907727863181
5.036599696057975 57.165177093084665 9.671148293247624
5.06113955828831 57.25328243927261 9.62681155186934
5.084798129962624 57.33449210270001 9.585899166559345
5.107273757793115 57.408832558197815 9.548411949496828
5.128305009656409 57.476326793756805 9.514350169472264
5.1476722504283074 57.53699414967401 9.483713796495326
5.165196599522539 57.59085039341316 9.45650268045357
5.180736885407596 57.63790797603061 9.432716667685003
5.19418525942402 57.67817641134095 9.412355664185112
5.230335994750722 42.080811651602396 4.150395412895047
5.2162089787375985 42.10281041369928 4.1934306929974925
5.199942782416364 42.12848566710076 4.243648001443448
5.181665436297892 42.15782431090272 4.3010195222637515
5.161533691529439 42.19081028315664 4.365513093634254
5.139734920389708 42.227424353114706 4.437092429314562
5.116487864758752 42.267644027940115 4.515717568424348
5.092041824804601 42.31144361587998 4.60134559484219
5.066746327745225 42.358717097520596 4.695441358965126
5.041141726914281 42.40959179494041 4.794207692846074
5.014975204818585 42.46397152796996 4.900038022899167
4.988593546027992 42.52181719521531 5.012929983538688
4.962364004261402 42.58308705314115 5.132885590875327
4.936664137541325 42.647737725826744 5.2599129846143216
4.911870961471927 42.715725300060456 5.394028012994875
4.88835054419349 42.78700639284206 5.535255475169776
4.867449210850866 42.861591621548094 5.680257264022924
4.847134797527755 42.93950170288217 5.833861812787378
4.82845406609266 43.02069097915229 5.994184714047403
4.811470794853408 43.105151403420194 6.161240717855907
4.7962093631160885 43.192879039485256 6.335049172273198
4.7826620604527985 43.283873358117326 6.515632282211219
4.770797328029092 43.37813642869306 6.703013453536497
4.7605679838947905 43.47567210092107 6.8972158757430275
4.751918719448229 43.57648524851367 7.0982614315309895
4.744014013274855 43.680609342766815 7.306606130664788
4.738682051956141 43.788011564951255 7.521037006810574
4.733909381539095 43.898741284602835 7.742990236112111
4.732057700209532 44.01261220819963 7.971233323513215
4.730581160035047 44.12988154702106 8.206740297631445
4.730469186622247 44.25044915023561 8.449170322322251
4.731737874624755 44.3743136266234 8.69852789608059
4.734425004650219 44.50147154493862 8.954815470703815
4.739173528525879 44.631864986291795 9.218892682414904
4.744606282210342 44.765623192125425 9.488838274058544
4.751770196096318 44.90265227251406 9.765680835159332
4.760790215247073 45.042939695609405 10.049431961456246
4.771765306070019 45.18647613196107 10.340106072826739
4.784742254251605 45.33325782892754 10.637722223551402
4.799675598318202 45.483290012530226 10.942306662752424
4.816374365735569 45.63659115757173 11.253895932053213
4.833744474033315 45.79316142851699 11.57358751274703
4.852177087060892 45.95315651786392 11.899500019797689
4.870234994742791 46.116649229623825 12.23273225317264
4.887211999946007 46.28362801753069 12.57282786424652
4.901729606276473 46.45425374999859 12.920230245545232
4.912874065408733 46.6286080255087 13.274978731439807
4.920243644428583 46.80673179618625 13.637064610866247
4.924117754010271 46.98852964314556 14.00673535712157
4.925469470751521 47.174062920937075 14.383229945404507
4.9267005331745075 47.45765089147638 14.479520513673302
4.928211806873697 47.83401534146819 14.293867568074068
4.927438854764318 48.20360164167401 14.111742031911465
4.923257723312889 48.566541484119746 13.933108109067478
4.915203201772253 48.92290171574725 13.757917435041021
4.903620891982372 49.272637293556464 13.586122204926228
4.889210310945858 49.615731306383005 13.417764124204401
4.873229620022587 49.95205371700822 13.252607493414308
4.856858135074984 50.28147925512065 13.090658247319153
4.841030899204525 50.60390419167507 12.931931685958482
4.828341625319712 50.91893814173313 12.777660843939405
4.814844800331596 51.22717721888282 12.625824410737144
4.803013863566506 51.528281884755465 12.477204000230524
4.792842023867027 51.822247653375065 12.331826482284088
4.7842520964796345 52.109079189640944 12.189717225505097
4.777140790256347 52.38878534700977 12.050900023379736
4.771403973452198 52.661376093204915 11.915397200009641
4.766946910014236 52.92686100907488 11.783229769535712
4.76429588314159 53.18457134086378 11.658839468755707
4.761556295260414 53.435803306217565 11.534359535943997
4.75976766519533 53.67995758057051 11.413303567359502
4.7589378522669135 53.91703514617422 11.295674969649118
4.75909873466422 54.14703456083734 11.18147728071287
4.760750185102299 54.36981862493024 11.071235498501517
4.763501160219584 54.58562353336617 10.963818615896127
4.767351663099052 54.79434350172655 10.8598308153134
4.77236673533762 54.99597385901829 10.759278866582195
4.778626307021019 55.190508416769134 10.662170213877497
4.786220135026976 55.37793992836243 10.568512964801343
4.794726143196644 55.558312597365514 10.478555978647956
4.806070709500117 55.73142291141819 10.391995859655788
4.819294228610995 55.89738036613949 10.30892372648201
4.834439696626077 56.05618104616931 10.229347777108735
4.85149822372597 56.207825632244315 10.153275449070037
4.870399560172966 56.3523202885006 10.080712932736619
4.89100699456761 56.48967716150084 10.011664736154316
4.913117593473822 56.619914399671316 9.94613335476731
4.936717038986045 56.74317980147792 9.882685131831394
4.961191525855845 56.85918110758459 9.824681599132722
4.986252570866676 56.968158932161224 9.770086984689145
5.0115157572746485 57.070146539332264 9.718907727863181
5.036599696057975 57.165177093084665 9.671148293247624
5.06113955828831 57.25328243927261 9.62681155186934
5.084798129962624 57.33449210270001 9.585899166559345
5.107273757793115 57.408832558197815 9.548411949496828
5.128305009656409 57.476326793756805 9.514350169472264
5.1476722504283074 57.53699414967401 9.483713796495326
5.165196599522539 57.59085039341316 9.45650268045357
5.180736885407596 57.63790797603061 9.432716667685003
5.19418525942402 57.67817641134095 9.412355664185112

VECTORS L float
0.058555000713368235 0.0 0.0
0.10587745977011163 0.0 0.0
0.15720790688134542 0.0 0.0
0.21427309043558804 0.0 0.0
0.27756444557490934 0.0 0.0
0.34724272973467474 0.0 0.0
0.42332703995465826 0.0 0.0
0.5057563568314427 0.0 0.0
0.5944127434197702 0.0 0.0
0.6891304403265998 0.0 0.0
0.7896920626391215 0.0 0.0
0.8958387629488964 0.0 0.0
1.007273462845347 0.0 0.0
1.1236660563335608 0.0 0.0
1.244661611860681 0.0 0.0
1.369890487493441 0.0 0.0
1.4989924009416788 0.0 0.0
1.6315227552190605 0.0 0.0
1.7671727424230235 0.0 0.0
1.9055811774459008 0.0 0.0
2.046421241785921 0.0 0.0
2.1893964257143628 0.0 0.0
2.334230394061395 0.0 0.0
2.4806503959562605 0.0 0.0
2.628519649791873 0.0 0.0
2.7776018743351183 0.0 0.0
2.9277447919569743 0.0 0.0
3.0787529901278137 0.0 0.0
3.2305168169888576 0.0 0.0
3.382832447550304 0.0 0.0
3.5356204371576316 0.0 0.0
3.688577836274861 0.0 0.0
3.8416124271705447 0.0 0.0
3.9945115135063163 0.0 0.0
4.147029563151937 0.0 0.0
4.298868390596251 0.0 0.0
4.44978347752127 0.0 0.0
4.599083182677363 0.0 0.0
4.7462275191962915 0.0 0.0
4.890414347972922 0.0 0.0
5.030637326496534 0.0 0.0
5.1656316124251935 0.0 0.0
5.294060200420282 0.0 0.0
5.414272292278023 0.0 0.0
5.524613983960224 0.0 0.0
5.623617708546893 0.0 0.0
5.710585216200477 0.0 0.0
5.786668193295622 0.0 0.0
5.857403571310768 0.0 0.0
5.947555630513728 0.0 0.0
6.209450200929753 0.0 0.0
6.238159213803183 0.0 0.0
6.2834452699460925 0.0 0.0
6.3200648449206644 0.0 0.0
6.341640953710755 0.0 0.0
6.346051128321639 0.0 0.0
6.333200491057761 0.0 0.0
6.3040669616511416 0.0 0.0
6.259913616460095 0.0 0.0
6.20211429685786 0.0 0.0
6.132067849462251 0.0 0.0
6.0506272994340815 0.0 0.0
5.9588613727730975 0.0 0.0
5.857573484694807 0.0 0.0
5.747465659419657 0.0 0.0
5.629092709697142 0.0 0.0
5.502889655188131 0.0 0.0
5.3693238233455345 0.0 0.0
5.228733237796206 0.0 0.0
5.08137121223897 0.0 0.0
4.9274463705763205 0.0 0.0
4.767465171461071 0.0 0.0
4.601735051465631 0.0 0.0
4.430575599239233 0.0 0.0
4.254339524662884 0.0 0.0
4.073418733083834 0.0 0.0
3.8882511741556676 0.0 0.0
3.6993275071257647 0.0 0.0
3.5071849904276804 0.0 0.0
3.312421525183703 0.0 0.0
3.1157273452077785 0.0 0.0
2.917807248523777 0.0 0.0
2.719431558811401 0.0 0.0
2.5214304465304913 0.0 0.0
2.324692165707598 0.0 0.0
2.1301448932238753 0.0 0.0
1.9387518179611902 0.0 0.0
1.7514853421137913 0.0 0.0
1.56929724556521 0.0 0.0
1.3931145009784367 0.0 0.0
1.2238162478971186 0.0 0.0
1.0622197246308747 0.0 0.0
0.9090682016300545 0.0 0.0
0.7650196306104169 0.0 0.0
0.6306336325636892 0.0 0.0
0.506348503403913 0.0 0.0
0.3924395646056042 0.0 0.0
0.2888975400603557 0.0 0.0
0.19506217308574358 0.0 0.0
0.10791839304218565 0.0 0.0
0.058555000713368235 0.0 0.0
0.10587745977011163 0.0 0.0
0.15720790688134542 0.0 0.0
0.21427309043558804 0.0 0.0
0.27756444557490934 0.0 0.0
0.34724272973467474 0.0 0.0
0.42332703995465826 0.0 0.0
0.5057563568314427 0.0 0.0
0.5944127434197702 0.0 0.0
0.6891304403265998 0.0 0.0
0.7896920626391215 0.0 0.0
0.8958387629488964 0.0 0.0
1.007273462845347 0.0 0.0
1.1236660563335608 0.0 0.0
1.244661611860681 0.0 0.0
1.369890487493441 0.0 0.0
1.4989924009416788 0.0 0.0
1.6315227552190605 0.0 0.0
1.7671727424230235 0.0 0.0
1.9055811774459008 0.0 0.0
2.046421241785921 0.0 0.0
2.1893964257143628 0.0 0.0
2.334230394061395 0.0 0.0
2.4806503959562605 0.0 0.0
2.628519649791873 0.0 0.0
2.7776018743351183 0.0 0.0
2.9277447919569743 0.0 0.0
3.0787529901278137 0.0 0.0
3.2305168169888576 0.0 0.0
3.382832447550304 0.0 0.0
3.5356204371576316 0.0 0.0
3.688577836274861 0.0 0.0
3.8416124271705447 0.0 0.0
3.9945115135063163 0.0 0.0
4.147029563151937 0.0 0.0
4.298868390596251 0.0 0.0
4.44978347752127 0.0 0.0
4.599083182677363 0.0 0.0
4.7462275191962915 0.0 0.0
4.890414347972922 0.0 0.0
5.030637326496534 0.0 0.0
5.1656316124251935 0.0 0.0
5.294060200420282 0.0 0.0
5.414272292278023 0.0 0.0
5.524613983960224 0.0 0.0
5.623617708546893 0.0 0.0
5.710585216200477 0.0 0.0
5.786668193295622 0.0 0.0
5.857403571310768 0.0 0.0
5.947555630513728 0.0 0.0
6.209450200929753 0.0 0.0
6.238159213803183 0.0 0.0
6.2834452699460925 0.0 0.0
6.3200648449206644 0.0 0.0
6.341640953710755 0.0 0.0
6.346051128321639 0.0 0.0
6.333200491057761 0.0 0.0
6.3040669616511416 0.0 0.0
6.259913616460095 0.0 0.0
6.20211429685786 0.0 0.0
6.132067849462251 0.0 0.0
6.0506272994340815 0.0 0.0
5.9588613727730975 0.0 0.0
5.857573484694807 0.0 0.0
5.747465659419657 0.0 0.0
5.629092709697142 0.0 0.0
5.502889655188131 0.0 0.0
5.3693238233455345 0.0 0.0
5.228733237796206 0.0 0.0
5.08137121223897 0.0 0.0
4.9274463705763205 0.0 0.0
4.767465171461071 0.0 0.0
4.601735051465631 0.0 0.0
4.430575599239233 0.0 0.0
4.254339524662884 0.0 0.0
4.073418733083834 0.0 0.0
3.8882511741556676 0.0 0.0
3.6993275071257647 0.0 0.0
3.5071849904276804 0.0 0.0
3.312421525183703 0.0 0.0
3.1157273452077785 0.0 0.0
2.917807248523777 0.0 0.0
2.719431558811401 0.0 0.0
2.5214304465304913 0.0 0.0
2.324692165707598 0.0 0.0
2.1301448932238753 0.0 0.0
1.9387518179611902 0.0 0.0
1.7514853421137913 0.0 0.0
1.56929724556521 0.0 0.0
1.3931145009784367 0.0 0.0
1.2238162478971186 0.0 0.0
1.0622197246308747 0.0 0.0
0.9090682016300545 0.0 0.0
0.7650196306104169 0.0 0.0
0.6306336325636892 0.0 0.0
0.506348503403913 0.0 0.0
0.3924395646056042 0.0 0.0
0.2888975400603557 0.0 0.0
0.19506217308574358 0.0 0.0
0.10791839304218565 0.0 0.0

SCALARS Gamma float
LOOKUP_TABLE default
0.4237654133946464
0.6513410893870764
0.8375992313189382
1.0051944089486144
1.1617342570104308
1.3105701125317057
1.453343621337653
1.590881900469705
1.7235763266775637
1.8515642368806078
1.9748087806418073
2.093181258573215
2.2065001773323862
2.3145615438939156
2.417165250765136
2.5141367371635526
2.605362839263176
2.690636152686302
2.770010271324069
2.843472384453988
2.911079079127198
2.972937429269987
3.0291824380381973
3.0799537439310827
3.125544374456692
3.166111734863776
3.2018969269992392
3.23308014659978
3.259916182541125
3.282551665988966
3.3011923323525334
3.316007550766807
3.327142617798012
3.3347096758935875
3.338793920079209
3.3394427050806317
3.3366493992001645
3.330379050647052
3.320471703789729
3.3067003007238855
3.288750082517345
3.266202129665644
3.2386642248784923
3.2056301656277064
3.166675238508425
3.1215470004166397
3.0704356121089127
3.014404200097606
2.9562054769501893
2.9029888125892507
2.8970870028893376
2.9379619500959815
2.983324546281977
3.0263916746099824
3.0646093620508124
3.096979807460486
3.1233516912582058
3.1440502669893853
3.1595283907882066
3.1702932087074926
3.1768705512321076
3.179514001372787
3.1785877135417553
3.174322107709086
3.166893265717066
3.1563951897249445
3.1428487374539826
3.126277088557359
3.1066301267679015
3.0837898078690236
3.0576483782555672
3.0281072696234594
2.9950617472021306
2.958352654898264
2.917816188396391
2.8732876502537894
2.8246061260893507
2.7716199131930286
2.7141833795469914
2.652169138230886
2.585497438427388
2.5140798792543846
2.437862746198645
2.356830161428446
2.2710118153800183
2.180476719977788
2.085339272704957
1.9857443464973752
1.8818425684015225
1.7737886419310922
1.6617140226881641
1.5457003491540817
1.4257432761255395
1.3016984636204456
1.1731931951814223
1.0394609650816986
0.8990147271952197
0.7488469193695959
0.5821403489240087
0.3786417065778792
0.4237654133946464
0.6513410893870764
0.8375992313189382
1.0051944089486144
1.1617342570104308
1.3105701125317057
1.453343621337653
1.590881900469705
1.7235763266775637
1.8515642368806078
1.9748087806418073
2.093181258573215
2.2065001773323862
2.3145615438939156
2.417165250765136
2.5141367371635526
2.605362839263176
2.690636152686302
2.770010271324069
2.843472384453988
2.911079079127198
2.972937429269987
3.0291824380381973
3.0799537439310827
3.125544374456692
3.166111734863776
3.2018969269992392
3.23308014659978
3.259916182541125
3.282551665988966
3.3011923323525334
3.316007550766807
3.327142617798012
3.3347096758935875
3.338793920079209
3.3394427050806317
3.3366493992001645
3.330379050647052
3.320471703789729
3.3067003007238855
3.288750082517345
3.266202129665644
3.2386642248784923
3.2056301656277064
3.166675238508425
3.1215470004166397
3.0704356121089127
3.014404200097606
2.9562054769501893
2.9029888125892507
2.8970870028893376
2.9379619500959815
2.983324546281977
3.0263916746099824
3.0646093620508124
3.096979807460486
3.1233516912582058
3.1440502669893853
3.1595283907882066
3.1702932087074926
3.1768705512321076
3.179514001372787
3.1785877135417553
3.174322107709086
3.166893265717066
3.1563951897249445
3.1428487374539826
3.126277088557359
3.1066301267679015
3.0837898078690236
3.0576483782555672
3.0281072696234594
2.9950617472021306
2.958352654898264
2.917816188396391
2.8732876502537894
2.8246061260893507
2.7716199131930286
2.7141833795469914
2.652169138230886
2.585497438427388
2.5140798792543846
2.437862746198645
2.356830161428446
2.2710118153800183
2.180476719977788
2.085339272704957
1.9857443464973752
1.8818425684015225
1.7737886419310922
1.6617140226881641
1.5457003491540817
1.4257432761255395
1.3016984636204456
1.1731931951814223