# vtk DataFile Version 4.0
[MyVLM domain - lattices] 
ASCII
DATASET UNSTRUCTURED_GRID
POINTS 302 float
0.034182456231286275 -6.287960342045853 -0.728812218356603
0.03405815639044524 -6.291160763546055 -0.7343530963968203
0.03391102596659258 -6.294949017566702 -0.7409116867301391
0.03374106495972829 -6.299325104107794 -0.7484879893565588
0.033548273369852395 -6.304289023169331 -0.7570820042760797
0.03333265119696487 -6.309840774751314 -0.7666937314887021
0.03309419844106574 -6.315980358853741 -0.7773231709944253
0.032832915102154976 -6.322707775476614 -0.7889703227932499
0.032548801180232595 -6.3300230246199325 -0.8016351868851754
0.032241856675298594 -6.337926106283696 -0.8153177632702023
0.031912081587352974 -6.346417020467904 -0.8300180519483304
0.031559475916395734 -6.355495767172558 -0.8457360529195597
0.031184039662426888 -6.365162346397657 -0.8624717661838898
0.030785772825446405 -6.3754167581432 -0.8802251917413213
0.030364675405454303 -6.38625900240919 -0.898996329591854
0.02992074740245059 -6.397689079195624 -0.918785179735488
0.029453988816435253 -6.409706988502504 -0.9395917421722229
0.02896439964740829 -6.422312730329828 -0.9614160169020594
0.028451979895369715 -6.435506304677599 -0.9842580039249966
0.027916729560319514 -6.449287711545814 -1.0081177032410351
0.027358648642257705 -6.463656950934475 -1.0329951148501748
0.026777737141184265 -6.47861402284358 -1.0588902387524157
0.02617399505709921 -6.494158927273132 -1.0858030749477579
0.02554742239000253 -6.510291664223128 -1.113733623436201
0.02489801913989424 -6.5270122336935685 -1.1426818842177453
0.02422578530677432 -6.544320635684456 -1.1726478572923908
0.023530720890642787 -6.562216870195787 -1.2036315426601376
0.02281282589149963 -6.580700937227564 -1.2356329403209854
0.022072100309344856 -6.599772836779786 -1.2686520502749343
0.021308544144178463 -6.619432568852453 -1.3026888725219847
0.020522157396000447 -6.639680133445566 -1.3377434070621361
0.01971294006481081 -6.660515530559123 -1.3738156538953887
0.018880892150609556 -6.681938760193126 -1.4109056130217423
0.01802601365339668 -6.703949822347574 -1.4490132844411974
0.017148304573172186 -6.726548717022467 -1.4881386681537534
0.016247764909936072 -6.749735444217805 -1.5282817641594106
0.01532439466368834 -6.773510003933589 -1.5694425724581693
0.014378193834428987 -6.797872396169819 -1.6116210930500285
0.013409162422158017 -6.822822620926493 -1.6548173259349894
0.012417300426875427 -6.848360678203612 -1.6990312711130515
0.011402607848581214 -6.874486568001177 -1.7442629285842144
0.010365084687275383 -6.901200290319187 -1.7905122983484782
0.009304730942957931 -6.928501845157641 -1.837779380405844
0.008221546615628851 -6.956391232516541 -1.8860641747563112
0.0071155317052881625 -6.9848684523958875 -1.9353666813998784
0.00598668621193585 -7.013933504795678 -1.9856869003365474
0.004835010135571918 -7.043586389715912 -2.0370248315663178
0.0036605034761963656 -7.073827107156593 -2.089380475089189
0.002463166233809201 -7.1046556571177195 -2.142753830905161
0.00124299840841041 -7.1360720395992905 -2.197144899014235
0.0 -7.168076254601307 -2.2525536794164096
0.00124299840841041 -7.223497108022325 -2.2205703754964294
0.0024631662338092 -7.277900027400916 -2.189174520015796
0.0036605034761963704 -7.331285012737081 -2.1583661129745093
0.004835010135571922 -7.383652064030817 -2.128145154372569
0.005986686211935852 -7.435001181282126 -2.0985116442099754
0.0071155317052881625 -7.4853323644910095 -2.0694655824867283
0.008221546615628855 -7.534645613657467 -2.0410069692028276
0.009304730942957924 -7.582940928781497 -2.0131358043582734
0.010365084687275376 -7.6302183098631 -1.9858520879530661
0.01140260784858121 -7.676477756902276 -1.9591558199872054
0.012417300426875421 -7.721719269899025 -1.9330470004606906
0.013409162422158012 -7.7659428488533475 -1.9075256293735232
0.014378193834428983 -7.8091484937652424 -1.882591706725702
0.01532439466368834 -7.85133620463471 -1.8582452325172274
0.016247764909936072 -7.892505981461752 -1.8344862067480996
0.017148304573172183 -7.932657824246368 -1.811314629418318
0.01802601365339668 -7.971791732988556 -1.7887305005278833
0.018880892150609552 -8.009907707688317 -1.7667338200767946
0.019712940064810808 -8.04700574834565 -1.7453245880650532
0.020522157396000443 -8.08308585496056 -1.7245028044926578
0.021308544144178456 -8.118148027533039 -1.7042684693596095
0.02207210030934485 -8.152192266063093 -1.684621582665907
0.02281282589149962 -8.18521857055072 -1.6655621444115516
0.023530720890642776 -8.21722694099592 -1.647090154596543
0.024225785306774314 -8.248217377398692 -1.6292056132208808
0.024898019139894232 -8.27818987975904 -1.6119085202845649
0.025547422390002524 -8.30714444807696 -1.5951988757875957
0.026173995057099202 -8.33508108235245 -1.5790766797299733
0.026777737141184258 -8.361999782585517 -1.563541932111697
0.027358648642257698 -8.387900548776155 -1.5485946329327676
0.02791672956031951 -8.412783380924369 -1.5342347821931848
0.02845197989536971 -8.436648279030154 -1.5204623798929486
0.028964399647408285 -8.459495243093512 -1.507277426032059
0.02945398881643524 -8.481324273114444 -1.4946799206105157
0.029920747402450588 -8.502135369092947 -1.482669863628319
0.0303646754054543 -8.521928531029026 -1.4712472550854692
0.030785772825446395 -8.540703758922676 -1.4604120949819657
0.031184039662426874 -8.5584610527739 -1.4501643833178086
0.031559475916395734 -8.575200412582697 -1.4405041200929987
0.03191208158735298 -8.590921838349068 -1.4314313053075347
0.032241856675298594 -8.60562533007301 -1.4229459389614176
0.032548801180232595 -8.619310887754528 -1.415048021054647
0.032832915102154976 -8.631978511393617 -1.407737551587223
0.03309419844106574 -8.64362820099028 -1.4010145305591455
0.033332651196964866 -8.654259956544516 -1.3948789579704148
0.03354827336985239 -8.663873778056326 -1.3893308338210306
0.03374106495972829 -8.672469665525709 -1.3843701581109928
0.033911025966592574 -8.680047618952663 -1.3799969308403017
0.03405815639044524 -8.686607638337193 -1.376211152008957
0.034182456231286275 -8.692149723679295 -1.373012821616959
0.04785543872380079 -6.41675185335036 -0.24815575458475125
0.04773113888295975 -6.419952274850562 -0.2536966326249688
0.0475840084591071 -6.423740528871209 -0.2602552229582875
0.04741404745224281 -6.428116615412301 -0.26783152558470746
0.04722125586236691 -6.433080534473838 -0.2764255405042282
0.04700563368947939 -6.438632286055821 -0.28603726771685056
0.04676718093358025 -6.444771870158248 -0.2966667072225737
0.046505897594669485 -6.451499286781121 -0.3083138590213983
0.04622178367274711 -6.458814535924439 -0.32097872311332387
0.04591483916781311 -6.466717617588202 -0.33466129949835066
0.04558506407986749 -6.47520853177241 -0.3493615881764789
0.045232458408910256 -6.484287278477065 -0.3650795891477079
0.044857022154941396 -6.493953857702163 -0.3818153024120381
0.04445875531796092 -6.504208269447707 -0.39956872796946974
0.04403765789796882 -6.515050513713695 -0.4183398658200024
0.0435937298949651 -6.526480590500131 -0.43812871596363645
0.04312697130894976 -6.5384984998070115 -0.4589352784003713
0.042637382139922804 -6.551104241634335 -0.4807595531302078
0.04212496238788423 -6.564297815982106 -0.5036015401531451
0.04158971205283403 -6.57807922285032 -0.5274612394691836
0.04103163113477221 -6.592448462238981 -0.552338651078323
0.04045071963369878 -6.607405534148086 -0.5782337749805642
0.03984697754961372 -6.622950438577638 -0.6051466111759063
0.03922040488251704 -6.6390831755276345 -0.6330771596643494
0.03857100163240875 -6.655803744998075 -0.6620254204458937
0.03789876779928883 -6.673112146988962 -0.6919913935205395
0.0372037033831573 -6.691008381500294 -0.722975078888286
0.03648580838401414 -6.70949244853207 -0.754976476549134
0.03574508280185937 -6.728564348084292 -0.787995586503083
0.034981526636692975 -6.748224080156959 -0.822032408750133
0.034195139888514955 -6.768471644750072 -0.8570869432902848
0.03338592255732532 -6.78930704186363 -0.8931591901235373
0.032553874643124064 -6.810730271497633 -0.9302491492498911
0.0316989961459112 -6.832741333652081 -0.9683568206693456
0.030821287065686702 -6.855340228326974 -1.007482204381902
0.029920747402450588 -6.878526955522314 -1.0476253003875593
0.028997377156202854 -6.902301515238095 -1.0887861086863175
0.028051176326943497 -6.9266639074743255 -1.1309646292781772
0.027082144914672535 -6.951614132230999 -1.1741608621631379
0.026090282919389935 -6.977152189508119 -1.2183748073411995
0.025075590341095726 -7.003278079305683 -1.2636064648123626
0.024038067179789895 -7.029991801623693 -1.3098558345766271
0.022977713435472443 -7.057293356462147 -1.3571229166339924
0.021894529108143365 -7.085182743821048 -1.4054077109844592
0.020788514197802678 -7.113659963700393 -1.4547102176280269
0.019659668704450364 -7.142725016100184 -1.505030436564696
0.01850799262808643 -7.172377901020419 -1.556368367794466
0.01733348596871088 -7.202618618461099 -1.6087240113173373
0.016136148726323716 -7.233447168422226 -1.6620973671333097
0.014915980900924924 -7.264863550903797 -1.716488435242383
0.013672982492514515 -7.296867765905814 -1.7718972156445578
0.014915980900924924 -7.352288619326832 -1.739913911724578
0.016136148726323716 -7.406691538705423 -1.7085180562439446
0.017333485968710885 -7.460076524041586 -1.6777096492026575
0.018507992628086438 -7.512443575335324 -1.6474886906007173
0.019659668704450368 -7.563792692586635 -1.6178551804381236
0.020788514197802678 -7.614123875795518 -1.5888091187148765
0.02189452910814337 -7.663437124961974 -1.5603505054309759
0.02297771343547244 -7.711732440086004 -1.5324793405864219
0.02403806717978989 -7.759009821167607 -1.5051956241812143
0.025075590341095726 -7.805269268206782 -1.4784993562153534
0.026090282919389935 -7.850510781203531 -1.4523905366888392
0.027082144914672528 -7.894734360157854 -1.4268691656016717
0.028051176326943497 -7.937940005069749 -1.4019352429538505
0.028997377156202854 -7.980127715939217 -1.3775887687453756
[...]
CELL_DATA 200

VECTORS Vinf float
5.173895662289364 -0.4756572759414768 42.28720787630613
5.160133488626954 -0.5167776132455602 42.31282655360048
5.144318884129567 -0.5647667895127915 42.342723401449454
5.126593433163051 -0.6196010468689696 42.37688159766256
5.104690835378099 -0.6790143519142674 42.41533256400839
5.083145145620401 -0.7472097867325608 42.45798977441974
5.060166656377578 -0.8221208929242928 42.50484866113261
5.036001247926334 -0.9037079513206496 42.555880287420386
5.010922243564208 -0.9919295973855032 42.611052639379565
4.985225635545423 -1.086744055639064 42.67033119848477
4.9592231814590395 -1.1881105967926862 42.73367975449525
4.933233578469319 -1.2959911384457306 42.801061433357454
4.907572195334776 -1.4103518732203264 42.8724398836897
4.882540106343575 -1.5311647796223253 42.947780535505636
4.859102136773784 -1.6584000928628857 43.02701509375959
4.836194576289445 -1.7919708683962217 43.11017756780253
4.814451321134456 -1.9320042033435914 43.19724317855445
4.794057115139895 -2.078505138867531 43.288190943992305
4.775158898405376 -2.2314853610028633 43.383004200594684
4.757868032349247 -2.3909619918314085 43.481670322300666
4.740852170583965 -2.5580154686227092 43.58428627644802
4.72882273374216 -2.729935750528378 43.69041126397274
4.71787850462656 -2.908444655929709 43.80045223959529
4.708119897178737 -3.093559696173715 43.91439829995406
4.699641652638798 -3.2852990505744835 44.03223905367044
4.692535969097457 -3.48368095858883 44.15396426730797
4.686896128632365 -3.688723206531136 44.279563470372615
4.682820502639482 -3.900442722999567 44.40902552768694
4.680416600156491 -4.11885531330593 44.54233820894778
4.6798044386555615 -4.343975595769375 44.67948782406757
4.677440833215285 -4.574810710819339 44.82080961206908
4.674245807672803 -4.812302578020386 44.965509444031966
4.677473590935528 -5.057070977745463 45.114286578365835
4.68196401138514 -5.3084817417681345 45.266966926507166
4.68779807722811 -5.566547821979483 45.42354178943046
4.6950594336656595 -5.831282486062544 45.58400261274184
4.703825398485152 -6.102700192470059 45.74834208432897
4.718700986138307 -6.38092531593389 45.916799116739945
4.730779299516193 -6.665629215370588 46.08881862098363
4.744921040447729 -6.956987166783719 46.26464912549834
4.760959971777348 -7.255035997098314 46.44430829261844
4.778521292570808 -7.559824814688757 46.627833653107814
4.796972941249584 -7.871416007751106 46.815286291461994
4.8148127549672 -8.189440110585416 47.00687048328209
4.830991785497229 -8.51475081675005 47.2025923718626
4.8449717025655605 -8.846981621099024 47.40253906780493
4.855800585058428 -9.18616336308168 47.606801329298634
4.863035774615993 -9.532281311061542 47.81542501782876
4.866893762167963 -9.885274381535242 48.02839722093219
4.868437309376684 -10.24487703749814 48.24559270777572
4.86987161502103 -10.316955777357872 48.53622579539046
4.871729311343552 -10.100052861703215 48.894874041808876
4.871349059906792 -9.887229670712488 49.247080189502654
4.867189949755214 -9.676221639696374 49.59280129488998
4.85984804156733 -9.472060463236735 49.932452321895816
4.848960505197836 -9.271694085735728 50.26582668619253
4.8354901487122985 -9.075109196221076 50.59283277857165
4.820407697770409 -8.88220684087183 50.91340448813483
4.804959241246064 -8.693306457224706 51.22735677026928
4.790287746120772 -8.508189709965567 51.5345928198665
4.7769920114527045 -8.326891260473285 51.835045096281725
4.765366775210867 -8.149443520576401 52.128678284467384
4.755474514466495 -7.975875183744958 52.41548233939607
4.741835109514042 -7.806879157118975 52.69593003071966
4.73503510679184 -7.641709758201239 52.9690976210172
4.729229280462161 -7.480434923437484 53.235512234147286
4.724349834461735 -7.32307086662532 53.4951818519133
4.720343696664761 -7.169633406433069 53.748113175439585
4.717170042151015 -7.020137993148322 53.99431165883673
4.714791665311065 -6.874599567169953 54.23378218487945
4.713657348216563 -6.733106359630449 54.46644953416862
4.713263777893644 -6.59568779872231 54.69239833730172
4.713843953190213 -6.4622819076432805 54.9115996847786
4.715450494197108 -6.332893358373049 55.1240497349535
4.718155919656208 -6.207527504118513 55.329742753355795
4.722050730066468 -6.086190490419063 55.52867132431983
4.728295467390753 -5.968581470142953 55.72079249073666
4.735124139603771 -5.855568235460711 55.90617914865585
4.743184109013625 -5.746516930883711 56.08480006976726
4.75177611770376 -5.641284074076761 56.256552019338905
4.76333323381421 -5.540212771365216 56.42151393741287
4.776734318975313 -5.443222853222299 56.57965621859294
4.792021463932595 -5.350323445929147 56.730975466671815
4.809185598518473 -5.261522519622646 56.87547276221307
4.828157118614294 -5.1768263294673655 57.01315449183228
4.848800831050969 -5.096238941545878 57.14403280031244
4.870916174134519 -5.019761903613129 57.2681255803344
4.894315669603318 -4.947571632291836 57.38542886291878
4.918556885520311 -4.879287314197662 57.49602689464992
4.94334440340128 -4.8151051209755735 57.59992081501721
4.968311645655352 -4.755016369207931 57.697143306027016
4.9930908033732875 -4.699010995575294 57.78772716865168
5.017327057744686 -4.647078051523829 57.87170406949905
5.0406903707147235 -4.5992061946404 57.949103498021195
5.062884143087087 -4.555384136767788 58.01995199726603
5.0838240636279615 -4.515547170273755 58.08426580893656
5.103017878870135 -4.479802869541903 58.14207195070614
5.12039095324945 -4.448077253438312 58.19338581860767
5.135800954813658 -4.4203621503731485 58.238220237346546
5.149138998091881 -4.396650494196994 58.27658505632847
5.173895662289364 -0.4756572759414768 42.28720787630613
5.160133488626954 -0.5167776132455602 42.31282655360048
5.144318884129567 -0.5647667895127915 42.342723401449454
5.126593433163051 -0.6196010468689696 42.37688159766256
5.104690835378099 -0.6790143519142674 42.41533256400839
5.083145145620401 -0.7472097867325608 42.45798977441974
5.060166656377578 -0.8221208929242928 42.50484866113261
5.036001247926334 -0.9037079513206496 42.555880287420386
5.010922243564208 -0.9919295973855032 42.611052639379565
4.985225635545423 -1.086744055639064 42.67033119848477
4.9592231814590395 -1.1881105967926862 42.73367975449525
4.933233578469319 -1.2959911384457306 42.801061433357454
4.907572195334776 -1.4103518732203264 42.8724398836897
4.882540106343575 -1.5311647796223253 42.947780535505636
4.859102136773784 -1.6584000928628857 43.02701509375959
4.836194576289445 -1.7919708683962217 43.11017756780253
4.814451321134456 -1.9320042033435914 43.19724317855445
4.794057115139895 -2.078505138867531 43.288190943992305
4.775158898405376 -2.2314853610028633 43.383004200594684
4.757868032349247 -2.3909619918314085 43.481670322300666
4.740852170583965 -2.5580154686227092 43.58428627644802
4.72882273374216 -2.729935750528378 43.69041126397274
4.71787850462656 -2.908444655929709 43.80045223959529
4.708119897178737 -3.093559696173715 43.91439829995406
4.699641652638798 -3.2852990505744835 44.03223905367044
4.692535969097457 -3.48368095858883 44.15396426730797
4.686896128632365 -3.688723206531136 44.279563470372615
4.682820502639482 -3.900442722999567 44.40902552768694
4.680416600156491 -4.11885531330593 44.54233820894778
4.6798044386555615 -4.343975595769375 44.67948782406757
4.677440833215285 -4.574810710819339 44.82080961206908
4.674245807672803 -4.812302578020386 44.965509444031966
4.677473590935528 -5.057070977745463 45.114286578365835
4.68196401138514 -5.3084817417681345 45.266966926507166
4.68779807722811 -5.566547821979483 45.42354178943046
4.6950594336656595 -5.831282486062544 45.58400261274184
4.703825398485152 -6.102700192470059 45.74834208432897
4.718700986138307 -6.38092531593389 45.916799116739945
4.730779299516193 -6.665629215370588 46.08881862098363
4.744921040447729 -6.956987166783719 46.26464912549834
4.760959971777348 -7.255035997098314 46.44430829261844
4.778521292570808 -7.559824814688757 46.627833653107814
4.796972941249584 -7.871416007751106 46.815286291461994
4.8148127549672 -8.189440110585416 47.00687048328209
4.830991785497229 -8.51475081675005 47.2025923718626
4.8449717025655605 -8.846981621099024 47.40253906780493
4.855800585058428 -9.18616336308168 47.606801329298634
4.863035774615993 -9.532281311061542 47.81542501782876
4.866893762167963 -9.885274381535242 48.02839722093219
4.868437309376684 -10.24487703749814 48.24559270777572
4.86987161502103 -10.316955777357872 48.53622579539046
4.871729311343552 -10.100052861703215 48.894874041808876
4.871349059906792 -9.887229670712488 49.247080189502654
4.867189949755214 -9.676221639696374 49.59280129488998
4.85984804156733 -9.472060463236735 49.932452321895816
4.848960505197836 -9.271694085735728 50.26582668619253
4.8354901487122985 -9.075109196221076 50.59283277857165
4.820407697770409 -8.88220684087183 50.91340448813483
4.804959241246064 -8.693306457224706 51.22735677026928
4.790287746120772 -8.508189709965567 51.5345928198665
4.7769920114527045 -8.326891260473285 51.835045096281725
4.765366775210867 -8.149443520576401 52.128678284467384
4.755474514466495 -7.975875183744958 52.41548233939607
4.741835109514042 -7.806879157118975 52.69593003071966
4.73503510679184 -7.641709758201239 52.9690976210172
4.729229280462161 -7.480434923437484 53.235512234147286
4.724349834461735 -7.32307086662532 53.4951818519133
4.720343696664761 -7.169633406433069 53.748113175439585
4.717170042151015 -7.020137993148322 53.99431165883673
4.714791665311065 -6.874599567169953 54.23378218487945
4.713657348216563 -6.733106359630449 54.46644953416862
4.713263777893644 -6.59568779872231 54.69239833730172
4.713843953190213 -6.4622819076432805 54.9115996847786
4.715450494197108 -6.332893358373049 55.1240497349535
4.718155919656208 -6.207527504118513 55.329742753355795
4.722050730066468 -6.086190490419063 55.52867132431983
4.728295467390753 -5.968581470142953 55.72079249073666
4.735124139603771 -5.855568235460711 55.90617914865585
4.743184109013625 -5.746516930883711 56.08480006976726
4.75177611770376 -5.641284074076761 56.256552019338905
4.76333323381421 -5.540212771365216 56.42151393741287
4.776734318975313 -5.443222853222299 56.57965621859294
4.792021463932595 -5.350323445929147 56.730975466671815
4.809185598518473 -5.261522519622646 56.87547276221307
4.828157118614294 -5.1768263294673655 57.01315449183228
4.848800831050969 -5.096238941545878 57.14403280031244
4.870916174134519 -5.019761903613129 57.2681255803344
4.894315669603318 -4.947571632291836 57.38542886291878
4.918556885520311 -4.879287314197662 57.49602689464992
4.94334440340128 -4.8151051209755735 57.59992081501721
4.968311645655352 -4.755016369207931 57.697143306027016
4.9930908033732875 -4.699010995575294 57.78772716865168
5.017327057744686 -4.647078051523829 57.87170406949905
5.0406903707147235 -4.5992061946404 57.949103498021195
5.062884143087087 -4.555384136767788 58.01995199726603
5.0838240636279615 -4.515547170273755 58.08426580893656
5.103017878870135 -4.479802869541903 58.14207195070614
5.12039095324945 -4.448077253438312 58.19338581860767
5.135800954813658 -4.4203621503731485 58.238220237346546
5.149138998091881 -4.396650494196994 58.27658505632847

VECTORS L float
0.05773211723115198 0.0 0.0
0.10438795617956077 0.0 0.0
0.15499223106057478 0.0 0.0
0.2112449535984895 0.0 0.0
0.27363226639046834 0.0 0.0
0.3423155083070069 0.0 0.0
0.41731214980897574 0.0 0.0
0.498562290545932 0.0 0.0
0.5859485078974807 0.0 0.0
0.679304197111917 0.0 0.0
0.7784175986804932 0.0 0.0
0.8830346850627709 0.0 0.0
0.992862811131357 0.0 0.0
1.1075770555039774 0.0 0.0
1.2268244226467415 0.0 0.0
1.350225585467474 0.0 0.0
1.4774036380153048 0.0 0.0
1.6079858292328995 0.0 0.0
1.741613390144559 0.0 0.0
1.8779337173034356 0.0 0.0
2.0166575898822017 0.0 0.0
2.157551041627216 0.0 0.0
2.300274630117847 0.0 0.0
2.4445830094562093 0.0 0.0
2.590256146671066 0.0 0.0
2.7371000170161475 0.0 0.0
2.88494161605634 0.0 0.0
3.0336219458783664 0.0 0.0
3.182985807292301 0.0 0.0
3.3328572802674876 0.0 0.0
3.482947982579379 0.0 0.0
3.6332368495689398 0.0 0.0
3.7837754124128256 0.0 0.0
3.9342530013146457 0.0 0.0
4.084423995246025 0.0 0.0
4.233953764412516 0.0 0.0
4.382501639459139 0.0 0.0
4.529734699472681 0.0 0.0
4.674604908087418 0.0 0.0
4.81654386027018 0.0 0.0
4.95458504112301 0.0 0.0
5.087547840653551 0.0 0.0
5.214025081361607 0.0 0.0
5.332380217177517 0.0 0.0
5.44098456997523 0.0 0.0
5.538407682370912 0.0 0.0
5.624003248269821 0.0 0.0
5.6989207681590734 0.0 0.0
5.768613347440905 0.0 0.0
5.85728741151072 0.0 0.0
6.10838999008079 0.0 0.0
6.13703750756741 0.0 0.0
6.181897872393696 0.0 0.0
6.218236169323636 0.0 0.0
6.239840194709541 0.0 0.0
6.2446254637397764 0.0 0.0
6.2325177778403145 0.0 0.0
6.2043660714238325 0.0 0.0
6.161444804622164 0.0 0.0
6.105095672783747 0.0 0.0
6.036527994937635 0.0 0.0
5.9569130273907405 0.0 0.0
5.867001594941301 0.0 0.0
5.767476065162528 0.0 0.0
5.65954616926155 0.0 0.0
5.543490640522008 0.0 0.0
5.4196984617699995 0.0 0.0
5.288546643229936 0.0 0.0
5.150378181490814 0.0 0.0
5.005492392188102 0.0 0.0
4.854289564533678 0.0 0.0
4.697037028102543 0.0 0.0
4.534047758597013 0.0 0.0
4.365695358994183 0.0 0.0
4.192321450054546 0.0 0.0
4.014320415085524 0.0 0.0
3.832144964876203 0.0 0.0
3.646219523575453 0.0 0.0
3.457088910712478 0.0 0.0
3.2653209468400086 0.0 0.0
3.071624657474348 0.0 0.0
2.876684449301976 0.0 0.0
2.6812620281399124 0.0 0.0
2.486180362521402 0.0 0.0
2.2923156523419257 0.0 0.0
2.1005866518997918 0.0 0.0
1.9119408722925177 0.0 0.0
1.7273362976330455 0.0 0.0
1.5477184168447544 0.0 0.0
1.3740048774530778 0.0 0.0
1.2070655937161472 0.0 0.0
1.0477084532241014 0.0 0.0
0.896674767210244 0.0 0.0
0.7546098345085552 0.0 0.0
0.6220683832213137 0.0 0.0
0.4994853948486744 0.0 0.0
0.3871305289389216 0.0 0.0
0.2849970031607668 0.0 0.0
0.1924346789291255 0.0 0.0
0.10646991465189495 0.0 0.0
0.05773211723115198 0.0 0.0
0.10438795617956077 0.0 0.0
0.15499223106057478 0.0 0.0
0.2112449535984895 0.0 0.0
0.27363226639046834 0.0 0.0
0.3423155083070069 0.0 0.0
0.41731214980897574 0.0 0.0
0.498562290545932 0.0 0.0
0.5859485078974807 0.0 0.0
0.679304197111917 0.0 0.0
0.7784175986804932 0.0 0.0
0.8830346850627709 0.0 0.0
0.992862811131357 0.0 0.0
1.1075770555039774 0.0 0.0
1.2268244226467415 0.0 0.0
1.350225585467474 0.0 0.0
1.4774036380153048 0.0 0.0
1.6079858292328995 0.0 0.0
1.741613390144559 0.0 0.0
1.8779337173034356 0.0 0.0
2.0166575898822017 0.0 0.0
2.157551041627216 0.0 0.0
2.300274630117847 0.0 0.0
2.4445830094562093 0.0 0.0
2.590256146671066 0.0 0.0
2.7371000170161475 0.0 0.0
2.88494161605634 0.0 0.0
3.0336219458783664 0.0 0.0
3.182985807292301 0.0 0.0
3.3328572802674876 0.0 0.0
3.482947982579379 0.0 0.0
3.6332368495689398 0.0 0.0
3.7837754124128256 0.0 0.0
3.9342530013146457 0.0 0.0
4.084423995246025 0.0 0.0
4.233953764412516 0.0 0.0
4.382501639459139 0.0 0.0
4.529734699472681 0.0 0.0
4.674604908087418 0.0 0.0
4.81654386027018 0.0 0.0
4.95458504112301 0.0 0.0
5.087547840653551 0.0 0.0
5.214025081361607 0.0 0.0
5.332380217177517 0.0 0.0
5.44098456997523 0.0 0.0
5.538407682370912 0.0 0.0
5.624003248269821 0.0 0.0
5.6989207681590734 0.0 0.0
5.768613347440905 0.0 0.0
5.85728741151072 0.0 0.0
6.10838999008079 0.0 0.0
6.13703750756741 0.0 0.0
6.181897872393696 0.0 0.0
6.218236169323636 0.0 0.0
6.239840194709541 0.0 0.0
6.2446254637397764 0.0 0.0
6.2325177778403145 0.0 0.0
6.2043660714238325 0.0 0.0
6.161444804622164 0.0 0.0
6.105095672783747 0.0 0.0
6.036527994937635 0.0 0.0
5.9569130273907405 0.0 0.0
5.867001594941301 0.0 0.0
5.767476065162528 0.0 0.0
5.65954616926155 0.0 0.0
5.543490640522008 0.0 0.0
5.4196984617699995 0.0 0.0
5.288546643229936 0.0 0.0
5.150378181490814 0.0 0.0
5.005492392188102 0.0 0.0
4.854289564533678 0.0 0.0
4.697037028102543 0.0 0.0
4.534047758597013 0.0 0.0
4.365695358994183 0.0 0.0
4.192321450054546 0.0 0.0
4.014320415085524 0.0 0.0
3.832144964876203 0.0 0.0
3.646219523575453 0.0 0.0
3.457088910712478 0.0 0.0
3.2653209468400086 0.0 0.0
3.071624657474348 0.0 0.0
2.876684449301976 0.0 0.0
2.6812620281399124 0.0 0.0
2.486180362521402 0.0 0.0
2.2923156523419257 0.0 0.0
2.1005866518997918 0.0 0.0
1.9119408722925177 0.0 0.0
1.7273362976330455 0.0 0.0
1.5477184168447544 0.0 0.0
1.3740048774530778 0.0 0.0
1.2070655937161472 0.0 0.0
1.0477084532241014 0.0 0.0
0.896674767210244 0.0 0.0
0.7546098345085552 0.0 0.0
0.6220683832213137 0.0 0.0
0.4994853948486744 0.0 0.0
0.3871305289389216 0.0 0.0
0.2849970031607668 0.0 0.0
0.1924346789291255 0.0 0.0
0.10646991465189495 0.0 0.0

SCALARS Gamma float
LOOKUP_TABLE default
0.4176451165507462
0.6419265757069552
0.8254780158476396
0.9906166159690138
1.144852623024426
1.2915010482819758
1.4321736635406113
1.5676863353958561
1.6984212476707548
1.8245062290731735
1.9459133115581146
2.062518686192685
2.1741437530646097
2.2805880291746496
2.38164761245959
2.4771243543036867
2.566876884155019
2.6508132993305615
2.728897471516317
2.80114773005214
2.8676243995583874
2.928524058684357
2.9839037676846463
3.03391606869092
3.0787477813604984
3.1186058757547013
3.153707094608188
3.184268264485969
3.210495345499254
3.2325611249916806
3.2505308947718716
3.264712532509016
3.2754448665057643
3.2827387278772244
3.286655431529634
3.2872314773282088
3.284469332397717
3.278399216899113
3.2685942232682943
3.2549599021291784
3.2372201345393443
3.215002280102703
3.1878616157949944
3.1552949973838924
3.116886579844456
3.0723982363391618
3.0220407569580114
2.9668693619299145
2.90960012239895
2.857261898163891
2.851517144951779
2.8918553928856072
2.9366544063574116
2.979208997373337
3.017026990577542
3.04912731116524
3.0753711234210765
3.096024478983958
3.1115488185778997
3.1224390622251783
3.129127974663043
3.132008631234185
3.1313499566125236
3.1272741315963835
3.1202344464171885
3.1101816028430953
3.097120521276281
3.08103328398684
3.0618703586099496
3.0395419379244046
3.0140021773759167
2.9851084493862348
2.952723502412005
2.9167264973954254
2.8769526382415167
2.8332454420884465
2.7854620994938353
2.7334116996395976
2.6769602456731523
2.615964392361389
2.5503659855801613
2.480068590410147
2.405019433026438
2.32520516728912
2.2406538835070515
2.1514353415398455
2.0576582548819524
1.9594619384841951
1.8569997298186196
1.7504259079464477
1.6398713833144811
1.5254167704365238
1.407067616825973
1.2846747686158675
1.1578727553265828
1.025908336018155
0.8873082849688287
0.7391066698196784
0.5745756797706394
0.37372540692148976
0.4176451165507462
0.6419265757069552
0.8254780158476396
0.9906166159690138
1.144852623024426
1.2915010482819758
1.4321736635406113
1.5676863353958561
1.6984212476707548
1.8245062290731735
1.9459133115581146
2.062518686192685
2.1741437530646097
2.2805880291746496
2.38164761245959
2.4771243543036867
2.566876884155019
2.6508132993305615
2.728897471516317
2.80114773005214
2.8676243995583874
2.928524058684357
2.9839037676846463
3.03391606869092
3.0787477813604984
3.1186058757547013
3.153707094608188
3.184268264485969
3.210495345499254
3.2325611249916806
3.2505308947718716
3.264712532509016
3.2754448665057643
3.2827387278772244
3.286655431529634
3.2872314773282088
3.284469332397717
3.278399216899113
3.2685942232682943
3.2549599021291784
3.2372201345393443
3.215002280102703
3.1878616157949944
3.1552949973838924
3.116886579844456
3.0723982363391618
3.0220407569580114
2.9668693619299145
2.90960012239895
2.857261898163891
2.851517144951779
2.8918553928856072
2.9366544063574116
2.979208997373337
3.017026990577542
3.04912731116524
3.0753711234210765
3.096024478983958
3.1115488185778997
3.1224390622251783
3.129127974663043
3.132008631234185
3.1313499566125236
3.1272741315963835
3.1202344464171885
3.1101816028430953
3.097120521276281
3.08103328398684
3.0618703586099496
3.0395419379244046
3.0140021773759167
2.9851084493862348
2.952723502412005
2.9167264973954254
2.8769526382415167
2.8332454420884465
2.7854620994938353
2.7334116996395976
2.6769602456731523
2.615964392361389
2.5503659855801613
2.480068590410147
2.405019433026438
2.32520516728912
2.2406538835070515
2.1514353415398455
2.0576582548819524
1.9594619384841951
1.8569997298186196
1.7504259079464477
1.6398713833144811