# vtk DataFile Version 4.0
[MyVLM domain - lattices] 
ASCII
DATASET UNSTRUCTURED_GRID
POINTS 302 float
0.034182456231286386 3.8576214753064204 -5.163053906016621
0.03405815639044534 3.8640141896664346 -5.162776002531981
0.033911025966592685 3.871581076051758 -5.16244705555016
0.033741064959728395 3.8803221344623915 -5.162067065071161
0.0335482733698525 3.8902373648983333 -5.161636031094984
0.03333265119696498 3.9013267673595835 -5.161153953621627
0.033094198441065835 3.9135903418461426 -5.160620832651091
0.03283291510215507 3.927028088358011 -5.160036668183376
0.0325488011802327 3.9416400068951876 -5.159401460218482
0.03224185667529869 3.9574260974576734 -5.158715208756409
0.03191208158735308 3.974386360045469 -5.157977913797158
0.03155947591639584 3.9925207946585726 -5.157189575340727
0.031184039662426975 4.011829401296985 -5.156350193387117
0.030785772825446495 4.032312179960706 -5.155459767936328
0.0303646754054544 4.053969130649737 -5.154518298988361
0.029920747402450678 4.076800253364076 -5.153525786543214
0.02945398881643534 4.1008055481037236 -5.152482230600889
0.02896439964740838 4.1259850148686805 -5.151387631161383
0.0284519798953698 4.152338653658946 -5.1502419882247
0.027916729560319604 4.179866464474522 -5.149045301790838
0.02735864864225778 4.208568447315405 -5.147797571859796
0.02677773714118434 4.238444602181597 -5.146498798431575
0.026173995057099286 4.269494929073098 -5.145148981506177
0.02554742239000261 4.301719427989909 -5.143748121083598
0.024898019139894315 4.3351180989320275 -5.142296217163841
0.024225785306774397 4.369690941899455 -5.140793269746904
0.02353072089064286 4.405437956892192 -5.139239278832789
0.0228128258914997 4.442359143910238 -5.137634244421495
0.022072100309344922 4.480454502953592 -5.135978166513022
0.021308544144178525 4.519724034022255 -5.134271045107369
0.02052215739600051 4.5601677371162275 -5.132512880204538
0.01971294006481087 4.601785612235509 -5.130703671804528
0.018880892150609615 4.644577659380099 -5.128843419907339
0.018026013653396736 4.688543878549997 -5.126932124512971
0.017148304573172242 4.733684269745205 -5.124969785621423
0.01624776490993612 4.779998832965722 -5.122956403232697
0.015324394663688385 4.827487568211548 -5.120891977346792
0.014378193834429032 4.876150475482682 -5.118776507963709
0.013409162422158057 4.925987554779125 -5.116609995083445
0.012417300426875465 4.976998806100877 -5.114392438706004
0.011402607848581249 5.029184229447938 -5.1121238388313825
0.010365084687275412 5.082543824820307 -5.109804195459583
0.009304730942957959 5.137077592217986 -5.107433508590604
0.008221546615628877 5.192785531640974 -5.105011778224446
0.007115531705288185 5.24966764308927 -5.10253900436111
0.005986686211935868 5.3077239265628755 -5.100015187000594
0.004835010135571932 5.36695438206179 -5.097440326142899
0.003660503476196377 5.427359009586013 -5.094814421788025
0.0024631662338092082 5.488937809135544 -5.092137473935972
0.001242998408410414 5.551690780710385 -5.089409482586741
0.0 5.615617924310535 -5.086630447740331
0.001242998408410416 5.618421082212953 -5.150556538105109
0.0024631662338092117 5.6211727535416545 -5.213308475789718
0.003660503476196388 5.623872938296637 -5.274886260794158
0.004835010135571945 5.626521636477903 -5.3352898931184285
0.005986686211935881 5.629118848085449 -5.394519372762529
0.007115531705288196 5.631664573119279 -5.452574699726461
0.008221546615628895 5.63415881157939 -5.509455874010223
0.00930473094295797 5.636601563465783 -5.565162895613816
0.010365084687275426 5.638992828778458 -5.619695764537239
0.011402607848581265 5.641332607517416 -5.673054480780493
0.01241730042687548 5.643620899682656 -5.725239044343578
0.013409162422158076 5.645857705274178 -5.776249455226493
0.014378193834429051 5.648043024291982 -5.826085713429238
0.01532439466368841 5.650176856736068 -5.874747818951814
0.01624776490993615 5.6522592026064356 -5.922235771794221
0.017148304573172266 5.654290061903086 -5.9685495719564585
0.018026013653396764 5.656269434626019 -6.013689219438527
0.018880892150609646 5.658197320775233 -6.057654714240426
0.0197129400648109 5.66007372035073 -6.100446056362156
0.02052215739600054 5.661898633352508 -6.142063245803715
0.02130854414417856 5.663672059780569 -6.182506282565106
0.022072100309344957 5.665393999634912 -6.221775166646327
0.02281282589149973 5.667064452915537 -6.259869898047379
0.02353072089064289 5.668683419622444 -6.296790476768261
0.02422578530677443 5.670250899755633 -6.3325369028089735
0.02489801913989435 5.671766893315104 -6.367109176169517
0.025547422390002655 5.673231400300858 -6.4005072968498915
0.02617399505709933 5.674644420712894 -6.432731264850096
0.026777737141184386 5.676005954551211 -6.463781080170131
0.027358648642257826 5.677316001815811 -6.493656742809997
0.027916729560319646 5.678574562506693 -6.522358252769694
0.028451979895369846 5.679781636623857 -6.549885610049221
0.028964399647408417 5.680937224167303 -6.576238814648578
0.029453988816435375 5.682041325137031 -6.6014178665677665
0.029920747402450727 5.683093939533041 -6.625422765806785
0.030364675405454452 5.684095067355333 -6.648253512365634
0.03078577282544654 5.6850447086039075 -6.6699101062443145
0.031184039662427027 5.685942863278765 -6.690392547442826
0.03155947591639588 5.686789531379903 -6.709700835961168
0.031912081587353126 5.6875847129073245 -6.727834971799339
0.03224185667529875 5.688328407861027 -6.744794954957341
0.032548801180232755 5.689020616241011 -6.760580785435175
0.03283291510215513 5.689661338047279 -6.7751924632328375
0.03309419844106589 5.690250573279828 -6.788629988350332
0.033332651196965025 5.69078832193866 -6.800893360787657
0.03354827336985255 5.691274584023773 -6.811982580544812
0.03374106495972845 5.691709359535168 -6.821897647621798
0.033911025966592734 5.692092648472846 -6.830638562018615
0.0340581563904454 5.692424450836806 -6.838205323735262
0.03418245623128644 5.692704766627048 -6.84459793277174
0.04785543872380095 3.521439553968899 -5.529932094678162
0.04773113888295991 3.527832268328914 -5.52965419119352
0.04758400845910725 3.535399154714238 -5.529325244211701
0.047414047452242966 3.5441402131248703 -5.528945253732702
0.04722125586236707 3.554055443560812 -5.528514219756524
0.04700563368947954 3.565144846022063 -5.528032142283167
0.046767180933580406 3.577408420508622 -5.527499021312631
0.046505897594669644 3.5908461670204903 -5.5269148568449165
0.04622178367274726 3.6054580855576672 -5.526279648880022
0.04591483916781326 3.621244176120153 -5.52559339741795
0.04558506407986765 3.6382044387079486 -5.524856102458697
0.045232458408910416 3.656338873321052 -5.524067764002267
0.04485702215494155 3.6756474799594643 -5.523228382048657
0.04445875531796107 3.6961302586231852 -5.522337956597869
0.04403765789796897 3.717787209312216 -5.521396487649901
0.04359372989496525 3.740618332026555 -5.520403975204754
0.043126971308949914 3.764623626766203 -5.519360419262428
0.04263738213992295 3.78980309353116 -5.518265819822924
0.04212496238788437 3.8161567323214265 -5.51712017688624
0.04158971205283417 3.843684543137001 -5.515923490452378
0.04103163113477235 3.872386525977884 -5.514675760521336
0.04045071963369891 3.902262680844077 -5.513376987093116
0.03984697754961385 3.9333130077355776 -5.512027170167716
0.03922040488251717 3.965537506652388 -5.510626309745138
0.038571001632408876 3.998936177594507 -5.509174405825381
0.03789876779928896 4.033509020561935 -5.507671458408445
0.03720370338315743 4.069256035554671 -5.506117467494329
0.03648580838401427 4.1061772225727164 -5.504512433083034
0.03574508280185949 4.144272581616072 -5.502856355174561
0.0349815266366931 4.183542112684735 -5.50114923376891
0.03419513988851507 4.223985815778708 -5.499391068866078
0.03338592255732544 4.265603690897988 -5.4975818604660684
0.03255387464312418 4.308395738042578 -5.4957216085688785
0.03169899614591131 4.3523619572124765 -5.493810313174511
0.030821287065686806 4.397502348407684 -5.491847974282964
0.02992074740245069 4.443816911628201 -5.489834591894238
0.028997377156202958 4.491305646874027 -5.487770166008333
0.028051176326943598 4.539968554145162 -5.485654696625248
0.027082144914672625 4.589805633441604 -5.483488183744986
0.026090282919390032 4.640816884763356 -5.481270627367544
0.02507559034109582 4.693002308110417 -5.479002027492923
0.02403806717978998 4.746361903482787 -5.476682384121123
0.022977713435472526 4.8008956708804655 -5.474311697252144
0.021894529108143445 4.856603610303454 -5.471889966885986
0.02078851419780275 4.91348572175175 -5.46941719302265
0.019659668704450437 4.971542005225356 -5.466893375662134
0.0185079926280865 5.030772460724269 -5.4643185148044395
0.017333485968710944 5.091177088248492 -5.461692610449566
0.016136148726323775 5.152755887798024 -5.459015662597513
0.014915980900924981 5.215508859372865 -5.4562876712482815
0.013672982492514566 5.279436002973014 -5.453508636401871
0.014915980900924983 5.2822391608754335 -5.517434726766649
0.016136148726323782 5.284990832204134 -5.580186664451259
0.017333485968710958 5.2876910169591165 -5.641764449455699
0.018507992628086514 5.290339715140382 -5.702168081779969
0.019659668704450448 5.292936926747929 -5.76139756142407
0.020788514197802765 5.295482651781758 -5.8194528883880015
0.021894529108143462 5.297976890241869 -5.876334062671763
0.022977713435472537 5.300419642128262 -5.932041084275356
0.02403806717978999 5.302810907440938 -5.986573953198779
0.025075590341095834 5.305150686179895 -6.039932669442034
0.02609028291939005 5.307438978345136 -6.092117233005117
0.027082144914672642 5.309675783936657 -6.1431276438880325
0.028051176326943622 5.311861102954461 -6.192963902090779
0.02899737715620298 5.313994935398547 -6.241626007613355
0.029920747402450716 5.316077281268916 -6.2891139604557615
0.030821287065686837 5.318108140565566 -6.335427760617999
0.03169899614591134 5.320087513288498 -6.380567408100068
0.03255387464312421 5.322015399437713 -6.424532902901966
0.03338592255732547 5.323891799013209 -6.467324245023695
[...]
CELL_DATA 200

VECTORS Vinf float
5.170843047783406 -35.4098978473335 -23.130231792972758
5.156898635816388 -35.40951619207924 -23.178579498589297
5.140842600492701 -35.40907499021124 -23.234998999816458
5.122801225257193 -35.40857526985899 -23.29945996492913
5.102929098287899 -35.40801741196874 -23.371926910695134
5.0814109795482 -35.40740086418895 -23.452359302450756
5.058462532375 -35.40672385082003 -23.54071190605605
5.034329518280615 -35.405983096887454 -23.636935446996812
5.009285114392819 -35.40517358790756 -23.74097761290454
4.9836251344767755 -35.4042883891535 -23.852784405892052
4.957661120039312 -35.40331854831225 -23.9723018111162
4.931711508978098 -35.40225310255559 -24.099477701119362
4.906091361674411 -35.40107920465905 -24.23426384776241
4.881101388581295 -35.39978237291671 -24.3766178735499
4.857017227735083 -35.39834685689965 -24.526504951658907
4.834080011590601 -35.39675609717095 -24.683899067976693
4.8116568075488395 -35.39391503526262 -24.85051980747623
4.792086644463295 -35.392332057204996 -25.022247195776387
4.773673681824136 -35.39035845288804 -25.20184776717568
4.756604824819683 -35.38794335207714 -25.38935967263193
4.741042722116932 -35.38503438204369 -25.584828284310046
4.726488071128889 -35.385646804820276 -25.780516791436682
4.715336170592607 -35.382022143439706 -25.991331459603444
4.7053251180541915 -35.37822348301415 -26.209680997942495
4.69659658045855 -35.374236752643036 -26.43555415231148
4.689272756470298 -35.37004813906093 -26.668942996778817
4.683461431701905 -35.36564428337832 -26.90984161443014
4.679262127885416 -35.361012345668634 -27.158244797290635
4.676772653473077 -35.35613995065532 -27.414146897551372
4.676070893193959 -35.35086801802407 -27.677363377414668
4.676045757872075 -35.34559927784109 -27.948281458247457
4.677363237250291 -35.34004170796117 -28.22683823122742
4.680168328678245 -35.33417332197063 -28.513033243883037
4.684603122663249 -35.3279720762081 -28.806867487924578
4.690812107917026 -35.32141595827647 -29.10834249145673
4.698943672829004 -35.31448309693147 -29.417460038028064
4.7038268735053 -35.308476745446825 -29.73317097864588
4.71447252571113 -35.30070759144514 -30.05836350011896
4.727139617597874 -35.29257360803512 -30.391215443157616
4.741776888783051 -35.2840667745378 -30.731753435629493
4.758189910230747 -35.275186251441156 -31.080018579309094
4.776360255850587 -35.266377626137555 -31.43536306658321
4.79430366763799 -35.25698048330903 -31.799103330252564
4.812182137850471 -35.247319685376524 -32.17073175939652
4.828838245155719 -35.23744518034528 -32.55036660866063
4.8430931183811365 -35.22741469376301 -32.93811650974498
4.85413779365977 -35.21705182503266 -33.33419714906629
4.861224982002743 -35.206999781512025 -33.738158252838446
4.865024727955701 -35.196914202067745 -34.1502459327332
4.8663299301616725 -35.18678766913113 -34.57034987084716
4.867770441140007 -35.39312602096261 -34.78728577089869
4.869745011858394 -35.812096715642646 -34.797034534810805
4.869542395634142 -36.22347717545932 -34.80672315429598
4.865777500009129 -36.62788065271817 -34.81574436970573
4.858410018077412 -37.024212355905554 -34.825635747814985
4.847406014804734 -37.41320877004969 -34.8354059951889
4.833732962825519 -37.79479946703612 -34.844990799011015
4.818627726954853 -38.168875544455325 -34.854324393094956
4.802958843665129 -38.53556541354618 -34.86313839746324
4.788361468199322 -38.89394437643672 -34.87227579904363
4.774631122973127 -39.24462360255549 -34.880986132888
4.762132082252399 -39.58754962511482 -34.88927227641887
4.7510145865001165 -39.922690118862306 -34.897148003216195
4.742587096159786 -40.251705595033215 -34.901991283477756
4.735305365541869 -40.57037982912395 -34.91012053589489
4.728961051441034 -40.88140262748935 -34.9177195976785
4.723476839588487 -41.18476438096916 -34.92482010503414
4.7187938289373905 -41.480454789066734 -34.93145165161978
4.714875140799888 -41.76846214524912 -34.93764180624585
4.711567869705977 -42.04896820210774 -34.94321275370173
4.712156841292405 -42.32020268808376 -34.94961025734853
4.711794406404426 -42.58459757477232 -34.955019539471
4.712401401133716 -42.841144830824696 -34.96018973000137
4.714030366614442 -43.08983873334005 -34.96512269948019
4.716754004191189 -43.330671555875064 -34.96981989980364
4.720663175564552 -43.563633709498845 -34.97428257167561
4.725864224717474 -43.78871393900966 -34.97851194738497
4.732474995721086 -44.00589963202766 -34.98250946198638
4.7406189107762815 -44.21517730479122 -34.986276981621906
4.750416670895352 -44.41653331463146 -34.98981704884626
4.761975565538599 -44.60995481278934 -34.993133132825434
4.775376965008575 -44.79543089736722 -34.996229860012505
4.7906631791674 -44.97295386734974 -34.99911319207778
4.807825318378416 -45.14252043152664 -35.001790515870475
4.826793933497541 -45.30413270598701 -35.00427061673181
4.847433971584669 -45.457798848550105 -35.00656352084848
4.869545004062496 -45.60353322591944 -35.00868021141858
4.89286690107398 -45.74135607817846 -35.01063224276863
4.917090323887005 -45.87129271912401 -35.01243129180056
4.941870759221605 -45.993372373727624 -35.014088694223176
4.966844440505706 -46.107626794238605 -35.015615012857154
4.991644428040199 -46.21408880951008 -35.01701967788619
5.015915317210561 -46.31279095009708 -35.01831072656276
5.039325427516992 -46.403764261332014 -35.01949465551143
5.061575794172 -46.4870373766637 -35.020576385075785
5.0824057462043015 -46.56263588246971 -35.02155932406821
5.101595243783191 -46.630581969613985 -35.02244551582436
5.118964427288051 -46.6908943399506 -35.0232358427444
5.134370994053812 -46.74358831890428 -35.02393026603666
5.147706078616972 -46.78867611747745 -35.02452807927983
5.170843047783406 -35.4098978473335 -23.130231792972758
5.156898635816388 -35.40951619207924 -23.178579498589297
5.140842600492701 -35.40907499021124 -23.234998999816458
5.122801225257193 -35.40857526985899 -23.29945996492913
5.102929098287899 -35.40801741196874 -23.371926910695134
5.0814109795482 -35.40740086418895 -23.452359302450756
5.058462532375 -35.40672385082003 -23.54071190605605
5.034329518280615 -35.405983096887454 -23.636935446996812
5.009285114392819 -35.40517358790756 -23.74097761290454
4.9836251344767755 -35.4042883891535 -23.852784405892052
4.957661120039312 -35.40331854831225 -23.9723018111162
4.931711508978098 -35.40225310255559 -24.099477701119362
4.906091361674411 -35.40107920465905 -24.23426384776241
4.881101388581295 -35.39978237291671 -24.3766178735499
4.857017227735083 -35.39834685689965 -24.526504951658907
4.834080011590601 -35.39675609717095 -24.683899067976693
4.8116568075488395 -35.39391503526262 -24.85051980747623
4.792086644463295 -35.392332057204996 -25.022247195776387
4.773673681824136 -35.39035845288804 -25.20184776717568
4.756604824819683 -35.38794335207714 -25.38935967263193
4.741042722116932 -35.38503438204369 -25.584828284310046
4.726488071128889 -35.385646804820276 -25.780516791436682
4.715336170592607 -35.382022143439706 -25.991331459603444
4.7053251180541915 -35.37822348301415 -26.209680997942495
4.69659658045855 -35.374236752643036 -26.43555415231148
4.689272756470298 -35.37004813906093 -26.668942996778817
4.683461431701905 -35.36564428337832 -26.90984161443014
4.679262127885416 -35.361012345668634 -27.158244797290635
4.676772653473077 -35.35613995065532 -27.414146897551372
4.676070893193959 -35.35086801802407 -27.677363377414668
4.676045757872075 -35.34559927784109 -27.948281458247457
4.677363237250291 -35.34004170796117 -28.22683823122742
4.680168328678245 -35.33417332197063 -28.513033243883037
4.684603122663249 -35.3279720762081 -28.806867487924578
4.690812107917026 -35.32141595827647 -29.10834249145673
4.698943672829004 -35.31448309693147 -29.417460038028064
4.7038268735053 -35.308476745446825 -29.73317097864588
4.71447252571113 -35.30070759144514 -30.05836350011896
4.727139617597874 -35.29257360803512 -30.391215443157616
4.741776888783051 -35.2840667745378 -30.731753435629493
4.758189910230747 -35.275186251441156 -31.080018579309094
4.776360255850587 -35.266377626137555 -31.43536306658321
4.79430366763799 -35.25698048330903 -31.799103330252564
4.812182137850471 -35.247319685376524 -32.17073175939652
4.828838245155719 -35.23744518034528 -32.55036660866063
4.8430931183811365 -35.22741469376301 -32.93811650974498
4.85413779365977 -35.21705182503266 -33.33419714906629
4.861224982002743 -35.206999781512025 -33.738158252838446
4.865024727955701 -35.196914202067745 -34.1502459327332
4.8663299301616725 -35.18678766913113 -34.57034987084716
4.867770441140007 -35.39312602096261 -34.78728577089869
4.869745011858394 -35.812096715642646 -34.797034534810805
4.869542395634142 -36.22347717545932 -34.80672315429598
4.865777500009129 -36.62788065271817 -34.81574436970573
4.858410018077412 -37.024212355905554 -34.825635747814985
4.847406014804734 -37.41320877004969 -34.8354059951889
4.833732962825519 -37.79479946703612 -34.844990799011015
4.818627726954853 -38.168875544455325 -34.854324393094956
4.802958843665129 -38.53556541354618 -34.86313839746324
4.788361468199322 -38.89394437643672 -34.87227579904363
4.774631122973127 -39.24462360255549 -34.880986132888
4.762132082252399 -39.58754962511482 -34.88927227641887
4.7510145865001165 -39.922690118862306 -34.897148003216195
4.742587096159786 -40.251705595033215 -34.901991283477756
4.735305365541869 -40.57037982912395 -34.91012053589489
4.728961051441034 -40.88140262748935 -34.9177195976785
4.723476839588487 -41.18476438096916 -34.92482010503414
4.7187938289373905 -41.480454789066734 -34.93145165161978
4.714875140799888 -41.76846214524912 -34.93764180624585
4.711567869705977 -42.04896820210774 -34.94321275370173
4.712156841292405 -42.32020268808376 -34.94961025734853
4.711794406404426 -42.58459757477232 -34.955019539471
4.712401401133716 -42.841144830824696 -34.96018973000137
4.714030366614442 -43.08983873334005 -34.96512269948019
4.716754004191189 -43.330671555875064 -34.96981989980364
4.720663175564552 -43.563633709498845 -34.97428257167561
4.725864224717474 -43.78871393900966 -34.97851194738497
4.732474995721086 -44.00589963202766 -34.98250946198638
4.7406189107762815 -44.21517730479122 -34.986276981621906
4.750416670895352 -44.41653331463146 -34.98981704884626
4.761975565538599 -44.60995481278934 -34.993133132825434
4.775376965008575 -44.79543089736722 -34.996229860012505
4.7906631791674 -44.97295386734974 -34.99911319207778
4.807825318378416 -45.14252043152664 -35.001790515870475
4.826793933497541 -45.30413270598701 -35.00427061673181
4.847433971584669 -45.457798848550105 -35.00656352084848
4.869545004062496 -45.60353322591944 -35.00868021141858
4.89286690107398 -45.74135607817846 -35.01063224276863
4.917090323887005 -45.87129271912401 -35.01243129180056
4.941870759221605 -45.993372373727624 -35.014088694223176
4.966844440505706 -46.107626794238605 -35.015615012857154
4.991644428040199 -46.21408880951008 -35.01701967788619
5.015915317210561 -46.31279095009708 -35.01831072656276
5.039325427516992 -46.403764261332014 -35.01949465551143
5.061575794172 -46.4870373766637 -35.020576385075785
5.0824057462043015 -46.56263588246971 -35.02155932406821
5.101595243783191 -46.630581969613985 -35.02244551582436
5.118964427288051 -46.6908943399506 -35.0232358427444
5.134370994053812 -46.74358831890428 -35.02393026603666
5.147706078616972 -46.78867611747745 -35.02452807927983

VECTORS L float
0.05771591686049648 0.0 0.0
0.10435916290178891 0.0 0.0
0.15495097362342203 0.0 0.0
0.21119376940698015 0.0 0.0
0.27357264447723145 0.0 0.0
0.34224369894944895 0.0 0.0
0.4172259743948354 0.0 0.0
0.4984596674623993 0.0 0.0
0.5858272438576223 0.0 0.0
0.6791619113650863 0.0 0.0
0.7782516079566839 0.0 0.0
0.8828418543303941 0.0 0.0
0.9926391976961733 0.0 0.0
1.1073163517422888 0.0 0.0
1.2265193707509958 0.0 0.0
1.3498775266766379 0.0 0.0
1.4770062506072403 0.0 0.0
1.6075548481919657 0.0 0.0
1.7411440351447098 0.0 0.0
1.8774108819105764 0.0 0.0
2.0161067677575315 0.0 0.0
2.1569075961655293 0.0 0.0
2.2995726330548982 0.0 0.0
2.4438294688063693 0.0 0.0
2.5894554580724125 0.0 0.0
2.7362583764011514 0.0 0.0
2.884065776035387 0.0 0.0
3.0327318645485066 0.0 0.0
3.182109591010321 0.0 0.0
3.3320724854349097 0.0 0.0
3.4824244775446145 0.0 0.0
3.633015097583985 0.0 0.0
3.78367202827884 0.0 0.0
3.9341909782539126 0.0 0.0
4.084323032843501 0.0 0.0
4.233740979245135 0.0 0.0
4.381890114272903 0.0 0.0
4.528642099847785 0.0 0.0
4.6733014541559355 0.0 0.0
4.815083924541753 0.0 0.0
4.953006638089038 0.0 0.0
5.085889920967033 0.0 0.0
5.21224312420932 0.0 0.0
5.330516653140624 0.0 0.0
5.439069130766058 0.0 0.0
5.536475362313977 0.0 0.0
5.622044713204185 0.0 0.0
5.696910599738167 0.0 0.0
5.766555599608432 0.0 0.0
5.855161196389576 0.0 0.0
6.1050061394785 0.0 0.0
6.133714635893585 0.0 0.0
6.178604769752565 0.0 0.0
6.214982589573056 0.0 0.0
6.236592154172267 0.0 0.0
6.241372511523828 0.0 0.0
6.229250379234459 0.0 0.0
6.201096653626486 0.0 0.0
6.158158640437194 0.0 0.0
6.101817815415165 0.0 0.0
6.033279323672538 0.0 0.0
5.95364804388503 0.0 0.0
5.863879345112627 0.0 0.0
5.764819165811649 0.0 0.0
5.657017218953835 0.0 0.0
5.540984757362489 0.0 0.0
5.417172903302719 0.0 0.0
5.285987673683279 0.0 0.0
5.147803557436458 0.0 0.0
5.0029730237098 0.0 0.0
4.851928432858675 0.0 0.0
4.694780277086303 0.0 0.0
4.531895310269649 0.0 0.0
4.363629122455655 0.0 0.0
4.190342294976762 0.0 0.0
4.01241618521586 0.0 0.0
3.830289323931672 0.0 0.0
3.6444438134101667 0.0 0.0
3.4554093003594564 0.0 0.0
3.2637741171828667 0.0 0.0
3.070185363850766 0.0 0.0
2.875356590767383 0.0 0.0
2.680037055411814 0.0 0.0
2.485054622571393 0.0 0.0
2.291287424803525 0.0 0.0
2.099651078286814 0.0 0.0
1.9110941971938737 0.0 0.0
1.7265744643380696 0.0 0.0
1.547039301485166 0.0 0.0
1.3734052921682889 0.0 0.0
1.206542527496184 0.0 0.0
1.047259465040003 0.0 0.0
0.8962912260643907 0.0 0.0
0.754288567853182 0.0 0.0
0.62180462482832 0.0 0.0
0.49927415670165726 0.0 0.0
0.386967462698122 0.0 0.0
0.2848774779523814 0.0 0.0
0.1923543513237583 0.0 0.0
0.10642573204701508 0.0 0.0
0.05771591686049648 0.0 0.0
0.10435916290178891 0.0 0.0
0.15495097362342203 0.0 0.0
0.21119376940698015 0.0 0.0
0.27357264447723145 0.0 0.0
0.34224369894944895 0.0 0.0
0.4172259743948354 0.0 0.0
0.4984596674623993 0.0 0.0
0.5858272438576223 0.0 0.0
0.6791619113650863 0.0 0.0
0.7782516079566839 0.0 0.0
0.8828418543303941 0.0 0.0
0.9926391976961733 0.0 0.0
1.1073163517422888 0.0 0.0
1.2265193707509958 0.0 0.0
1.3498775266766379 0.0 0.0
1.4770062506072403 0.0 0.0
1.6075548481919657 0.0 0.0
1.7411440351447098 0.0 0.0
1.8774108819105764 0.0 0.0
2.0161067677575315 0.0 0.0
2.1569075961655293 0.0 0.0
2.2995726330548982 0.0 0.0
2.4438294688063693 0.0 0.0
2.5894554580724125 0.0 0.0
2.7362583764011514 0.0 0.0
2.884065776035387 0.0 0.0
3.0327318645485066 0.0 0.0
3.182109591010321 0.0 0.0
3.3320724854349097 0.0 0.0
3.4824244775446145 0.0 0.0
3.633015097583985 0.0 0.0
3.78367202827884 0.0 0.0
3.9341909782539126 0.0 0.0
4.084323032843501 0.0 0.0
4.233740979245135 0.0 0.0
4.381890114272903 0.0 0.0
4.528642099847785 0.0 0.0
4.6733014541559355 0.0 0.0
4.815083924541753 0.0 0.0
4.953006638089038 0.0 0.0
5.085889920967033 0.0 0.0
5.21224312420932 0.0 0.0
5.330516653140624 0.0 0.0
5.439069130766058 0.0 0.0
5.536475362313977 0.0 0.0
5.622044713204185 0.0 0.0
5.696910599738167 0.0 0.0
5.766555599608432 0.0 0.0
5.855161196389576 0.0 0.0
6.1050061394785 0.0 0.0
6.133714635893585 0.0 0.0
6.178604769752565 0.0 0.0
6.214982589573056 0.0 0.0
6.236592154172267 0.0 0.0
6.241372511523828 0.0 0.0
6.229250379234459 0.0 0.0
6.201096653626486 0.0 0.0
6.158158640437194 0.0 0.0
6.101817815415165 0.0 0.0
6.033279323672538 0.0 0.0
5.95364804388503 0.0 0.0
5.863879345112627 0.0 0.0
5.764819165811649 0.0 0.0
5.657017218953835 0.0 0.0
5.540984757362489 0.0 0.0
5.417172903302719 0.0 0.0
5.285987673683279 0.0 0.0
5.147803557436458 0.0 0.0
5.0029730237098 0.0 0.0
4.851928432858675 0.0 0.0
4.694780277086303 0.0 0.0
4.531895310269649 0.0 0.0
4.363629122455655 0.0 0.0
4.190342294976762 0.0 0.0
4.01241618521586 0.0 0.0
3.830289323931672 0.0 0.0
3.6444438134101667 0.0 0.0
3.4554093003594564 0.0 0.0
3.2637741171828667 0.0 0.0
3.070185363850766 0.0 0.0
2.875356590767383 0.0 0.0
2.680037055411814 0.0 0.0
2.485054622571393 0.0 0.0
2.291287424803525 0.0 0.0
2.099651078286814 0.0 0.0
1.9110941971938737 0.0 0.0
1.7265744643380696 0.0 0.0
1.547039301485166 0.0 0.0
1.3734052921682889 0.0 0.0
1.206542527496184 0.0 0.0
1.047259465040003 0.0 0.0
0.8962912260643907 0.0 0.0
0.754288567853182 0.0 0.0
0.62180462482832 0.0 0.0
0.49927415670165726 0.0 0.0
0.386967462698122 0.0 0.0
0.2848774779523814 0.0 0.0
0.1923543513237583 0.0 0.0
0.10642573204701508 0.0 0.0

SCALARS Gamma float
LOOKUP_TABLE default
0.41736052771030374
0.6414933970028251
0.8249309077663541
0.9899856269478056
1.1441529553682521
1.2907244880707038
1.4313198734669976
1.5667559184470556
1.697414956900868
1.8234247971205413
1.9447572349109
2.0612879886983735
2.172837359938745
2.279201067584437
2.3801752369668066
2.4755783102317444
2.565255448966987
2.649150164108163
2.7271904564196903
2.7993615741235685
2.865826613459898
2.9266420016533963
2.9819787488986695
3.031962329156447
3.076775838912908
3.1166272190872877
3.151732832895459
3.182322035986024
3.2086068265505254
3.2308041188782983
3.2490531828161275
3.2635294023597536
3.2743804122776083
3.28172191967587
3.285632555806338
3.2861337705316203
3.283093709517974
3.276711597660847
3.2667848923655223
3.2530912191047925
3.235323455559571
3.213106421593597
3.18594300547063
3.153383201025735
3.115001499977754
3.070560777247228
3.020246331692993
2.9651054913774524
2.907870133028673
2.8555611064401085
2.849838895053663
2.8901869406899383
2.9349866950426424
2.977546468897525
3.0153527824002317
3.047435212955807
3.073655172770424
3.094289317989561
3.1097857370010784
3.1206590661890186
3.127340483698504
3.130214586069996
3.129593316750128
3.1257343029706224
3.118737205653911
3.1086741756401177
3.0955771651414303
3.0794437376675687
3.0602423897187983
3.037915814754462
3.012440655987503
2.983580574466252
2.9512299418341987
2.9152563255558106
2.875506837768402
2.831816137891759
2.7840305824089295
2.7320000698269644
2.675581580544949
2.6146492636718057
2.549097856668153
2.478853446360169
2.4038532227682303
2.324087839910665
2.239587350983219
2.1504187287492607
2.056691783627641
1.9585456271321942
1.8561359716185326
1.749616318898888
1.6391182285648394
1.524723717108403
1.4064297325067456
1.2840950605604582
1.157352342339611
1.0254483519844424
0.8869118556361852
0.7387776299440836
0.5743207377315854
0.37356007532173835
0.41736052771030374
0.6414933970028251
0.8249309077663541
0.9899856269478056
1.1441529553682521
1.2907244880707038
1.4313198734669976
1.5667559184470556
1.697414956900868
1.8234247971205413
1.9447572349109
2.0612879886983735
2.172837359938745
2.279201067584437
2.3801752369668066
2.4755783102317444
2.565255448966987
2.649150164108163
2.7271904564196903
2.7993615741235685
2.865826613459898
2.9266420016533963
2.9819787488986695
3.031962329156447
3.076775838912908
3.1166272190872877
3.151732832895459
3.182322035986024
3.2086068265505254
3.2308041188782983
3.2490531828161275
3.2635294023597536
3.2743804122776083
3.28172191967587
3.285632555806338
3.2861337705316203
3.283093709517974
3.276711597660847
3.2667848923655223
3.2530912191047925
3.235323455559571
3.213106421593597
3.18594300547063
3.153383201025735
3.115001499977754
3.070560777247228
3.020246331692993
2.9651054913774524
2.907870133028673
2.8555611064401085
2.849838895053663
2.8901869406899383
2.9349866950426424
2.977546468897525
3.0153527824002317
3.047435212955807
3.073655172770424
3.094289317989561
3.1097857370010784
3.1206590661890186
3.127340483698504
3.130214586069996
3.129593316750128
3.1257343029706224
3.118737205653911
3.1086741756401177
3.0955771651414303
3.0794437376675687
3.0602423897187983
3.037915814754462
3.012440655987503
2.983580574466252
2.9512299418341987
2.9152563255558106
2.875506837768402
2.831816137891759
2.7840305824089295
2.7320000698269644
2.675581580544949
2.6146492636718057