# vtk DataFile Version 4.0
[MyVLM domain - lattices] 
ASCII
DATASET UNSTRUCTURED_GRID
POINTS 302 float
0.03418245623128626 -4.253337805070693 -4.8290202938739775
0.03405815639044522 -4.251954040365468 -4.835267631104838
0.03391102596659256 -4.250316114796018 -4.842662438439325
0.033741064959728284 -4.248424028362343 -4.85120471587744
0.03354827336985238 -4.2462777810644425 -4.860894463419182
0.03333265119696486 -4.243877372902317 -4.871731681064551
0.033094198441065724 -4.241222803875966 -4.883716368813548
0.03283291510215496 -4.238314073985391 -4.896848526666172
0.03254880118023258 -4.235151183230591 -4.911128154622424
0.03224185667529858 -4.2317341316115655 -4.926555252682303
0.03191208158735296 -4.228062919128315 -4.943129820845809
0.03155947591639572 -4.22413754578084 -4.9608518591129425
0.03118403966242687 -4.219958011569139 -4.9797213674837035
0.030785772825446388 -4.215524316493213 -4.999738345958092
0.03036467540545429 -4.210836460553063 -5.0209027945361075
0.029920747402450574 -4.205894443748687 -5.0432147132177505
0.029453988816435236 -4.200698266080087 -5.066674102003022
0.02896439964740827 -4.1952479275472605 -5.09128096089192
0.028451979895369697 -4.18954342815021 -5.117035289884445
0.027916729560319497 -4.183584767888934 -5.143937088980597
0.027358648642257687 -4.177371946763433 -5.171986358180377
0.026777737141184248 -4.170904964773707 -5.201183097483785
0.026173995057099195 -4.164183821919757 -5.231527306890818
0.025547422390002513 -4.157208518201581 -5.263018986401481
0.02489801913989422 -4.14997905361918 -5.295658136015771
0.02422578530677431 -4.142495428172554 -5.329444755733687
0.023530720890642773 -4.134757641861703 -5.3643788455552315
0.022812825891499616 -4.126765694686627 -5.400460405480402
0.022072100309344846 -4.118519586647326 -5.437689435509201
0.02130854414417845 -4.1100193177438 -5.4760659356416275
0.020522157396000433 -4.101264887976049 -5.515589905877681
0.019712940064810797 -4.092256297344073 -5.556261346217362
0.018880892150609545 -4.082993545847871 -5.59808025666067
0.01802601365339667 -4.073476633487445 -5.641046637207605
0.01714830457317218 -4.063705560262794 -5.685160487858169
0.016247764909936065 -4.053680326173917 -5.730421808612359
0.015324394663688328 -4.043400931220816 -5.776830599470177
0.014378193834428978 -4.03286737540349 -5.824386860431622
0.013409162422158009 -4.022079658721938 -5.873090591496694
0.012417300426875418 -4.011037781176162 -5.922941792665394
0.011402607848581207 -3.9997417427661603 -5.97394046393772
0.010365084687275376 -3.9881915434919346 -6.026086605313675
0.009304730942957926 -3.9763871833534825 -6.079380216793257
0.00822154661562885 -3.964328662350806 -6.133821298376466
0.007115531705288158 -3.9520159804839046 -6.189409850063303
0.005986686211935846 -3.939449137752778 -6.246145871853766
0.004835010135571915 -3.926628134157426 -6.3040293637478575
0.0036605034761963643 -3.9135529696978497 -6.363060325745576
0.002463166233809199 -3.900223644374048 -6.4232387578469226
0.0012429984084104092 -3.886640158186021 -6.484564660051896
0.0 -3.8728025111337696 -6.547038032360495
0.001242998408410413 -3.935270657283295 -6.560899253092928
0.002463166233809206 -3.9965914293198708 -6.574505879975173
0.0036605034761963795 -4.056764827243495 -6.58785791300723
0.004835010135571933 -4.11579085105417 -6.600955352189098
0.005986686211935866 -4.1736695007518945 -6.613798197520782
0.007115531705288179 -4.230400776336667 -6.6263864490022755
0.008221546615628872 -4.285984677808491 -6.638720106633584
0.009304730942957947 -4.340421205167363 -6.650799170414702
0.0103650846872754 -4.393710358413285 -6.662623640345634
0.011402607848581237 -4.445852137546257 -6.674193516426379
0.012417300426875453 -4.496846542566279 -6.685508798656936
0.013409162422158043 -4.546693573473349 -6.696569487037305
0.014378193834429018 -4.595393230267469 -6.707375581567487
0.015324394663688373 -4.642945512948639 -6.71792708224748
0.016247764909936107 -4.689350421516858 -6.728223989077288
0.017148304573172225 -4.734607955972127 -6.738266302056908
0.01802601365339672 -4.778718116314446 -6.74805402118634
0.018880892150609598 -4.821680902543814 -6.757587146465583
0.019712940064810856 -4.863496314660231 -6.766865677894639
0.020522157396000492 -4.904164352663698 -6.775889615473509
0.021308544144178505 -4.943685016554214 -6.78465895920219
0.0220721003093449 -4.98205830633178 -6.793173709080683
0.022812825891499675 -5.019284221996395 -6.80143386510899
0.023530720890642832 -5.055362763548061 -6.809439427287109
0.02422578530677437 -5.090293930986775 -6.817190395615041
0.02489801913989429 -5.124077724312539 -6.824686770092785
0.025547422390002586 -5.1567141435253525 -6.831928550720341
0.026173995057099265 -5.188203188625216 -6.83891573749771
0.02677773714118432 -5.218544859612129 -6.845648330424892
0.027358648642257764 -5.247739156486091 -6.8521263295018855
0.027916729560319577 -5.275786079247101 -6.858349734728692
0.028451979895369774 -5.302685627895163 -6.86431854610531
0.02896439964740835 -5.328437802430273 -6.870032763631741
0.02945398881643531 -5.353042602852434 -6.875492387307985
0.029920747402450647 -5.376500029161644 -6.880697417134041
0.030364675405454372 -5.398810081357903 -6.8856478531099095
0.030785772825446464 -5.419972759441212 -6.8903436952355905
0.031184039662426947 -5.439988063411571 -6.894784943511084
0.0315594759163958 -5.458855993268978 -6.89897159793639
0.03191208158735305 -5.476576549013435 -6.902903658511508
0.032241856675298664 -5.493149730644943 -6.90658112523644
0.032548801180232664 -5.508575538163498 -6.910003998111182
0.032832915102155046 -5.522853971569105 -6.91317227713574
0.03309419844106581 -5.5359850308617595 -6.916085962310108
0.033332651196964935 -5.547968716041465 -6.918745053634289
0.03354827336985246 -5.558805027108219 -6.921149551108282
0.03374106495972837 -5.568493964062023 -6.923299454732087
0.03391102596659265 -5.577035526902877 -6.925194764505706
0.034058156390445314 -5.5844297156307805 -6.926835480429137
0.03418245623128636 -5.590676530245733 -6.92822160250238
0.04785543872380078 -4.673019667680471 -4.56165346020505
0.047731138882959746 -4.671635902975246 -4.56790079743591
0.04758400845910709 -4.669997977405796 -4.575295604770398
0.04741404745224281 -4.66810589097212 -4.583837882208512
0.04722125586236691 -4.66595964367422 -4.5935276297502545
0.04700563368947939 -4.6635592355120945 -4.604364847395624
0.04676718093358025 -4.660904666485744 -4.6163495351446215
0.046505897594669485 -4.657995936595169 -4.6294816929972455
0.04622178367274711 -4.654833045840369 -4.643761320953496
0.04591483916781311 -4.6514159942213436 -4.659188419013375
0.04558506407986749 -4.647744781738092 -4.675762987176882
0.045232458408910256 -4.643819408390617 -4.693485025444016
0.044857022154941396 -4.639639874178917 -4.712354533814777
0.04445875531796092 -4.635206179102991 -4.7323715122891645
0.04403765789796882 -4.630518323162841 -4.753535960867181
0.0435937298949651 -4.6255763063584645 -4.775847879548824
0.04312697130894976 -4.620380128689864 -4.799307268334094
0.0426373821399228 -4.6149297901570385 -4.823914127222992
0.04212496238788423 -4.609225290759988 -4.849668456215517
0.04158971205283403 -4.6032666304987115 -4.87657025531167
0.04103163113477221 -4.597053809373211 -4.90461952451145
0.04045071963369878 -4.590586827383485 -4.933816263814857
0.03984697754961372 -4.583865684529535 -4.964160473221892
0.03922040488251704 -4.576890380811358 -4.9956521527325535
0.03857100163240875 -4.569660916228957 -5.028291302346843
0.03789876779928883 -4.562177290782332 -5.06207792206476
0.037203703383157295 -4.554439504471481 -5.097012011886304
0.03648580838401415 -4.546447557296404 -5.133093571811475
0.03574508280185937 -4.5382014492571034 -5.170322601840274
0.03498152663669298 -4.529701180353578 -5.2086991019727
0.034195139888514955 -4.520946750585827 -5.248223072208754
0.03338592255732533 -4.51193815995385 -5.288894512548435
0.032553874643124064 -4.502675408457649 -5.330713422991742
0.03169899614591121 -4.493158496097223 -5.373679803538678
0.030821287065686702 -4.483387422872571 -5.417793654189241
0.02992074740245059 -4.473362188783695 -5.463054974943431
0.02899737715620286 -4.463082793830594 -5.509463765801249
0.028051176326943504 -4.452549238013267 -5.557020026762695
0.027082144914672538 -4.441761521331716 -5.605723757827766
0.02609028291938995 -4.43071964378594 -5.655574958996466
0.025075590341095737 -4.419423605375938 -5.706573630268793
0.0240380671797899 -4.407873406101712 -5.758719771644747
0.02297771343547245 -4.3960690459632605 -5.81201338312433
0.021894529108143376 -4.384010524960583 -5.866454464707539
0.020788514197802685 -4.371697843093682 -5.922043016394375
0.019659668704450375 -4.359131000362556 -5.97877903818484
0.01850799262808644 -4.346309996767204 -6.036662530078931
0.017333485968710892 -4.333234832307627 -6.0956934920766495
0.016136148726323726 -4.319905506983825 -6.155871924177995
0.014915980900924936 -4.306322020795799 -6.217197826382968
0.013672982492514528 -4.292484373743547 -6.279671198691569
0.014915980900924938 -4.3549525198930725 -6.293532419424001
0.016136148726323733 -4.416273291929649 -6.307139046306246
0.017333485968710906 -4.476446689853273 -6.320491079338303
0.018507992628086462 -4.535472713663948 -6.333588518520172
0.019659668704450392 -4.593351363361672 -6.346431363851854
0.020788514197802706 -4.650082638946445 -6.359019615333349
0.0218945291081434 -4.705666540418268 -6.371353272964656
0.022977713435472474 -4.760103067777141 -6.383432336745775
0.024038067179789926 -4.813392221023063 -6.3952568066767075
0.025075590341095765 -4.865534000156035 -6.406826682757451
0.026090282919389977 -4.916528405176056 -6.418141964988009
0.027082144914672566 -4.966375436083126 -6.429202653368378
0.028051176326943542 -5.015075092877247 -6.44000874789856
0.0289973771562029 -5.062627375558417 -6.450560248578554
0.029920747402450633 -5.109032284126636 -6.460857155408361
0.03082128706568675 -5.154289818581905 -6.47089946838798
0.03169899614591125 -5.198399978924224 -6.480687187517411
[...]
CELL_DATA 200

VECTORS Vinf float
5.174120008494016 -28.923949440065044 30.853498979263403
5.160472194679886 -28.97148740530308 30.844657786913153
5.144798996929899 -29.026959639607757 30.83434068814079
5.125403364795205 -29.0886172406997 30.82349693830728
5.105689569397733 -29.159425132530927 30.81070147175471
5.084238369530002 -29.238137295896117 30.796415844600695
5.061251290303364 -29.32474347512525 30.780618792267045
5.036968363589641 -29.41923082690572 30.763285554050338
5.011667705905631 -29.521584500704115 30.744387423053002
4.985662829956534 -29.631788623277064 30.72389127845048
4.959256701949088 -29.748899534924437 30.702514527234367
4.933284630345575 -29.87393893291669 30.6793363365403
4.907642505030978 -30.00645466586103 30.654726830780007
4.88263143520442 -30.14640278887297 30.628679184681094
4.858527483234358 -30.293746590625055 30.601184047996604
4.83557222940234 -30.44845791451868 30.572229784636654
4.813965602368011 -30.61051790833597 30.541802872447878
4.793861718303452 -30.779917110854676 30.50988843448424
4.775368094770809 -30.956654869487654 30.476470853825923
4.758548150520146 -31.140738174591394 30.441534411409293
4.74342646361357 -31.332180073973042 30.405063883092083
4.72999593525778 -31.53099787732538 30.367045039505406
4.718225866420877 -31.737211364489134 30.327465008650755
4.708070019169864 -31.950841174748867 30.286312482774836
4.699473967714895 -32.1719074893957 30.24357777262362
4.692381365156755 -32.40042904621669 30.19925272893116
4.686739066997263 -32.636422462219805 30.153330560136858
4.682501285590314 -32.87990180312314 30.105805576828676
4.680672929020253 -33.13321561227854 30.054397836712685
4.678908176729229 -33.3910983702521 30.004260916125848
4.678337071285228 -33.656674547820714 29.95236647583478
4.679111508827786 -33.92995701423474 29.898678469583537
4.681378588409372 -34.21096066802668 29.84315973497365
4.685287583665814 -34.49970146736617 29.785772133293978
4.691463380855383 -34.795259806297985 29.727134702657338
4.698633609245455 -35.09848237328308 29.666899028102932
4.707535173178285 -35.40928127132403 29.604940350523822
4.718255318778736 -35.727670997464365 29.54123515982791
4.730829959195445 -36.05367328549313 29.47576140767644
4.745204303424112 -36.38732118780091 29.408499586431958
4.761406950914777 -36.728354908464866 29.339692949983938
4.778845947539916 -37.07688494783754 29.269274720278343
4.796988358095292 -37.43314241761325 29.197156243376707
4.814883531815017 -37.79724474922161 29.12335270033366
4.831390792552531 -38.16932161382735 29.047889819278822
4.845586493516986 -38.549102644417765 28.97095383468039
4.856393560399919 -38.937011231445915 28.89257006652658
4.863583382983626 -39.33326463563306 28.81237251874854
4.867471288214182 -39.7373630441389 28.730927579124483
4.868844138058541 -40.149349139811534 28.648040985373243
4.8702731159051185 -40.3988316940991 28.81363730100797
4.872133841396216 -40.48121619913136 29.22461455374298
4.87175443829853 -40.56225825184705 29.628087177648354
4.868025792448747 -40.642008150143035 30.024179157110694
4.860488270759963 -40.720467768931805 30.41297114940443
4.849728231673663 -40.797290747116286 30.7947787705888
4.8358285853617895 -40.87321735285681 31.168802793512757
4.820621567266152 -40.94752281688987 31.535515866338375
4.805302940048279 -41.02013830787977 31.894808109917772
4.790808162914924 -41.09101699277529 32.246582738664976
4.777742954084236 -41.16013612691516 32.59076637342584
4.764421395888452 -41.22760367527665 32.92737561309771
4.753890149549266 -41.29383123702794 33.2557991972734
4.744907958828027 -41.35821464972465 33.576673257545266
4.737376742576505 -41.420781645321355 33.889984855416266
4.7311767586552556 -41.481560847332275 34.19572477601084
4.726189196124954 -41.540580173828225 34.493885315767805
4.720050178119666 -41.59817448915642 34.78435265296612
4.717286563919434 -41.65459495636379 35.066510072392404
4.715330411964301 -41.7092325595571 35.34116995958284
4.714169738773454 -41.762109216217205 35.60831654917798
4.713814278638406 -41.813245041620306 35.867932458828776
4.714290190291038 -41.862658770150844 36.119999021756136
4.715633286194555 -41.91036820195173 36.36449679668069
4.717363520013312 -41.95648535055206 36.6010894750055
4.722222860693326 -42.00160908979592 36.829503830667136
4.728083450280586 -42.04511615161906 37.05023129020812
4.735030112268513 -42.08701077803125 37.26326035306593
4.742687961713221 -42.12844088479546 37.467495127845936
4.752469792484927 -42.1669495870505 37.66518580413112
4.764014967396682 -42.20385823724577 37.855101841314784
4.777404866629031 -42.239169415330764 38.03723169508505
4.792681757661156 -42.27288757442655 38.21156673102723
4.809836666019387 -42.30501934017048 38.37810240083638
4.828800022728705 -42.33557365802689 38.536839230096355
4.849436625837838 -42.364561748461526 38.68778347079156
4.871545873692487 -42.39199685678755 38.83094731518344
4.894867444503409 -42.417893815394045 38.96634863217151
4.9190917944847286 -42.442268463833805 39.09401025738449
4.943874198458987 -42.46513699102815 39.21395892869359
4.968850677637061 -42.486515270647594 39.32622399845482
4.993654086085505 -42.50641825565984 39.430836067895925
5.017928824529483 -42.52485948378636 39.52782567931735
5.041343033867959 -42.541850726202455 39.61722217431327
5.063597589913291 -42.5574017914195 39.699052789248114
5.084431683230303 -42.57152047828072 39.77334202064305
5.103625156878489 -42.58421265844242 39.84011125901506
5.1209980547827865 -42.59548246039346 39.899378663686875
5.136407996929401 -42.605332523659136 39.95115923436958
5.149746057497884 -42.61376429238489 39.995465027338604
5.174120008494016 -28.923949440065044 30.853498979263403
5.160472194679886 -28.97148740530308 30.844657786913153
5.144798996929899 -29.026959639607757 30.83434068814079
5.125403364795205 -29.0886172406997 30.82349693830728
5.105689569397733 -29.159425132530927 30.81070147175471
5.084238369530002 -29.238137295896117 30.796415844600695
5.061251290303364 -29.32474347512525 30.780618792267045
5.036968363589641 -29.41923082690572 30.763285554050338
5.011667705905631 -29.521584500704115 30.744387423053002
4.985662829956534 -29.631788623277064 30.72389127845048
4.959256701949088 -29.748899534924437 30.702514527234367
4.933284630345575 -29.87393893291669 30.6793363365403
4.907642505030978 -30.00645466586103 30.654726830780007
4.88263143520442 -30.14640278887297 30.628679184681094
4.858527483234358 -30.293746590625055 30.601184047996604
4.83557222940234 -30.44845791451868 30.572229784636654
4.813965602368011 -30.61051790833597 30.541802872447878
4.793861718303452 -30.779917110854676 30.50988843448424
4.775368094770809 -30.956654869487654 30.476470853825923
4.758548150520146 -31.140738174591394 30.441534411409293
4.74342646361357 -31.332180073973042 30.405063883092083
4.72999593525778 -31.53099787732538 30.367045039505406
4.718225866420877 -31.737211364489134 30.327465008650755
4.708070019169864 -31.950841174748867 30.286312482774836
4.699473967714895 -32.1719074893957 30.24357777262362
4.692381365156755 -32.40042904621669 30.19925272893116
4.686739066997263 -32.636422462219805 30.153330560136858
4.682501285590314 -32.87990180312314 30.105805576828676
4.680672929020253 -33.13321561227854 30.054397836712685
4.678908176729229 -33.3910983702521 30.004260916125848
4.678337071285228 -33.656674547820714 29.95236647583478
4.679111508827786 -33.92995701423474 29.898678469583537
4.681378588409372 -34.21096066802668 29.84315973497365
4.685287583665814 -34.49970146736617 29.785772133293978
4.691463380855383 -34.795259806297985 29.727134702657338
4.698633609245455 -35.09848237328308 29.666899028102932
4.707535173178285 -35.40928127132403 29.604940350523822
4.718255318778736 -35.727670997464365 29.54123515982791
4.730829959195445 -36.05367328549313 29.47576140767644
4.745204303424112 -36.38732118780091 29.408499586431958
4.761406950914777 -36.728354908464866 29.339692949983938
4.778845947539916 -37.07688494783754 29.269274720278343
4.796988358095292 -37.43314241761325 29.197156243376707
4.814883531815017 -37.79724474922161 29.12335270033366
4.831390792552531 -38.16932161382735 29.047889819278822
4.845586493516986 -38.549102644417765 28.97095383468039
4.856393560399919 -38.937011231445915 28.89257006652658
4.863583382983626 -39.33326463563306 28.81237251874854
4.867471288214182 -39.7373630441389 28.730927579124483
4.868844138058541 -40.149349139811534 28.648040985373243
4.8702731159051185 -40.3988316940991 28.81363730100797
4.872133841396216 -40.48121619913136 29.22461455374298
4.87175443829853 -40.56225825184705 29.628087177648354
4.868025792448747 -40.642008150143035 30.024179157110694
4.860488270759963 -40.720467768931805 30.41297114940443
4.849728231673663 -40.797290747116286 30.7947787705888
4.8358285853617895 -40.87321735285681 31.168802793512757
4.820621567266152 -40.94752281688987 31.535515866338375
4.805302940048279 -41.02013830787977 31.894808109917772
4.790808162914924 -41.09101699277529 32.246582738664976
4.777742954084236 -41.16013612691516 32.59076637342584
4.764421395888452 -41.22760367527665 32.92737561309771
4.753890149549266 -41.29383123702794 33.2557991972734
4.744907958828027 -41.35821464972465 33.576673257545266
4.737376742576505 -41.420781645321355 33.889984855416266
4.7311767586552556 -41.481560847332275 34.19572477601084
4.726189196124954 -41.540580173828225 34.493885315767805
4.720050178119666 -41.59817448915642 34.78435265296612
4.717286563919434 -41.65459495636379 35.066510072392404
4.715330411964301 -41.7092325595571 35.34116995958284
4.714169738773454 -41.762109216217205 35.60831654917798
4.713814278638406 -41.813245041620306 35.867932458828776
4.714290190291038 -41.862658770150844 36.119999021756136
4.715633286194555 -41.91036820195173 36.36449679668069
4.717363520013312 -41.95648535055206 36.6010894750055
4.722222860693326 -42.00160908979592 36.829503830667136
4.728083450280586 -42.04511615161906 37.05023129020812
4.735030112268513 -42.08701077803125 37.26326035306593
4.742687961713221 -42.12844088479546 37.467495127845936
4.752469792484927 -42.1669495870505 37.66518580413112
4.764014967396682 -42.20385823724577 37.855101841314784
4.777404866629031 -42.239169415330764 38.03723169508505
4.792681757661156 -42.27288757442655 38.21156673102723
4.809836666019387 -42.30501934017048 38.37810240083638
4.828800022728705 -42.33557365802689 38.536839230096355
4.849436625837838 -42.364561748461526 38.68778347079156
4.871545873692487 -42.39199685678755 38.83094731518344
4.894867444503409 -42.417893815394045 38.96634863217151
4.9190917944847286 -42.442268463833805 39.09401025738449
4.943874198458987 -42.46513699102815 39.21395892869359
4.968850677637061 -42.486515270647594 39.32622399845482
4.993654086085505 -42.50641825565984 39.430836067895925
5.017928824529483 -42.52485948378636 39.52782567931735
5.041343033867959 -42.541850726202455 39.61722217431327
5.063597589913291 -42.5574017914195 39.699052789248114
5.084431683230303 -42.57152047828072 39.77334202064305
5.103625156878489 -42.58421265844242 39.84011125901506
5.1209980547827865 -42.59548246039346 39.899378663686875
5.136407996929401 -42.605332523659136 39.95115923436958
5.149746057497884 -42.61376429238489 39.995465027338604

VECTORS L float
0.057737052410198775 0.0 0.0
0.10439713891527545 0.0 0.0
0.1550070480587154 0.0 0.0
0.21126758910561255 0.0 0.0
0.27366748784958184 0.0 0.0
0.3423616585572818 0.0 0.0
0.4173686038444258 0.0 0.0
0.49862811591646033 0.0 0.0
0.5860224205560042 0.0 0.0
0.6793848433001757 0.0 0.0
0.7785039913601367 0.0 0.0
0.8831283266360856 0.0 0.0
0.9929633713531979 0.0 0.0
1.1076817826710363 0.0 0.0
1.2269297878743177 0.0 0.0
1.3503359767830954 0.0 0.0
1.4775158044932464 0.0 0.0
1.6081237499151892 0.0 0.0
1.7417885028441087 0.0 0.0
1.878167071046297 0.0 0.0
2.016942367727863 0.0 0.0
2.15782351491131 0.0 0.0
2.3005437420270347 0.0 0.0
2.4448627009845563 0.0 0.0
2.590609350035107 0.0 0.0
2.7374354368182328 0.0 0.0
2.8853027110215206 0.0 0.0
3.034084088356277 0.0 0.0
3.1835387141532876 0.0 0.0
3.333499097015807 0.0 0.0
3.4838370175151714 0.0 0.0
3.6344129601111477 0.0 0.0
3.785043435884422 0.0 0.0
3.9355871620113985 0.0 0.0
4.085797889559702 0.0 0.0
4.235320778936397 0.0 0.0
4.383789741951133 0.0 0.0
4.5307321574315145 0.0 0.0
4.67553391690209 0.0 0.0
4.817433703741331 0.0 0.0
4.955448473770941 0.0 0.0
5.088381815631118 0.0 0.0
5.214823541617056 0.0 0.0
5.333180569170208 0.0 0.0
5.441832658432446 0.0 0.0
5.539308069730309 0.0 0.0
5.6249382981910605 0.0 0.0
5.699884535838387 0.0 0.0
5.76961105110988 0.0 0.0
5.858311907070524 0.0 0.0
6.109063652470893 0.0 0.0
6.137765409948327 0.0 0.0
6.182687291520124 0.0 0.0
6.2191193374328275 0.0 0.0
6.240771726551241 0.0 0.0
6.245614775990324 0.0 0.0
6.233495388046146 0.0 0.0
6.2053568298697295 0.0 0.0
6.162457186307845 0.0 0.0
6.106207825230076 0.0 0.0
6.03763281522983 0.0 0.0
5.957829556391317 0.0 0.0
5.868009316200558 0.0 0.0
5.768828386802144 0.0 0.0
5.660928326742112 0.0 0.0
5.544811470468107 0.0 0.0
5.420906530774095 0.0 0.0
5.28950766779594 0.0 0.0
5.151276469628141 0.0 0.0
5.006398667012063 0.0 0.0
4.855160304307171 0.0 0.0
4.697864154242986 0.0 0.0
4.534829147705639 0.0 0.0
4.3664003598723875 0.0 0.0
4.19293899197954 0.0 0.0
4.014921280590608 0.0 0.0
3.832706921741191 0.0 0.0
3.6467572817106757 0.0 0.0
3.4575925719057876 0.0 0.0
3.2658352232767744 0.0 0.0
3.0721229095379328 0.0 0.0
2.877159716046104 0.0 0.0
2.681710937981632 0.0 0.0
2.4866004539017625 0.0 0.0
2.292705049699042 0.0 0.0
2.1009444586024935 0.0 0.0
1.9122667456339195 0.0 0.0
1.7276298752040657 0.0 0.0
1.547981455865289 0.0 0.0
1.3742390699472247 0.0 0.0
1.207273009622755 0.0 0.0
1.047892031299698 0.0 0.0
0.8968315342810056 0.0 0.0
0.7547425280871186 0.0 0.0
0.6221784297993628 0.0 0.0
0.4995736733297013 0.0 0.0
0.3871990563059809 0.0 0.0
0.28504753467008753 0.0 0.0
0.19246884136823844 0.0 0.0
0.10648882072375648 0.0 0.0
0.057737052410198775 0.0 0.0
0.10439713891527545 0.0 0.0
0.1550070480587154 0.0 0.0
0.21126758910561255 0.0 0.0
0.27366748784958184 0.0 0.0
0.3423616585572818 0.0 0.0
0.4173686038444258 0.0 0.0
0.49862811591646033 0.0 0.0
0.5860224205560042 0.0 0.0
0.6793848433001757 0.0 0.0
0.7785039913601367 0.0 0.0
0.8831283266360856 0.0 0.0
0.9929633713531979 0.0 0.0
1.1076817826710363 0.0 0.0
1.2269297878743177 0.0 0.0
1.3503359767830954 0.0 0.0
1.4775158044932464 0.0 0.0
1.6081237499151892 0.0 0.0
1.7417885028441087 0.0 0.0
1.878167071046297 0.0 0.0
2.016942367727863 0.0 0.0
2.15782351491131 0.0 0.0
2.3005437420270347 0.0 0.0
2.4448627009845563 0.0 0.0
2.590609350035107 0.0 0.0
2.7374354368182328 0.0 0.0
2.8853027110215206 0.0 0.0
3.034084088356277 0.0 0.0
3.1835387141532876 0.0 0.0
3.333499097015807 0.0 0.0
3.4838370175151714 0.0 0.0
3.6344129601111477 0.0 0.0
3.785043435884422 0.0 0.0
3.9355871620113985 0.0 0.0
4.085797889559702 0.0 0.0
4.235320778936397 0.0 0.0
4.383789741951133 0.0 0.0
4.5307321574315145 0.0 0.0
4.67553391690209 0.0 0.0
4.817433703741331 0.0 0.0
4.955448473770941 0.0 0.0
5.088381815631118 0.0 0.0
5.214823541617056 0.0 0.0
5.333180569170208 0.0 0.0
5.441832658432446 0.0 0.0
5.539308069730309 0.0 0.0
5.6249382981910605 0.0 0.0
5.699884535838387 0.0 0.0
5.76961105110988 0.0 0.0
5.858311907070524 0.0 0.0
6.109063652470893 0.0 0.0
6.137765409948327 0.0 0.0
6.182687291520124 0.0 0.0
6.2191193374328275 0.0 0.0
6.240771726551241 0.0 0.0
6.245614775990324 0.0 0.0
6.233495388046146 0.0 0.0
6.2053568298697295 0.0 0.0
6.162457186307845 0.0 0.0
6.106207825230076 0.0 0.0
6.03763281522983 0.0 0.0
5.957829556391317 0.0 0.0
5.868009316200558 0.0 0.0
5.768828386802144 0.0 0.0
5.660928326742112 0.0 0.0
5.544811470468107 0.0 0.0
5.420906530774095 0.0 0.0
5.28950766779594 0.0 0.0
5.151276469628141 0.0 0.0
5.006398667012063 0.0 0.0
4.855160304307171 0.0 0.0
4.697864154242986 0.0 0.0
4.534829147705639 0.0 0.0
4.3664003598723875 0.0 0.0
4.19293899197954 0.0 0.0
4.014921280590608 0.0 0.0
3.832706921741191 0.0 0.0
3.6467572817106757 0.0 0.0
3.4575925719057876 0.0 0.0
3.2658352232767744 0.0 0.0
3.0721229095379328 0.0 0.0
2.877159716046104 0.0 0.0
2.681710937981632 0.0 0.0
2.4866004539017625 0.0 0.0
2.292705049699042 0.0 0.0
2.1009444586024935 0.0 0.0
1.9122667456339195 0.0 0.0
1.7276298752040657 0.0 0.0
1.547981455865289 0.0 0.0
1.3742390699472247 0.0 0.0
1.207273009622755 0.0 0.0
1.047892031299698 0.0 0.0
0.8968315342810056 0.0 0.0
0.7547425280871186 0.0 0.0
0.6221784297993628 0.0 0.0
0.4995736733297013 0.0 0.0
0.3871990563059809 0.0 0.0
0.28504753467008753 0.0 0.0
0.19246884136823844 0.0 0.0
0.10648882072375648 0.0 0.0

SCALARS Gamma float
LOOKUP_TABLE default
0.4176345345821106
0.6419122771975984
0.8254665797358353
0.9906152049918812
1.1448759412187588
1.291535909943787
1.4322138743558188
1.567726399443485
1.6984560940962505
1.8245318960620343
1.9459278035392842
2.0625260969924644
2.17414362233158
2.280575323200693
2.3816171110567836
2.4770857749618322
2.566826498550106
2.6507910898227474
2.7289184986658164
2.8012182897837157
2.867753628008967
2.9286313729837037
2.98399114493078
3.034001859645061
3.0788559544456815
3.118734788931937
3.1538829231383563
3.1844974986086916
3.210799366756399
3.2329344479504365
3.251112753284001
3.2655204921270324
3.276296401269855
3.2836085424646653
3.2875329163919838
3.288066514344933
3.2852116842414816
3.278907898014518
3.269018578283761
3.255340427935135
3.2375681246055716
3.215318203408089
3.188144389423867
3.155569132801941
3.117178982834407
3.0727106128332906
3.0223628114300647
2.967197641303537
2.909936711771026
2.857601135760904
2.85187868014836
2.8922451228424944
2.9370751438210174
2.979676561148627
3.017520667819817
3.0496521514519097
3.0758940050555896
3.096557618653434
3.1120969577370476
3.1230001190798635
3.129708158828043
3.1325337937508073
3.1319210335211007
3.128038270148929
3.121021044952789
3.110946002643737
3.0978328459963445
3.0816145805858914
3.0624234378403754
3.040109179187394
3.014558439569858
2.9856484883532737
2.9532455365519383
2.9172098055968414
2.877387935449931
2.833679565979117
2.7858798318731575
2.7338231741465218
2.677357979038616
2.61638300747253
2.550785828978158
2.48048401370434
2.4054273371190895
2.3256029013311568
2.2410389841789007
2.1518059530848026
2.058012798509779
1.9597985266793068
1.857318612901212
1.7507272807658967
1.6401559447705478
1.5256865683619676
1.4073160002943452
1.2849028526173352
1.1580795852309618
1.0260914844338893
0.8874669916253902
0.7392391599965611
0.5746788990472482
0.3737926770739055
0.4176345345821106
0.6419122771975984
0.8254665797358353
0.9906152049918812
1.1448759412187588
1.291535909943787
1.4322138743558188
1.567726399443485
1.6984560940962505
1.8245318960620343
1.9459278035392842
2.0625260969924644
2.17414362233158
2.280575323200693
2.3816171110567836
2.4770857749618322
2.566826498550106
2.6507910898227474
2.7289184986658164
2.8012182897837157
2.867753628008967
2.9286313729837037
2.98399114493078
3.034001859645061
3.0788559544456815
3.118734788931937
3.1538829231383563
3.1844974986086916
3.210799366756399
3.2329344479504365
3.251112753284001
3.2655204921270324
3.276296401269855
3.2836085424646653
3.2875329163919838
3.288066514344933
3.2852116842414816
3.278907898014518
3.269018578283761
3.255340427935135
3.2375681246055716
3.215318203408089
3.188144389423867
3.155569132801941
3.117178982834407
3.0727106128332906
3.0223628114300647
2.967197641303537
2.909936711771026
2.857601135760904
2.85187868014836
2.8922451228424944
2.9370751438210174
2.979676561148627
3.017520667819817
3.0496521514519097
3.0758940050555896
3.096557618653434
3.1120969577370476
3.1230001190798635
3.129708158828043
3.1325337937508073
3.1319210335211007
3.128038270148929
3.121021044952789
3.110946002643737
3.0978328459963445
3.0816145805858914
3.0624234378403754
3.040109179187394
3.014558439569858
2.9856484883532737
2.9532455365519383
2.9172098055968414
2.877387935449931
2.833679565979117
2.7858798318731575
2.7338231741465218
2.677357979038616
2.61638300747253
2.550785828978158
2.48048401370434
2.4054273371190895
2.3256029013311568
2.2410389841789007