# vtk DataFile Version 4.0
[MyVLM domain - lattices] 
ASCII
DATASET UNSTRUCTURED_GRID
POINTS 302 float
0.03418245623128633 3.85762147530613 -5.163053906016776
0.034058156390445286 3.8640141896661446 -5.162776002532136
0.03391102596659263 3.8715810760514686 -5.1624470555503175
0.03374106495972834 3.880322134462101 -5.162067065071319
0.033548273369852444 3.8902373648980433 -5.161636031095143
0.03333265119696493 3.901326767359294 -5.161153953621787
0.033094198441065786 3.9135903418458526 -5.1606208326512535
0.032832915102155025 3.927028088357721 -5.16003666818354
0.03254880118023265 3.941640006894899 -5.159401460218649
0.03224185667529865 3.9574260974573847 -5.158715208756578
0.03191208158735302 3.97438636004518 -5.157977913797329
0.03155947591639578 3.992520794658284 -5.157189575340901
0.031184039662426933 4.011829401296696 -5.156350193387294
0.030785772825446447 4.032312179960417 -5.155459767936509
0.030364675405454348 4.053969130649448 -5.154518298988544
0.029920747402450633 4.076800253363787 -5.1535257865434
0.029453988816435295 4.100805548103436 -5.152482230601079
0.02896439964740833 4.125985014868393 -5.151387631161578
0.028451979895369756 4.152338653658659 -5.150241988224898
0.02791672956031956 4.179866464474234 -5.149045301791039
0.027358648642257736 4.208568447315118 -5.147797571860002
0.026777737141184296 4.2384446021813105 -5.146498798431786
0.026173995057099247 4.2694949290728115 -5.1451489815063916
0.025547422390002565 4.301719427989623 -5.143748121083817
0.02489801913989427 4.335118098931741 -5.1422962171640645
0.024225785306774356 4.369690941899169 -5.1407932697471335
0.02353072089064282 4.405437956891906 -5.139239278833023
0.02281282589149966 4.442359143909952 -5.137634244421735
0.022072100309344887 4.480454502953307 -5.135978166513267
0.02130854414417849 4.519724034021971 -5.134271045107621
0.020522157396000475 4.560167737115943 -5.1325128802047955
0.01971294006481084 4.601785612235225 -5.130703671804791
0.01888089215060958 4.644577659379815 -5.128843419907608
0.01802601365339671 4.688543878549714 -5.126932124513247
0.01714830457317221 4.733684269744922 -5.1249697856217065
0.016247764909936097 4.77999883296544 -5.122956403232987
0.01532439466368836 4.827487568211265 -5.120891977347089
0.014378193834429006 4.8761504754824 -5.118776507964012
0.013409162422158035 4.925987554778843 -5.116609995083756
0.012417300426875444 4.976998806100596 -5.1143924387063215
0.011402607848581228 5.029184229447657 -5.1121238388317085
0.010365084687275395 5.082543824820027 -5.109804195459916
0.009304730942957943 5.1370775922177065 -5.107433508590946
0.008221546615628865 5.192785531640695 -5.105011778224796
0.007115531705288172 5.2496676430889915 -5.102539004361468
0.005986686211935858 5.3077239265625975 -5.1000151870009605
0.004835010135571924 5.366954382061512 -5.097440326143274
0.0036605034761963704 5.427359009585735 -5.094814421788409
0.002463166233809204 5.488937809135267 -5.092137473936366
0.0012429984084104118 5.551690780710109 -5.089409482587143
0.0 5.615617924310259 -5.086630447740742
0.0012429984084104165 5.618421082212668 -5.150556538105521
0.0024631662338092126 5.6211727535413605 -5.2133084757901305
0.0036605034761963903 5.623872938296334 -5.274886260794571
0.004835010135571947 5.62652163647759 -5.3352898931188415
0.005986686211935883 5.629118848085129 -5.394519372762943
0.0071155317052882 5.63166457311895 -5.452574699726875
0.008221546615628897 5.634158811579053 -5.509455874010638
0.009304730942957973 5.6366015634654385 -5.565162895614231
0.010365084687275431 5.638992828778106 -5.619695764537655
0.01140260784858127 5.641332607517056 -5.673054480780909
0.012417300426875487 5.643620899682288 -5.725239044343994
0.013409162422158083 5.645857705273802 -5.7762494552269095
0.01437819383442906 5.648043024291599 -5.826085713429656
0.015324394663688418 5.650176856735679 -5.874747818952232
0.016247764909936152 5.652259202606039 -5.92223577179464
0.017148304573172273 5.6542900619026835 -5.968549571956878
0.01802601365339677 5.656269434625609 -6.013689219438946
0.018880892150609653 5.658197320774818 -6.0576547142408455
0.019712940064810912 5.660073720350308 -6.100446056362576
0.020522157396000548 5.661898633352081 -6.142063245804136
0.021308544144178567 5.6636720597801355 -6.182506282565527
0.022072100309344964 5.665393999634473 -6.221775166646748
0.02281282589149974 5.667064452915092 -6.2598698980478
0.0235307208906429 5.668683419621994 -6.296790476768683
0.024225785306774435 5.670250899755178 -6.332536902809396
0.02489801913989436 5.671766893314644 -6.36710917616994
0.02554742239000266 5.673231400300393 -6.400507296850314
0.026173995057099338 5.674644420712424 -6.432731264850519
0.0267777371411844 5.676005954550737 -6.463781080170555
0.02735864864225784 5.677316001815333 -6.493656742810421
0.027916729560319656 5.678574562506211 -6.522358252770117
0.028451979895369857 5.67978163662337 -6.549885610049644
0.028964399647408434 5.680937224166813 -6.576238814649002
0.029453988816435392 5.682041325136537 -6.60141786656819
0.029920747402450737 5.683093939532544 -6.62542276580721
0.030364675405454455 5.684095067354833 -6.64825351236606
0.030785772825446554 5.685044708603405 -6.66991010624474
0.031184039662427037 5.6859428632782585 -6.690392547443251
0.03155947591639589 5.686789531379394 -6.709700835961592
0.03191208158735314 5.687584712906812 -6.727834971799765
0.03224185667529876 5.688328407860513 -6.744794954957767
0.03254880118023276 5.689020616240495 -6.7605807854356
0.032832915102155136 5.68966133804676 -6.775192463233265
0.0330941984410659 5.690250573279308 -6.788629988350759
0.03333265119696503 5.690788321938138 -6.800893360788084
0.03354827336985256 5.691274584023249 -6.811982580545239
0.033741064959728465 5.691709359534643 -6.821897647622225
0.03391102596659275 5.69209264847232 -6.830638562019042
0.03405815639044541 5.6924244508362785 -6.838205323735689
0.034182456231286455 5.69270476662652 -6.844597932772167
0.04785543872380089 3.5214395539685563 -5.529932094678268
0.047731138882959843 3.5278322683285706 -5.529654191193629
0.04758400845910719 3.535399154713895 -5.52932524421181
0.047414047452242904 3.5441402131245283 -5.528945253732812
0.047221255862367 3.5540554435604688 -5.5285142197566355
0.047005633689479485 3.5651448460217203 -5.52803214228328
0.04676718093358035 3.57740842050828 -5.527499021312746
0.04650589759466958 3.5908461670201484 -5.526914856845033
0.04622178367274721 3.605458085557325 -5.526279648880141
0.04591483916781321 3.6212441761198106 -5.525593397418071
0.045585064079867586 3.6382044387076062 -5.524856102458822
0.045232458408910346 3.65633887332071 -5.524067764002393
0.04485702215494149 3.675647479959122 -5.523228382048786
0.04445875531796101 3.6961302586228437 -5.522337956598
0.04403765789796891 3.7177872093118745 -5.521396487650036
0.04359372989496519 3.7406183320262136 -5.520403975204893
0.04312697130894985 3.7646236267658617 -5.51936041926257
0.042637382139922894 3.7898030935308196 -5.518265819823069
0.04212496238788432 3.8161567323210845 -5.51712017688639
0.04158971205283412 3.8436845431366597 -5.515923490452532
0.0410316311347723 3.872386525977544 -5.514675760521494
0.04045071963369886 3.902262680843736 -5.513376987093278
0.039846977549613805 3.9333130077352383 -5.512027170167883
0.03922040488251712 3.965537506652048 -5.51062630974531
0.038571001632408834 3.998936177594168 -5.509174405825557
0.03789876779928891 4.0335090205615955 -5.507671458408626
0.03720370338315738 4.069256035554332 -5.506117467494516
0.03648580838401422 4.106177222572379 -5.504512433083226
0.035745082801859444 4.144272581615733 -5.502856355174759
0.03498152663669306 4.183542112684397 -5.501149233769112
0.03419513988851503 4.22398581577837 -5.499391068866287
0.0333859225573254 4.265603690897651 -5.497581860466283
0.03255387464312414 4.3083957380422415 -5.4957216085691005
0.03169899614591127 4.35236195721214 -5.4938103131747384
0.030821287065686768 4.3975023484073485 -5.491847974283198
0.02992074740245066 4.443816911627866 -5.489834591894478
0.028997377156202923 4.491305646873691 -5.4877701660085805
0.028051176326943563 4.539968554144826 -5.485654696625504
0.027082144914672597 4.589805633441269 -5.483488183745249
0.026090282919390004 4.640816884763022 -5.481270627367814
0.02507559034109579 4.693002308110083 -5.4790020274932
0.024038067179789957 4.746361903482454 -5.476682384121409
0.022977713435472502 4.8008956708801325 -5.474311697252437
0.021894529108143424 4.856603610303121 -5.4718899668862875
0.02078851419780273 4.913485721751417 -5.469417193022959
0.019659668704450416 4.971542005225023 -5.466893375662452
0.018507992628086486 5.030772460723938 -5.464318514804766
0.01733348596871093 5.091177088248162 -5.4616926104499015
0.016136148726323764 5.152755887797694 -5.459015662597857
0.014915980900924972 5.215508859372535 -5.456287671248635
0.013672982492514557 5.279436002972685 -5.453508636402234
0.014915980900924974 5.282239160875094 -5.517434726767013
0.01613614872632377 5.284990832203786 -5.580186664451623
0.01733348596871095 5.28769101695876 -5.641764449456063
0.018507992628086504 5.290339715140017 -5.702168081780334
0.01965966870445044 5.292936926747555 -5.7613975614244355
0.020788514197802758 5.295482651781376 -5.819452888388367
0.021894529108143455 5.297976890241479 -5.8763340626721305
0.022977713435472533 5.300419642127864 -5.932041084275723
0.024038067179789988 5.3028109074405325 -5.986573953199147
0.02507559034109583 5.305150686179482 -6.039932669442401
0.026090282919390043 5.307438978344715 -6.092117233005487
0.027082144914672642 5.309675783936229 -6.143127643888402
0.028051176326943615 5.311861102954026 -6.192963902091148
0.02899737715620298 5.313994935398105 -6.241626007613725
0.02992074740245071 5.316077281268466 -6.289113960456132
0.03082128706568683 5.318108140565109 -6.33542776061837
0.03169899614591134 5.320087513288035 -6.380567408100439
0.03255387464312421 5.322015399437244 -6.424532902902338
0.03338592255732547 5.323891799012734 -6.467324245024067
0.03419513988851511 5.325716712014507 -6.508941434465628
[...]
CELL_DATA 200

VECTORS Vinf float
5.246535221861006 -35.403462260572375 -23.133917194823592
5.232228069330021 -35.40316696962307 -23.182227807174165
5.215739583737738 -35.40282584443083 -23.23860432540077
5.1971998498521454 -35.40243936521216 -23.303014985901356
5.176773368744499 -35.402007142167555 -23.375421577029304
5.154663009921954 -35.401527554550356 -23.455779164412
5.131112921329303 -35.40099737085167 -23.544036069700326
5.10640989924261 -35.400411369786255 -23.64013417802555
5.0808827686509686 -35.399761986794246 -23.74400963088555
5.050355652510959 -35.40080051098081 -23.85425449404692
5.025552361200053 -35.39952492303292 -23.974144155874587
5.0004850797627 -35.39821380430933 -24.101667920409767
4.975458926358901 -35.39686726376603 -24.236758250745464
4.950776157814483 -35.39548384082461 -24.379350576028408
4.926725298531722 -35.3940608169487 -24.52938511815176
4.9035712472310395 -35.39259464588942 -24.686808319243667
4.881547446251547 -35.39108146671082 -24.851573695681843
4.860850973291594 -35.38951765183425 -25.023642011644228
4.841641029395187 -35.38790033664084 -25.202980756756954
4.824040817366505 -35.386227879152486 -25.389563011096108
4.808142328387744 -35.38450020788951 -25.58336586601882
4.792976403207413 -35.379474462622206 -25.789875935675393
4.783276340559495 -35.376414344897796 -25.99958309133371
4.774420156414571 -35.37329300089424 -26.21672622806703
4.76647309170376 -35.370109285150015 -26.441291113462928
4.759480696746783 -35.36686292713249 -26.67326593084453
4.753475392481733 -35.363554588986084 -26.912639834321872
4.748484149741785 -35.3601857655823 -27.159401542179708
4.744536356965864 -35.35675854985468 -27.41353813609697
4.743818983312777 -35.3507823106967 -27.678357776893417
4.7449456526183775 -35.34637602277797 -27.947694095957843
4.7462556681098755 -35.34113860976132 -28.226118026150022
4.748981682526967 -35.33561360923663 -28.512208667383646
4.753185498528823 -35.329794735760814 -28.80596485986841
4.75895093334549 -35.32367479529286 -29.1073838167441
4.766378718080468 -35.31724592901166 -29.416462061685017
4.775575579840354 -35.31050013973095 -29.733196898440294
4.786635029230247 -35.303430199014905 -30.057588602557217
4.799607191565481 -35.29603103211328 -30.38964351788751
4.814455635017415 -35.28830164199016 -30.72937815204206
4.831001640025539 -35.28024753814863 -31.07682409369418
4.848862305363788 -35.27188345092741 -31.432032970140156
4.867399399569002 -35.263235813186846 -31.795079631616538
4.885709034465907 -35.25434409332332 -32.16606052489276
4.902689977285128 -35.24525969403471 -32.54508370439456
4.917216612919716 -35.23604111766615 -32.9322486293463
4.928400048719884 -35.22674492302025 -33.32761882476818
4.9358568035199575 -35.21741391564874 -33.73119719619445
4.93985911191432 -35.20806640802476 -34.142917462286384
4.941265555740732 -35.19869154910632 -34.56266042234222
4.942512404582193 -35.40572286006111 -34.778833529349384
4.943817252292757 -35.82568754518988 -34.78705711494071
4.943164185897682 -36.237552556767426 -34.795733416498855
4.939025302176996 -36.64194782429139 -34.80442576258068
4.930996934528858 -37.03894662456648 -34.81312170256564
4.9191049680938725 -37.42821504205268 -34.822219472863395
4.904725643555141 -37.810322913017444 -34.83083256985759
4.888870212209022 -38.18485761272894 -34.83928630914817
4.8726890776357115 -38.55171349011774 -34.847520313470724
4.857087926152 -38.91080000729633 -34.855492405660364
4.842659308511576 -39.262052037432326 -34.86317908046184
4.829711255804601 -39.60543018113046 -34.87057214359068
4.81834078134397 -39.94091570322444 -34.8776739952503
4.80851284455054 -40.26850397213759 -34.88449319062954
4.800124829784262 -40.588198601553614 -34.89104101070234
4.793051341012624 -40.90000707794517 -34.89732916547271
4.787171682594885 -41.203937858808665 -34.90336845375096
4.782384746830707 -41.499998622605354 -34.909168117275144
4.778615774679666 -41.78819531541096 -34.914735646330335
4.77581835821615 -42.06853170437859 -34.92007684961111
4.7739739409678 -42.34100922995971 -34.9251960588487
4.7730902059967155 -42.60562701759309 -34.930096386405
4.773199130582087 -42.86238196108524 -34.934779989523726
4.774355059124845 -43.11126882886966 -34.939248319841504
4.7766328232834345 -43.352280376546155 -34.94350235343733
4.780125665880061 -43.585407478350724 -34.947542807177896
4.784942491120174 -43.81063931666491 -34.951370352537396
4.791203804849896 -44.027963688372665 -34.95498583881911
4.799035695347317 -44.237367492952124 -34.95839053362643
4.8085614050053325 -44.438837452884385 -34.96158637980319
4.819890474460122 -44.63236107985123 -34.964576256240484
4.83310603929893 -44.81792784535285 -34.967364217770985
4.848251481020991 -44.99553045457869 -34.96995568056662
4.865318095129048 -45.16516607459855 -34.97235751746892
4.884235583257324 -45.326837347590576 -34.97457803430933
4.904866932262482 -45.48055303488636 -34.97662681280188
4.927008653376005 -45.62632818590333 -34.97851442493023
4.950396558105855 -45.76418379606364 -34.98025204337439
4.974716431953509 -45.8941459929182 -34.981850987997035
4.999618308035868 -46.01624485352748 -34.98332225660945
5.024732657496058 -46.13051299704029 -34.98467608807043
5.04968673947902 -46.236984109670146 -34.98592159823729
5.074119554116056 -46.33569154702056 -34.9870665167352
5.097694232241197 -46.4266671278275 -34.98811703790221
5.120107172572763 -46.509940192592175 -34.989077785355526
5.141093707136138 -46.58553695877689 -34.98995187836392
5.160430471028409 -46.65348016770652 -34.99074108062933
5.177934937095693 -46.71378899076597 -34.99144600831392
5.193462742163848 -46.76647914514963 -34.99206637367433
5.206903492261282 -46.81156316149526 -34.99260124261281
5.246535221861006 -35.403462260572375 -23.133917194823592
5.232228069330021 -35.40316696962307 -23.182227807174165
5.215739583737738 -35.40282584443083 -23.23860432540077
5.1971998498521454 -35.40243936521216 -23.303014985901356
5.176773368744499 -35.402007142167555 -23.375421577029304
5.154663009921954 -35.401527554550356 -23.455779164412
5.131112921329303 -35.40099737085167 -23.544036069700326
5.10640989924261 -35.400411369786255 -23.64013417802555
5.0808827686509686 -35.399761986794246 -23.74400963088555
5.050355652510959 -35.40080051098081 -23.85425449404692
5.025552361200053 -35.39952492303292 -23.974144155874587
5.0004850797627 -35.39821380430933 -24.101667920409767
4.975458926358901 -35.39686726376603 -24.236758250745464
4.950776157814483 -35.39548384082461 -24.379350576028408
4.926725298531722 -35.3940608169487 -24.52938511815176
4.9035712472310395 -35.39259464588942 -24.686808319243667
4.881547446251547 -35.39108146671082 -24.851573695681843
4.860850973291594 -35.38951765183425 -25.023642011644228
4.841641029395187 -35.38790033664084 -25.202980756756954
4.824040817366505 -35.386227879152486 -25.389563011096108
4.808142328387744 -35.38450020788951 -25.58336586601882
4.792976403207413 -35.379474462622206 -25.789875935675393
4.783276340559495 -35.376414344897796 -25.99958309133371
4.774420156414571 -35.37329300089424 -26.21672622806703
4.76647309170376 -35.370109285150015 -26.441291113462928
4.759480696746783 -35.36686292713249 -26.67326593084453
4.753475392481733 -35.363554588986084 -26.912639834321872
4.748484149741785 -35.3601857655823 -27.159401542179708
4.744536356965864 -35.35675854985468 -27.41353813609697
4.743818983312777 -35.3507823106967 -27.678357776893417
4.7449456526183775 -35.34637602277797 -27.947694095957843
4.7462556681098755 -35.34113860976132 -28.226118026150022
4.748981682526967 -35.33561360923663 -28.512208667383646
4.753185498528823 -35.329794735760814 -28.80596485986841
4.75895093334549 -35.32367479529286 -29.1073838167441
4.766378718080468 -35.31724592901166 -29.416462061685017
4.775575579840354 -35.31050013973095 -29.733196898440294
4.786635029230247 -35.303430199014905 -30.057588602557217
4.799607191565481 -35.29603103211328 -30.38964351788751
4.814455635017415 -35.28830164199016 -30.72937815204206
4.831001640025539 -35.28024753814863 -31.07682409369418
4.848862305363788 -35.27188345092741 -31.432032970140156
4.867399399569002 -35.263235813186846 -31.795079631616538
4.885709034465907 -35.25434409332332 -32.16606052489276
4.902689977285128 -35.24525969403471 -32.54508370439456
4.917216612919716 -35.23604111766615 -32.9322486293463
4.928400048719884 -35.22674492302025 -33.32761882476818
4.9358568035199575 -35.21741391564874 -33.73119719619445
4.93985911191432 -35.20806640802476 -34.142917462286384
4.941265555740732 -35.19869154910632 -34.56266042234222
4.942512404582193 -35.40572286006111 -34.778833529349384
4.943817252292757 -35.82568754518988 -34.78705711494071
4.943164185897682 -36.237552556767426 -34.795733416498855
4.939025302176996 -36.64194782429139 -34.80442576258068
4.930996934528858 -37.03894662456648 -34.81312170256564
4.9191049680938725 -37.42821504205268 -34.822219472863395
4.904725643555141 -37.810322913017444 -34.83083256985759
4.888870212209022 -38.18485761272894 -34.83928630914817
4.8726890776357115 -38.55171349011774 -34.847520313470724
4.857087926152 -38.91080000729633 -34.855492405660364
4.842659308511576 -39.262052037432326 -34.86317908046184
4.829711255804601 -39.60543018113046 -34.87057214359068
4.81834078134397 -39.94091570322444 -34.8776739952503
4.80851284455054 -40.26850397213759 -34.88449319062954
4.800124829784262 -40.588198601553614 -34.89104101070234
4.793051341012624 -40.90000707794517 -34.89732916547271
4.787171682594885 -41.203937858808665 -34.90336845375096
4.782384746830707 -41.499998622605354 -34.909168117275144
4.778615774679666 -41.78819531541096 -34.914735646330335
4.77581835821615 -42.06853170437859 -34.92007684961111
4.7739739409678 -42.34100922995971 -34.9251960588487
4.7730902059967155 -42.60562701759309 -34.930096386405
4.773199130582087 -42.86238196108524 -34.934779989523726
4.774355059124845 -43.11126882886966 -34.939248319841504
4.7766328232834345 -43.352280376546155 -34.94350235343733
4.780125665880061 -43.585407478350724 -34.947542807177896
4.784942491120174 -43.81063931666491 -34.951370352537396
4.791203804849896 -44.027963688372665 -34.95498583881911
4.799035695347317 -44.237367492952124 -34.95839053362643
4.8085614050053325 -44.438837452884385 -34.96158637980319
4.819890474460122 -44.63236107985123 -34.964576256240484
4.83310603929893 -44.81792784535285 -34.967364217770985
4.848251481020991 -44.99553045457869 -34.96995568056662
4.865318095129048 -45.16516607459855 -34.97235751746892
4.884235583257324 -45.326837347590576 -34.97457803430933
4.904866932262482 -45.48055303488636 -34.97662681280188
4.927008653376005 -45.62632818590333 -34.97851442493023
4.950396558105855 -45.76418379606364 -34.98025204337439
4.974716431953509 -45.8941459929182 -34.981850987997035
4.999618308035868 -46.01624485352748 -34.98332225660945
5.024732657496058 -46.13051299704029 -34.98467608807043
5.04968673947902 -46.236984109670146 -34.98592159823729
5.074119554116056 -46.33569154702056 -34.9870665167352
5.097694232241197 -46.4266671278275 -34.98811703790221
5.120107172572763 -46.509940192592175 -34.989077785355526
5.141093707136138 -46.58553695877689 -34.98995187836392
5.160430471028409 -46.65348016770652 -34.99074108062933
5.177934937095693 -46.71378899076597 -34.99144600831392
5.193462742163848 -46.76647914514963 -34.99206637367433
5.206903492261282 -46.81156316149526 -34.99260124261281

VECTORS L float
0.05880462861358803 0.0 0.0
0.10632881758373089 0.0 0.0
0.15787802757847696 0.0 0.0
0.21518634131108452 0.0 0.0
0.2787480730989044 0.0 0.0
0.3487225186408834 0.0 0.0
0.4251293648116248 0.0 0.0
0.507907888081073 0.0 0.0
0.596937598270453 0.0 0.0
0.692037207533297 0.0 0.0
0.7930330042722382 0.0 0.0
0.8996500700427603 0.0 0.0
1.0115853562216794 0.0 0.0
1.1285028425529433 0.0 0.0
1.2500402140722728 0.0 0.0
1.3758184059734277 0.0 0.0
1.5054516587059323 0.0 0.0
1.638561683688813 0.0 0.0
1.774770137884698 0.0 0.0
1.9137737116169131 0.0 0.0
2.0552385354074425 0.0 0.0
2.19886404973301 0.0 0.0
2.3444491732734187 0.0 0.0
2.4916840577893122 0.0 0.0
2.640326995398823 0.0 0.0
2.7901689040003514 0.0 0.0
2.9410272325052382 0.0 0.0
3.0927391217506637 0.0 0.0
3.2451801857867824 0.0 0.0
3.398257794181526 0.0 0.0
3.551789804165842 0.0 0.0
3.7055557834722412 0.0 0.0
3.859399749093583 0.0 0.0
4.013120510836381 0.0 0.0
4.16646721055395 0.0 0.0
4.319152892991736 0.0 0.0
4.470783412893446 0.0 0.0
4.620865014929167 0.0 0.0
4.768769292825597 0.0 0.0
4.913704589426146 0.0 0.0
5.054671584775663 0.0 0.0
5.190453486761287 0.0 0.0
5.319602545108206 0.0 0.0
5.440485543105639 0.0 0.0
5.551402153137959 0.0 0.0
5.65093595478669 0.0 0.0
5.738384011445492 0.0 0.0
5.8149094704438 0.0 0.0
5.886085956687429 0.0 0.0
5.976798944300483 0.0 0.0
6.23519887975158 0.0 0.0
6.264011770765854 0.0 0.0
6.309545713010768 0.0 0.0
6.346373404437718 0.0 0.0
6.368065282498854 0.0 0.0
6.372527983133272 0.0 0.0
6.359726198219222 0.0 0.0
6.330543095255719 0.0 0.0
6.286266194235968 0.0 0.0
6.228264666761784 0.0 0.0
6.157823252401714 0.0 0.0
6.076071176510079 0.0 0.0
5.983964965341204 0.0 0.0
5.882300922469378 0.0 0.0
5.771740031958355 0.0 0.0
5.652834067603693 0.0 0.0
5.52605048067129 0.0 0.0
5.391795398841208 0.0 0.0
5.25043383197925 0.0 0.0
5.102298896861633 0.0 0.0
4.947713452878174 0.0 0.0
4.786998213061474 0.0 0.0
4.620481952070098 0.0 0.0
4.448505122172661 0.0 0.0
4.27144211236628 0.0 0.0
4.089698874822827 0.0 0.0
3.9037209814131537 0.0 0.0
3.714001272184206 0.0 0.0
3.5210910571597136 0.0 0.0
3.3255627330616404 0.0 0.0
3.1280790692702327 0.0 0.0
2.9293581702660147 0.0 0.0
2.730177858023297 0.0 0.0
2.531375610136791 0.0 0.0
2.3338423925909884 0.0 0.0
2.138512736053879 0.0 0.0
1.9463494025262558 0.0 0.0
1.758325397323695 0.0 0.0
1.575402880256733 0.0 0.0
1.39851453560937 0.0 0.0
1.2285420746387816 0.0 0.0
1.0663063154262813 0.0 0.0
0.9125532447816708 0.0 0.0
0.7679430119233094 0.0 0.0
0.633036581035888 0.0 0.0
0.5082736946792148 0.0 0.0
0.3939279976133971 0.0 0.0
0.2899905744520449 0.0 0.0
0.19579834764972417 0.0 0.0
0.10832456201659053 0.0 0.0
0.05880462861358803 0.0 0.0
0.10632881758373089 0.0 0.0
0.15787802757847696 0.0 0.0
0.21518634131108452 0.0 0.0
0.2787480730989044 0.0 0.0
0.3487225186408834 0.0 0.0
0.4251293648116248 0.0 0.0
0.507907888081073 0.0 0.0
0.596937598270453 0.0 0.0
0.692037207533297 0.0 0.0
0.7930330042722382 0.0 0.0
0.8996500700427603 0.0 0.0
1.0115853562216794 0.0 0.0
1.1285028425529433 0.0 0.0
1.2500402140722728 0.0 0.0
1.3758184059734277 0.0 0.0
1.5054516587059323 0.0 0.0
1.638561683688813 0.0 0.0
1.774770137884698 0.0 0.0
1.9137737116169131 0.0 0.0
2.0552385354074425 0.0 0.0
2.19886404973301 0.0 0.0
2.3444491732734187 0.0 0.0
2.4916840577893122 0.0 0.0
2.640326995398823 0.0 0.0
2.7901689040003514 0.0 0.0
2.9410272325052382 0.0 0.0
3.0927391217506637 0.0 0.0
3.2451801857867824 0.0 0.0
3.398257794181526 0.0 0.0
3.551789804165842 0.0 0.0
3.7055557834722412 0.0 0.0
3.859399749093583 0.0 0.0
4.013120510836381 0.0 0.0
4.16646721055395 0.0 0.0
4.319152892991736 0.0 0.0
4.470783412893446 0.0 0.0
4.620865014929167 0.0 0.0
4.768769292825597 0.0 0.0
4.913704589426146 0.0 0.0
5.054671584775663 0.0 0.0
5.190453486761287 0.0 0.0
5.319602545108206 0.0 0.0
5.440485543105639 0.0 0.0
5.551402153137959 0.0 0.0
5.65093595478669 0.0 0.0
5.738384011445492 0.0 0.0
5.8149094704438 0.0 0.0
5.886085956687429 0.0 0.0
5.976798944300483 0.0 0.0
6.23519887975158 0.0 0.0
6.264011770765854 0.0 0.0
6.309545713010768 0.0 0.0
6.346373404437718 0.0 0.0
6.368065282498854 0.0 0.0
6.372527983133272 0.0 0.0
6.359726198219222 0.0 0.0
6.330543095255719 0.0 0.0
6.286266194235968 0.0 0.0
6.228264666761784 0.0 0.0
6.157823252401714 0.0 0.0
6.076071176510079 0.0 0.0
5.983964965341204 0.0 0.0
5.882300922469378 0.0 0.0
5.771740031958355 0.0 0.0
5.652834067603693 0.0 0.0
5.52605048067129 0.0 0.0
5.391795398841208 0.0 0.0
5.25043383197925 0.0 0.0
5.102298896861633 0.0 0.0
4.947713452878174 0.0 0.0
4.786998213061474 0.0 0.0
4.620481952070098 0.0 0.0
4.448505122172661 0.0 0.0
4.27144211236628 0.0 0.0
4.089698874822827 0.0 0.0
3.9037209814131537 0.0 0.0
3.714001272184206 0.0 0.0
3.5210910571597136 0.0 0.0
3.3255627330616404 0.0 0.0
3.1280790692702327 0.0 0.0
2.9293581702660147 0.0 0.0
2.730177858023297 0.0 0.0
2.531375610136791 0.0 0.0
2.3338423925909884 0.0 0.0
2.138512736053879 0.0 0.0
1.9463494025262558 0.0 0.0
1.758325397323695 0.0 0.0
1.575402880256733 0.0 0.0
1.39851453560937 0.0 0.0
1.2285420746387816 0.0 0.0
1.0663063154262813 0.0 0.0
0.9125532447816708 0.0 0.0
0.7679430119233094 0.0 0.0
0.633036581035888 0.0 0.0
0.5082736946792148 0.0 0.0
0.3939279976133971 0.0 0.0
0.2899905744520449 0.0 0.0
0.19579834764972417 0.0 0.0
0.10832456201659053 0.0 0.0

SCALARS Gamma float
LOOKUP_TABLE default
0.4252045558770846
0.653551742805614
0.840440306205735
1.0086024544157581
1.165674958984463
1.315011954443054
1.4582640150539572
1.5962633314600665
1.7293965824880972
1.8577667880458761
1.9814525291160405
2.100276449983334
2.214041259660039
2.3225309503773945
2.425533335599971
2.5228606883356073
2.6143648735420766
2.69995380949317
2.7795714007900054
2.8532978476220743
2.921176976650292
2.983310230729293
3.0399252319231254
3.0911022498164544
3.1370078487716335
3.1778390290793617
3.213810538116813
3.245144260220212
3.2720854413082003
3.2948899175872692
3.3137114959504714
3.328665301440993
3.339920321222214
3.3476002550636883
3.351787240527998
3.3525384890257244
3.3498382925340855
3.343615512073827
3.3337292220733525
3.3199620501278013
3.302005740378442
3.2794719935741554
3.251900308338794
3.2187994568576253
3.1797222611900406
3.1344497908314373
3.083171716854599
3.026957721223748
2.9685741472319562
2.9151810804160556
2.909290917084962
2.9503624922666667
2.9959510388418282
3.039229590311526
3.0776230999583576
3.110148074465982
3.1366822798709526
3.157505034800147
3.1730800759322726
3.183911347613366
3.1904652280218357
3.193134599215323
3.1922274684684058
3.1879697624017025
3.180514494709467
3.1699518809164133
3.1563192226861476
3.1396102613188077
3.1197835217479963
3.0967647361396438
3.0704568175330698
3.0407425323266697
3.007488671779442
2.970546398087034
2.929764104628204
2.8849853525139335
2.8360538113102947
2.7828188859704666
2.7251451881861075
2.6628858694348008
2.595937110733978
2.5242172997137717
2.447675702763285
2.366299701955158
2.280118386163597
2.1892036514954203
2.093666190112497
1.9936474577557002
1.8893054055957328
1.7807981035429428
1.6682570347202346
1.5517652917307174
1.4313191319997731
1.306774171460953
1.1777560924880994
1.0434963498568393
0.9024978516872699
0.7517427937967456
0.5843877793842668
0.3801013845427805
0.4252045558770846
0.653551742805614
0.840440306205735
1.0086024544157581
1.165674958984463
1.315011954443054
1.4582640150539572
1.5962633314600665
1.7293965824880972
1.8577667880458761
1.9814525291160405
2.100276449983334
2.214041259660039
2.3225309503773945
2.425533335599971
2.5228606883356073
2.6143648735420766
2.69995380949317
2.7795714007900054
2.8532978476220743
2.921176976650292
2.983310230729293
3.0399252319231254
3.0911022498164544
3.1370078487716335
3.1778390290793617
3.213810538116813
3.245144260220212
3.2720854413082003
3.2948899175872692
3.3137114959504714
3.328665301440993
3.339920321222214
3.3476002550636883
3.351787240527998
3.3525384890257244
3.3498382925340855
3.343615512073827
3.3337292220733525
3.3199620501278013
3.302005740378442
3.2794719935741554
3.251900308338794
3.2187994568576253
3.1797222611900406
3.1344497908314373
3.083171716854599
3.026957721223748
2.9685741472319562
2.9151810804160556
2.909290917084962
2.9503624922666667
2.9959510388418282
3.039229590311526
3.0776230999583576
3.110148074465982
3.1366822798709526
3.157505034800147
3.1730800759322726
3.183911347613366
3.1904652280218357
3.193134599215323
3.1922274684684058
3.1879697624017025
3.180514494709467
3.1699518809164133
3.1563192226861476
3.1396102613188077
3.1197835217479963
3.0967647361396438
3.0704568175330698
3.0407425323266697
3.007488671779442
2.970546398087034
2.929764104628204
2.8849853525139335
2.8360538113102947
2.7828188859704666
2.7251451881861075