# vtk DataFile Version 4.0
[MyVLM domain - lattices] 
ASCII
DATASET UNSTRUCTURED_GRID
POINTS 302 float
0.03418245623128644 -0.28985556254279654 6.144939054837927
0.0340581563904454 -0.29525156646972794 6.148378119951596
0.03391102596659274 -0.3016386731587488 6.152448850086144
0.03374106495972845 -0.3090168826098594 6.15715124524157
0.033548273369852555 -0.31738619482305896 6.162485305417873
0.03333265119696503 -0.32674660979834824 6.168451030615055
0.0330941984410659 -0.33709812753572677 6.1750484208331144
0.03283291510215513 -0.3484407480351952 6.182277476072052
0.03254880118023275 -0.36077447129675244 6.190138196331867
0.03224185667529875 -0.3740992973203996 6.198630581612562
0.031912081587353126 -0.388415226106136 6.207754631914134
0.031559475916395886 -0.4037222576539621 6.217510347236583
0.031184039662427034 -0.42002039196387697 6.2278977275799114
0.030785772825446554 -0.4373096290358818 6.238916772944117
0.030364675405454445 -0.45558996886997627 6.250567483329202
0.029920747402450727 -0.47486141146616 6.262849858735164
0.029453988816435385 -0.49512395682443294 6.275763899162004
0.028964399647408417 -0.5163776049447957 6.2893096046097225
0.028451979895369846 -0.5386223558272478 6.303486975078318
0.02791672956031965 -0.5618582094717892 6.318296010567793
0.027358648642257826 -0.5860851658784201 6.333736711078146
0.026777737141184386 -0.6113032250471404 6.349809076609375
0.026173995057099327 -0.6375123869779502 6.366513107161484
0.02554742239000265 -0.6647126516708495 6.383848802734471
0.02489801913989435 -0.6929040191258382 6.401816163328335
0.024225785306774432 -0.7220864893429164 6.420415188943078
0.023530720890642898 -0.7522600623220839 6.439645879578698
0.022812825891499734 -0.783424738063341 6.459508235235198
0.022072100309344957 -0.8155805165666873 6.4800022559125745
0.02130854414417856 -0.8487273978321233 6.5011279416108305
0.020522157396000537 -0.8828653818596488 6.5228852923299625
0.0197129400648109 -0.9179944686492637 6.545274308069973
0.018880892150609643 -0.9541146582009679 6.568294988830862
0.018026013653396768 -0.9912259505147614 6.591947334612629
0.01714830457317227 -1.0293283455906446 6.616231345415274
0.01624776490993615 -1.0684218434286175 6.641147021238797
0.01532439466368841 -1.1085064440286794 6.666694362083199
0.014378193834429051 -1.149582147390831 6.692873367948478
0.013409162422158076 -1.1916489535150718 6.719684038834636
0.012417300426875482 -1.2347068624014021 6.747126374741671
0.011402607848581266 -1.278755874049822 6.775200375669583
0.01036508468727543 -1.3237959884603312 6.803906041618376
0.009304730942957973 -1.36982720563293 6.833243372588045
0.008221546615628891 -1.4168495255676183 6.863212368578592
0.007115531705288196 -1.464862948264396 6.893813029590019
0.0059866862119358774 -1.5138674737232631 6.925045355622323
0.00483501013557194 -1.5638631019442195 6.956909346675505
0.0036605034761963825 -1.6148498329272656 6.989405002749565
0.002463166233809212 -1.666827666672401 7.022532323844502
0.0012429984084104157 -1.719796603179626 7.056291309960318
0.0 -1.7737566424489397 7.090681961097012
0.00124299840841041 -1.7393863558738802 7.1446549740229175
0.0024631662338092 -1.70564736027673 7.1976366458950825
0.0036605034761963704 -1.672539655657489 7.249626976713506
0.004835010135571921 -1.640063242016157 7.300625966478189
0.005986686211935851 -1.6082181193527343 7.350633615189132
0.0071155317052881625 -1.577004287667221 7.399649922846331
0.008221546615628853 -1.546421746959617 7.4476748894497895
0.009304730942957924 -1.516470497229922 7.494708514999509
0.010365084687275376 -1.4871505384781367 7.540750799495485
0.01140260784858121 -1.4584618707042603 7.58580174293772
0.012417300426875423 -1.4304044939082932 7.629861345326215
0.013409162422158009 -1.4029784080902354 7.672929606660969
0.014378193834428983 -1.376183613250087 7.715006526941982
0.015324394663688337 -1.3500201093878477 7.756092106169254
0.016247764909936072 -1.3244878965035176 7.796186344342783
0.017148304573172183 -1.2995869745970972 7.835289241462573
0.018026013653396677 -1.2753173436685854 7.873400797528621
0.018880892150609556 -1.2516790037179832 7.9105210125409275
0.019712940064810808 -1.2286719547452902 7.946649886499492
0.020522157396000443 -1.2062961967505066 7.981787419404317
0.021308544144178456 -1.184551729733632 8.0159336112554
0.022072100309344853 -1.1634385536946668 8.049088462052744
0.02281282589149962 -1.142956668633611 8.081251971796345
0.023530720890642776 -1.1231060745504644 8.112424140486205
0.02422578530677431 -1.103886771445227 8.142604968122324
0.024898019139894232 -1.0852987593178987 8.1717944547047
0.025547422390002524 -1.0673420381684797 8.199992600233337
0.026173995057099202 -1.0500166079969702 8.227199404708234
0.026777737141184258 -1.0333224688033698 8.253414868129388
0.027358648642257698 -1.0172596205876787 8.278638990496802
0.02791672956031951 -1.0018280633498966 8.302871771810473
0.028451979895369704 -0.9870277970900242 8.326113212070403
0.028964399647408285 -0.9728588218080608 8.348363311276593
0.029453988816435236 -0.9593211375040066 8.369622069429042
0.02992074740245058 -0.9464147441778619 8.38988948652775
0.0303646754054543 -0.9341396418296262 8.409165562572717
0.030785772825446388 -0.9224958304593 8.427450297563942
0.031184039662426874 -0.9114833100668828 8.444743691501426
0.031559475916395734 -0.9011020806523751 8.461045744385169
0.03191208158735298 -0.8913521422157764 8.476356456215171
0.032241856675298594 -0.8822334947570872 8.490675826991431
0.032548801180232595 -0.873746138276307 8.50400385671395
0.03283291510215496 -0.8658900727734364 8.516340545382729
0.03309419844106573 -0.8586652982484747 8.527685892997766
0.03333265119696486 -0.852071814701423 8.538039899559063
0.03354827336985238 -0.8461096221322799 8.54740256506662
0.033741064959728284 -0.8407787205410461 8.555773889520433
0.03391102596659257 -0.8360791099277215 8.563153872920505
0.03405815639044523 -0.8320107902923062 8.569542515266837
0.034182456231286275 -0.8285737616348002 8.574939816559429
0.047855438723800985 0.19596122960126006 6.252642044678593
0.04773113888295995 0.19056522567432888 6.256081109792263
0.047584008459107284 0.184178118985308 6.26015183992681
0.047414047452243 0.17679990953419744 6.264854235082236
0.0472212558623671 0.16843059732099785 6.2701882952585395
0.047005633689479576 0.15907018234570858 6.276154020455721
0.04676718093358044 0.14871866460832983 6.2827514106737805
0.04650589759466968 0.13737604410886162 6.289980465912718
0.04622178367274729 0.12504232084730416 6.297841186172534
0.04591483916781329 0.11171749482365723 6.306333571453228
0.04558506407986767 0.09740156603792083 6.3154576217548
0.045232458408910436 0.08209453449009496 6.32521333707725
0.04485702215494158 0.0657964001801794 6.3356007174205775
0.0444587553179611 0.04850716310817482 6.346619762784784
0.044037657897969 0.03022682327408055 6.358270473169868
0.04359372989496528 0.010955380677896809 6.37055284857583
0.04312697130894993 -0.0093071646803764 6.38346688900267
0.04263738213992297 -0.03056081280073886 6.397012594450389
0.04212496238788439 -0.052805563683191004 6.411189964918985
0.041589712052834196 -0.0760414173277324 6.425999000408459
0.04103163113477238 -0.10026837373436326 6.441439700918812
0.04045071963369893 -0.1254864329030836 6.457512066450042
0.039846977549613874 -0.1516955948338936 6.4742160970021505
0.03922040488251719 -0.17889585952679266 6.4915517925751365
0.0385710016324089 -0.20708722698178142 6.509519153169001
0.03789876779928898 -0.2362696971988596 6.5281181787837435
0.03720370338315744 -0.26644327017802705 6.547348869419365
0.03648580838401428 -0.2976079459192842 6.567211225075865
0.0357450828018595 -0.3297637244226308 6.58770524575324
0.03498152663669311 -0.36291060568806666 6.608830931451497
0.03419513988851508 -0.397048589715592 6.630588282170629
0.03338592255732545 -0.4321776765052067 6.652977297910639
0.03255387464312419 -0.46829786605691126 6.675997978671528
0.03169899614591131 -0.5054091583707048 6.6996503244532954
0.030821287065686806 -0.543511553446588 6.72393433525594
0.029920747402450692 -0.5826050512845606 6.748850011079464
0.028997377156202958 -0.6226896518846226 6.774397351923865
0.028051176326943594 -0.6637653552467744 6.8005763577891445
0.027082144914672625 -0.705832161371015 6.827387028675302
0.026090282919390025 -0.7488900702573453 6.854829364582337
0.025075590341095813 -0.7929390819057652 6.882903365510249
0.024038067179789974 -0.8379791963162745 6.911609031459042
0.02297771343547252 -0.8840104134888732 6.940946362428711
0.021894529108143438 -0.9310327334235617 6.9709153584192585
0.02078851419780274 -0.9790461561203392 7.001516019430685
0.019659668704450423 -1.0280506815792063 7.032748345462989
0.018507992628086483 -1.078046309800163 7.064612336516171
0.01733348596871093 -1.129033040783209 7.097107992590231
0.016136148726323758 -1.181010874528344 7.130235313685168
0.01491598090092496 -1.2339798110355689 7.163994299800984
0.013672982492514543 -1.2879398503048831 7.198384950937678
0.014915980900924955 -1.2535695637298236 7.2523579638635844
0.016136148726323744 -1.2198305681326733 7.30533963573575
0.017333485968710916 -1.186722863513432 7.357329966554172
0.01850799262808647 -1.1542464498721001 7.408328956318855
0.0196596687044504 -1.1224013272086777 7.458336605029796
0.020788514197802706 -1.0911874955231644 7.507352912686997
0.0218945291081434 -1.0606049548155603 7.555377879290456
0.022977713435472467 -1.0306537050858655 7.602411504840175
0.024038067179789922 -1.00133374633408 7.648453789336152
0.025075590341095758 -0.9726450785602035 7.693504732778388
0.026090282919389966 -0.9445877017642367 7.737564335166883
0.027082144914672555 -0.917161615946179 7.780632596501637
0.028051176326943525 -0.8903668211060304 7.822709516782648
0.028997377156202885 -0.864203317243791 7.86379509600992
0.029920747402450616 -0.838671104359461 7.90388933418345
0.03082128706568673 -0.8137701824530403 7.942992231303239
0.03169899614591123 -0.7895005515245287 7.981103787369287
[...]
CELL_DATA 200

VECTORS Vinf float
5.170451805150358 42.268156915027774 -1.3765874443030244
5.156503193141963 42.29555095887614 -1.3367413870884761
5.140442332511534 42.32752237115172 -1.2902449993864011
5.1223955353784065 42.364054809850856 -1.2371236142089923
5.102517417599742 42.40512847626547 -1.1774064148556969
5.080992765038987 42.450719936479324 -1.1111261941642405
5.058037264947658 42.500802083759154 -1.0383189050303343
5.033896701267289 42.55534428840187 -0.9590229670112274
5.00884427337133 42.61431277363273 -0.8732783114173653
4.983175819261023 42.677671240891776 -0.7811251730943357
4.9572029097856465 42.74538174501312 -0.6826026699856443
4.931244021459057 42.81740579054786 -0.5777472484512791
4.90561426796296 42.893705587814466 -0.46659110792627406
4.880614434686919 42.97424537607024 -0.3491607458167782
4.856520265112833 43.05899269772914 -0.22547577482124073
4.833573038799654 43.1479194982346 -0.09554815366351663
4.81197241652492 43.24100293587695 0.040618064498213334
4.791872294806326 43.338225815944156 0.18302642150164922
4.773380034743276 43.43957661072717 0.3316872109451363
4.7586782382948 43.54488691899945 0.4871967009141825
4.742220630193357 43.65467401788546 0.6486017818571255
4.725154866065466 43.76865137640945 0.8146626356656779
4.715022570770329 43.88630964318492 0.9887450118822707
4.705838660784717 44.00817709362885 1.169146261939134
4.69773668875474 44.13423849270846 1.3558709094228463
4.690832431942369 44.26448056093266 1.548926067398437
4.685229107005357 44.3988913533645 1.7483202787506036
4.6810238972076945 44.537459507665695 1.9540624308030723
4.678314917539522 44.68017346140945 2.1661608702600503
4.677207669106368 44.82702074249617 2.384622815586702
4.675822297932358 44.97824854440409 2.6103583774867327
4.6769918803204735 45.1334822217515 2.8419774668949076
4.679557685352833 45.29287615666768 3.0800592509714373
4.685177999364604 45.45670273766965 3.324936665383167
4.6911254449151345 45.62436332612573 3.576011217734907
4.69846046137277 45.79619611425616 3.83356679537932
4.707267480830565 45.97219482258765 4.097617919382946
4.718769831755696 46.15220191326616 4.3680330383811174
4.730802373089635 46.3364952351807 4.645136211730023
4.744881101337132 46.52490014480027 4.92875214298554
4.760819775691803 46.71743990737637 5.218918321083435
4.778223474842409 46.91415765451282 5.51568282775639
4.796441546440229 47.11511972812059 5.819105386169813
4.814134411632986 47.32051539238768 6.129331827577531
4.830745737392917 47.52982555973032 6.4432568147141325
4.844640555877235 47.74401984304688 6.766403048432529
4.855355586842798 47.96283433639516 7.09636583356255
4.862494871095934 48.18630728227427 7.433131029535878
4.866316239746789 48.4144172847435 7.776642212084939
4.867662864754264 48.64708876688228 8.126816571569123
4.869148254865611 48.94055212884688 8.18621678399644
4.870394798249995 49.2894769790418 7.953996892130154
4.870003585794338 49.6320519775919 7.726006061515535
4.86633450479781 49.96849514724628 7.50228108132921
4.858955850717621 50.298861706828184 7.282769234550442
4.848203800857094 50.623125968757925 7.067430960724127
4.835012275328928 50.94119656311146 6.856248303263809
4.820587909825323 51.25294934692448 6.649224094800436
4.8060937539056185 51.55826092850521 6.446375516674594
4.7924465374005445 51.857031272630515 6.247726593544397
4.775769599121015 52.150031639653506 6.056830553232575
4.7641189360040785 52.4355573332093 5.866786303347278
4.753592758466073 52.714488835508845 5.681057117675204
4.740590620267253 52.98670035203588 5.497023759186891
4.733457371152183 53.2524133713633 5.320115340351906
4.727519825631803 53.51152709006291 5.147396185785597
4.722675964528506 53.76405495749272 4.978880697116384
4.7188471388019675 54.01000791457984 4.814582836317939
4.715977211633824 54.24939434120836 4.654516402797785
4.714025878996734 54.482220630419356 4.498695086110314
4.712957692432391 54.708492211385526 4.34713228876428
4.711241444578451 54.928316413012375 4.200133995109829
4.7102336621592995 55.14159558389482 4.058516463136893
4.712339264457839 55.34814331887449 3.919786030045615
4.715437655478241 55.54812640870369 3.7854114258923373
4.719586669271813 55.74154101456947 3.655396139433028
4.724857361329205 55.92838201563762 3.5297445133597467
4.731329033182517 56.10864346774587 3.408461701879151
4.739082192996448 56.282319235697464 3.2915535192308174
4.748189445495956 56.44940379851109 3.179026163678908
4.761280227581755 56.6096403956205 3.070400959873055
4.774674629491713 56.76339501877753 2.9666211633662054
4.789954115991425 56.9105123721845 2.8672249351787267
4.807109595257936 57.05099381996061 2.7722201562293236
4.82607147837527 57.184845953424784 2.6816127715962224
4.846704627080605 57.31208102192977 2.59540629568191
4.868808574451467 57.43271690801853 2.51360148262891
4.892123191987961 57.54677663210435 2.436196201987501
4.916339174706175 57.65428744107373 2.3631855296308095
4.94111206808619 57.75527959116771 2.294562034445004
4.966078182044061 57.849784968247086 2.2303162181225313
4.9897866104187045 57.937734530775 2.1692526389909172
5.014104968211905 58.01936863791534 2.113851920557798
5.03757980732715 58.09460563419634 2.062778522286107
5.05990645901985 58.163472188914916 2.0160213959997595
5.08081937392082 58.225991541785525 1.973569935557325
5.100094328680864 58.28218331469715 1.935414285510214
5.1175478705526265 58.33206356302596 1.9015455518378126
5.133034614180993 58.37564501327332 1.871955923962314
5.145588906193226 58.41304920931292 1.8466705809455317
5.170451805150358 42.268156915027774 -1.3765874443030244
5.156503193141963 42.29555095887614 -1.3367413870884761
5.140442332511534 42.32752237115172 -1.2902449993864011
5.1223955353784065 42.364054809850856 -1.2371236142089923
5.102517417599742 42.40512847626547 -1.1774064148556969
5.080992765038987 42.450719936479324 -1.1111261941642405
5.058037264947658 42.500802083759154 -1.0383189050303343
5.033896701267289 42.55534428840187 -0.9590229670112274
5.00884427337133 42.61431277363273 -0.8732783114173653
4.983175819261023 42.677671240891776 -0.7811251730943357
4.9572029097856465 42.74538174501312 -0.6826026699856443
4.931244021459057 42.81740579054786 -0.5777472484512791
4.90561426796296 42.893705587814466 -0.46659110792627406
4.880614434686919 42.97424537607024 -0.3491607458167782
4.856520265112833 43.05899269772914 -0.22547577482124073
4.833573038799654 43.1479194982346 -0.09554815366351663
4.81197241652492 43.24100293587695 0.040618064498213334
4.791872294806326 43.338225815944156 0.18302642150164922
4.773380034743276 43.43957661072717 0.3316872109451363
4.7586782382948 43.54488691899945 0.4871967009141825
4.742220630193357 43.65467401788546 0.6486017818571255
4.725154866065466 43.76865137640945 0.8146626356656779
4.715022570770329 43.88630964318492 0.9887450118822707
4.705838660784717 44.00817709362885 1.169146261939134
4.69773668875474 44.13423849270846 1.3558709094228463
4.690832431942369 44.26448056093266 1.548926067398437
4.685229107005357 44.3988913533645 1.7483202787506036
4.6810238972076945 44.537459507665695 1.9540624308030723
4.678314917539522 44.68017346140945 2.1661608702600503
4.677207669106368 44.82702074249617 2.384622815586702
4.675822297932358 44.97824854440409 2.6103583774867327
4.6769918803204735 45.1334822217515 2.8419774668949076
4.679557685352833 45.29287615666768 3.0800592509714373
4.685177999364604 45.45670273766965 3.324936665383167
4.6911254449151345 45.62436332612573 3.576011217734907
4.69846046137277 45.79619611425616 3.83356679537932
4.707267480830565 45.97219482258765 4.097617919382946
4.718769831755696 46.15220191326616 4.3680330383811174
4.730802373089635 46.3364952351807 4.645136211730023
4.744881101337132 46.52490014480027 4.92875214298554
4.760819775691803 46.71743990737637 5.218918321083435
4.778223474842409 46.91415765451282 5.51568282775639
4.796441546440229 47.11511972812059 5.819105386169813
4.814134411632986 47.32051539238768 6.129331827577531
4.830745737392917 47.52982555973032 6.4432568147141325
4.844640555877235 47.74401984304688 6.766403048432529
4.855355586842798 47.96283433639516 7.09636583356255
4.862494871095934 48.18630728227427 7.433131029535878
4.866316239746789 48.4144172847435 7.776642212084939
4.867662864754264 48.64708876688228 8.126816571569123
4.869148254865611 48.94055212884688 8.18621678399644
4.870394798249995 49.2894769790418 7.953996892130154
4.870003585794338 49.6320519775919 7.726006061515535
4.86633450479781 49.96849514724628 7.50228108132921
4.858955850717621 50.298861706828184 7.282769234550442
4.848203800857094 50.623125968757925 7.067430960724127
4.835012275328928 50.94119656311146 6.856248303263809
4.820587909825323 51.25294934692448 6.649224094800436
4.8060937539056185 51.55826092850521 6.446375516674594
4.7924465374005445 51.857031272630515 6.247726593544397
4.775769599121015 52.150031639653506 6.056830553232575
4.7641189360040785 52.4355573332093 5.866786303347278
4.753592758466073 52.714488835508845 5.681057117675204
4.740590620267253 52.98670035203588 5.497023759186891
4.733457371152183 53.2524133713633 5.320115340351906
4.727519825631803 53.51152709006291 5.147396185785597
4.722675964528506 53.76405495749272 4.978880697116384
4.7188471388019675 54.01000791457984 4.814582836317939
4.715977211633824 54.24939434120836 4.654516402797785
4.714025878996734 54.482220630419356 4.498695086110314
4.712957692432391 54.708492211385526 4.34713228876428
4.711241444578451 54.928316413012375 4.200133995109829
4.7102336621592995 55.14159558389482 4.058516463136893
4.712339264457839 55.34814331887449 3.919786030045615
4.715437655478241 55.54812640870369 3.7854114258923373
4.719586669271813 55.74154101456947 3.655396139433028
4.724857361329205 55.92838201563762 3.5297445133597467
4.731329033182517 56.10864346774587 3.408461701879151
4.739082192996448 56.282319235697464 3.2915535192308174
4.748189445495956 56.44940379851109 3.179026163678908
4.761280227581755 56.6096403956205 3.070400959873055
4.774674629491713 56.76339501877753 2.9666211633662054
4.789954115991425 56.9105123721845 2.8672249351787267
4.807109595257936 57.05099381996061 2.7722201562293236
4.82607147837527 57.184845953424784 2.6816127715962224
4.846704627080605 57.31208102192977 2.59540629568191
4.868808574451467 57.43271690801853 2.51360148262891
4.892123191987961 57.54677663210435 2.436196201987501
4.916339174706175 57.65428744107373 2.3631855296308095
4.94111206808619 57.75527959116771 2.294562034445004
4.966078182044061 57.849784968247086 2.2303162181225313
4.9897866104187045 57.937734530775 2.1692526389909172
5.014104968211905 58.01936863791534 2.113851920557798
5.03757980732715 58.09460563419634 2.062778522286107
5.05990645901985 58.163472188914916 2.0160213959997595
5.08081937392082 58.225991541785525 1.973569935557325
5.100094328680864 58.28218331469715 1.935414285510214
5.1175478705526265 58.33206356302596 1.9015455518378126
5.133034614180993 58.37564501327332 1.871955923962314
5.145588906193226 58.41304920931292 1.8466705809455317

VECTORS L float
0.05768577130722874 0.0 0.0
0.10430466771165443 0.0 0.0
0.154870485717192 0.0 0.0
0.21108499142973158 0.0 0.0
0.27343323612769793 0.0 0.0
0.34207138617078753 0.0 0.0
0.4170188531877187 0.0 0.0
0.4982166916177535 0.0 0.0
0.58554691905456 0.0 0.0
0.6788435900627164 0.0 0.0
0.7778936362996731 0.0 0.0
0.8824434349969952 0.0 0.0
0.9922004410294266 0.0 0.0
1.1068383918994735 0.0 0.0
1.2260049903691936 0.0 0.0
1.3493322603417208 0.0 0.0
1.4764440484690797 0.0 0.0
1.6069693930837226 0.0 0.0
1.740552651921357 0.0 0.0
1.8768808453439325 0.0 0.0
2.0155249607017796 0.0 0.0
2.1562042781271735 0.0 0.0
2.298841984798692 0.0 0.0
2.4430984115488616 0.0 0.0
2.5887340579191047 0.0 0.0
2.7355480380756685 0.0 0.0
2.8833646935744683 0.0 0.0
3.0320273556647273 0.0 0.0
3.1813899666673793 0.0 0.0
3.3313046580718444 0.0 0.0
3.481571266772751 0.0 0.0
3.6321196043222534 0.0 0.0
3.7827636216655276 0.0 0.0
3.933369794353621 0.0 0.0
4.083586471418995 0.0 0.0
4.233179651374875 0.0 0.0
4.381686749810579 0.0 0.0
4.528694880827951 0.0 0.0
4.673286681921278 0.0 0.0
4.8150896293553895 0.0 0.0
4.953005734274528 0.0 0.0
5.085850416572954 0.0 0.0
5.212203000129672 0.0 0.0
5.330470722168103 0.0 0.0
5.439031538481434 0.0 0.0
5.536400244300124 0.0 0.0
5.62194968927973 0.0 0.0
5.696837179309363 0.0 0.0
5.766517831538515 0.0 0.0
5.855170879392214 0.0 0.0
6.106669042909679 0.0 0.0
6.135245905971928 0.0 0.0
6.180177382960107 0.0 0.0
6.216520237419266 0.0 0.0
6.238125210006547 0.0 0.0
6.24294660014288 0.0 0.0
6.230883676938489 0.0 0.0
6.202776661270608 0.0 0.0
6.159899147090798 0.0 0.0
6.103527220047752 0.0 0.0
6.0346412033060846 0.0 0.0
5.954810472105151 0.0 0.0
5.864720759012003 0.0 0.0
5.765141404298937 0.0 0.0
5.657166660098749 0.0 0.0
5.541073251642036 0.0 0.0
5.417319845954662 0.0 0.0
5.286232337693402 0.0 0.0
5.148111919284907 0.0 0.0
5.003169362051684 0.0 0.0
4.85192734443815 0.0 0.0
4.694572782535889 0.0 0.0
4.531519302333869 0.0 0.0
4.363183963704626 0.0 0.0
4.189853492587868 0.0 0.0
4.011903720837551 0.0 0.0
3.8297563233303675 0.0 0.0
3.6438870308698035 0.0 0.0
3.4548264962210293 0.0 0.0
3.2632018840266483 0.0 0.0
3.069679352440345 0.0 0.0
2.8748807312161544 0.0 0.0
2.6795914586175926 0.0 0.0
2.4846413879131966 0.0 0.0
2.290897906381312 0.0 0.0
2.0992852450461705 0.0 0.0
1.9107523074539945 0.0 0.0
1.726258055751162 0.0 0.0
1.5467481745932496 0.0 0.0
1.3731391511372149 0.0 0.0
1.2062997004335985 0.0 0.0
1.0470335884674669 0.0 0.0
0.8960917413755146 0.0 0.0
0.7541176116980455 0.0 0.0
0.6216623708793488 0.0 0.0
0.4991592082788876 0.0 0.0
0.38687831812046647 0.0 0.0
0.28481135429763055 0.0 0.0
0.192309355623667 0.0 0.0
0.10639985412676477 0.0 0.0
0.05768577130722874 0.0 0.0
0.10430466771165443 0.0 0.0
0.154870485717192 0.0 0.0
0.21108499142973158 0.0 0.0
0.27343323612769793 0.0 0.0
0.34207138617078753 0.0 0.0
0.4170188531877187 0.0 0.0
0.4982166916177535 0.0 0.0
0.58554691905456 0.0 0.0
0.6788435900627164 0.0 0.0
0.7778936362996731 0.0 0.0
0.8824434349969952 0.0 0.0
0.9922004410294266 0.0 0.0
1.1068383918994735 0.0 0.0
1.2260049903691936 0.0 0.0
1.3493322603417208 0.0 0.0
1.4764440484690797 0.0 0.0
1.6069693930837226 0.0 0.0
1.740552651921357 0.0 0.0
1.8768808453439325 0.0 0.0
2.0155249607017796 0.0 0.0
2.1562042781271735 0.0 0.0
2.298841984798692 0.0 0.0
2.4430984115488616 0.0 0.0
2.5887340579191047 0.0 0.0
2.7355480380756685 0.0 0.0
2.8833646935744683 0.0 0.0
3.0320273556647273 0.0 0.0
3.1813899666673793 0.0 0.0
3.3313046580718444 0.0 0.0
3.481571266772751 0.0 0.0
3.6321196043222534 0.0 0.0
3.7827636216655276 0.0 0.0
3.933369794353621 0.0 0.0
4.083586471418995 0.0 0.0
4.233179651374875 0.0 0.0
4.381686749810579 0.0 0.0
4.528694880827951 0.0 0.0
4.673286681921278 0.0 0.0
4.8150896293553895 0.0 0.0
4.953005734274528 0.0 0.0
5.085850416572954 0.0 0.0
5.212203000129672 0.0 0.0
5.330470722168103 0.0 0.0
5.439031538481434 0.0 0.0
5.536400244300124 0.0 0.0
5.62194968927973 0.0 0.0
5.696837179309363 0.0 0.0
5.766517831538515 0.0 0.0
5.855170879392214 0.0 0.0
6.106669042909679 0.0 0.0
6.135245905971928 0.0 0.0
6.180177382960107 0.0 0.0
6.216520237419266 0.0 0.0
6.238125210006547 0.0 0.0
6.24294660014288 0.0 0.0
6.230883676938489 0.0 0.0
6.202776661270608 0.0 0.0
6.159899147090798 0.0 0.0
6.103527220047752 0.0 0.0
6.0346412033060846 0.0 0.0
5.954810472105151 0.0 0.0
5.864720759012003 0.0 0.0
5.765141404298937 0.0 0.0
5.657166660098749 0.0 0.0
5.541073251642036 0.0 0.0
5.417319845954662 0.0 0.0
5.286232337693402 0.0 0.0
5.148111919284907 0.0 0.0
5.003169362051684 0.0 0.0
4.85192734443815 0.0 0.0
4.694572782535889 0.0 0.0
4.531519302333869 0.0 0.0
4.363183963704626 0.0 0.0
4.189853492587868 0.0 0.0
4.011903720837551 0.0 0.0
3.8297563233303675 0.0 0.0
3.6438870308698035 0.0 0.0
3.4548264962210293 0.0 0.0
3.2632018840266483 0.0 0.0
3.069679352440345 0.0 0.0
2.8748807312161544 0.0 0.0
2.6795914586175926 0.0 0.0
2.4846413879131966 0.0 0.0
2.290897906381312 0.0 0.0
2.0992852450461705 0.0 0.0
1.9107523074539945 0.0 0.0
1.726258055751162 0.0 0.0
1.5467481745932496 0.0 0.0
1.3731391511372149 0.0 0.0
1.2062997004335985 0.0 0.0
1.0470335884674669 0.0 0.0
0.8960917413755146 0.0 0.0
0.7541176116980455 0.0 0.0
0.6216623708793488 0.0 0.0
0.4991592082788876 0.0 0.0
0.38687831812046647 0.0 0.0
0.28481135429763055 0.0 0.0
0.192309355623667 0.0 0.0
0.10639985412676477 0.0 0.0

SCALARS Gamma float
LOOKUP_TABLE default
0.4173861717988318
0.6415337227648252
0.8249842701804209
0.9900523731320535
1.1442339761040967
1.2908206463821763
1.4314327296322316
1.566888732539891
1.6975684195110747
1.8236009528760475
1.9449546398312583
2.0615067549239625
2.17307884986599
2.2794678156944514
2.380471860998288
2.4759130670503824
2.565648274761692
2.649585684014979
2.727691343142512
2.800014890878111
2.8664596621284164
2.927164604156028
2.9825177184975353
3.0325471382028666
3.077412172355705
3.117310021746345
3.1524537830834474
3.183062433486319
3.2093507108602113
3.231517121521396
3.2497018908940913
3.2641546518475657
3.2750077543208884
3.2824311294528448
3.28641430357615
3.287005085315364
3.2841969367494253
3.2779489756524325
3.2680724528405873
3.2543711184524033
3.236573347045412
3.214302517685971
3.1871048735664447
3.1545026017151767
3.1160808615802877
3.071568998126603
3.021188514118119
2.9659984244575854
2.9087155826826616
2.856358519641616
2.8505868856621177
2.8908779537010583
2.9356480129437124
2.9782037989624945
3.0160192792086145
3.0481319547880963
3.0743907317562362
3.0950575847543993
3.110593633306569
3.1214606723826623
3.1279728863354164
3.1307487096244113
3.129962367494666
3.125826795641378
3.1187322165792697
3.1086525383625356
3.0955913358770544
3.0795181399697773
3.060359566788532
3.0379719776389815
3.0123795464623027
2.98339431378184
2.9509291582033437
2.914904125043514
2.8751180301336223
2.831402506966356
2.783592751934088
2.731533867563076
2.6750831420684986
2.6141449682220514
2.5486327007464418
2.478399895876846
2.403411783620726
2.323661117583742
2.2391680280125215
2.150007073785845
2.0562885048026236
1.9581530092054475
1.8557546786390544
1.7492470203497854
1.6387598962949603
1.5243683941108763
1.406092016554655
1.2837812430042757
1.157066816638264
1.025193686881566
0.8866912891769753
0.7385924499627745
0.5741755551316912
0.3734619640222951
0.4173861717988318
0.6415337227648252
0.8249842701804209
0.9900523731320535
1.1442339761040967
1.2908206463821763
1.4314327296322316
1.566888732539891
1.6975684195110747
1.8236009528760475
1.9449546398312583
2.0615067549239625
2.17307884986599
2.2794678156944514
2.380471860998288
2.4759130670503824
2.565648274761692
2.649585684014979
2.727691343142512
2.800014890878111
2.8664596621284164
2.927164604156028
2.9825177184975353
3.0325471382028666
3.077412172355705
3.117310021746345
3.1524537830834474
3.183062433486319
3.2093507108602113
3.231517121521396
3.2497018908940913
3.2641546518475657
3.2750077543208884
3.2824311294528448
3.28641430357615
3.287005085315364
3.2841969367494253
3.2779489756524325
3.2680724528405873
3.2543711184524033
3.236573347045412
3.214302517685971
3.1871048735664447
3.1545026017151767
3.1160808615802877
3.071568998126603
3.021188514118119
2.9659984244575854
2.9087155826826616
2.856358519641616
2.8505868856621177
2.8908779537010583
2.9356480129437124
2.9782037989624945
3.0160192792086145
3.0481319547880963
3.0743907317562362
3.0950575847543993
3.110593633306569
3.1214606723826623
3.1279728863354164
3.1307487096244113
3.129962367494666
3.125826795641378
3.1187322165792697
3.1086525383625356
3.0955913358770544
3.0795181399697773
3.060359566788532
3.0379719776389815
3.0123795464623027
2.98339431378184
2.9509291582033437
2.914904125043514
2.8751180301336223
2.831402506966356
2.783592751934088
2.731533867563076
2.6750831420684986
2.6141449682220514
2.5486327007464418
2.478399895876846
2.403411783620726
2.323661117583742
2.2391680280125215
2.150007073785845
2.0562885048026236
1.9581530092054475
1.8557546786390544
1.7492470203497854
1.6387598962949603
1.5243683941108763
1.406092016554655
1.2837812430042757
1.157066816638264
1.025193686881566
0.8866912891769753