# vtk DataFile Version 4.0
[MyVLM domain - lattices] 
ASCII
DATASET UNSTRUCTURED_GRID
POINTS 302 float
0.03418245623128646 1.6204198590424967 5.940510312071028
0.034058156390445425 1.6163077454556314 5.945412816439638
0.03391102596659276 1.6114403456997501 5.9512157807943185
0.03374106495972848 1.605817659774853 5.95791920513507
0.03354827336985258 1.5994396876809396 5.965523089461893
0.03333265119696505 1.5923064294180098 5.974027433774788
0.03309419844106592 1.5844178849860642 5.983432238073753
0.03283291510215515 1.5757740543851027 5.9937375023587895
0.032548801180232775 1.5663749376151248 6.004943226629896
0.03224185667529877 1.556220534676131 6.017049410887076
0.03191208158735315 1.5453108455681215 6.030056055130325
0.03155947591639591 1.5336458702910956 6.043963159359646
0.03118403966242705 1.5212256088450538 6.058770723575038
0.030785772825446568 1.5080500612299956 6.074478747776501
0.03036467540545447 1.4941192274459216 6.0910872319640355
0.02992074740245075 1.4794331074928313 6.108596176137641
0.029453988816435416 1.463991701370725 6.127005580297317
0.028964399647408448 1.4477950090796026 6.146315444443066
0.028451979895369867 1.4308430306194642 6.166525768574885
0.027916729560319667 1.4131357659903099 6.187636552692775
0.02735864864225785 1.3946732151921393 6.209647796796736
0.026777737141184404 1.3754553782249528 6.232559500886768
0.026173995057099348 1.3554822550887504 6.256371664962872
0.025547422390002666 1.3347538457835315 6.2810842890250465
0.024898019139894367 1.3132701503092967 6.306697373073292
0.024225785306774453 1.291031168666046 6.333210917107609
0.02353072089064291 1.268036900853779 6.360624921127997
0.02281282589149975 1.244287346872496 6.388939385134456
0.022072100309344974 1.2197825067221972 6.418154309126987
0.021308544144178574 1.1945223804028822 6.448269693105588
0.020522157396000554 1.168506967914551 6.47928553707026
0.019712940064810915 1.1417362692572037 6.511201841021004
0.018880892150609657 1.1142102844308406 6.544018604957819
0.01802601365339678 1.085929013435461 6.577735828880706
0.01714830457317228 1.0568924562710658 6.612353512789663
0.01624776490993616 1.0271006129376543 6.647871656684691
0.015324394663688418 0.9965534834352267 6.68429026056579
0.014378193834429063 0.965251067763783 6.721609324432961
0.013409162422158089 0.9331933659233236 6.759828848286202
0.012417300426875492 0.9003803779138477 6.798948832125514
0.011402607848581275 0.866812103735356 6.838969275950899
0.010365084687275436 0.8324885433878483 6.879890179762355
0.00930473094295798 0.7974096968713242 6.921711543559881
0.008221546615628897 0.7615755641857841 6.964433367343478
0.0071155317052882 0.7249861453312281 7.008055651113145
0.005986686211935882 0.6876414403076558 7.052578394868886
0.004835010135571943 0.6495414491150676 7.098001598610697
0.003660503476196385 0.6106861717534633 7.14432526233858
0.002463166233809214 0.5710756082228432 7.191549386052531
0.0012429984084104167 0.5307097585232068 7.239673969752556
0.0 0.48958862265455433 7.288699013438651
0.001242998408410411 0.5385981455668024 7.329838646245296
0.0024631662338092017 0.5867074935684173 7.370222653143249
0.003660503476196374 0.6339166666593992 7.409851034132506
0.004835010135571925 0.6802256648397478 7.448723789213071
0.005986686211935857 0.7256344881094633 7.486840918384941
0.007115531705288168 0.7701431364685456 7.524202421648119
0.00822154661562886 0.8137516099169948 7.560808299002604
0.009304730942957931 0.856459908454811 7.596658550448395
0.010365084687275384 0.898268032081994 7.63175317598549
0.011402607848581218 0.939175980798544 7.666092175613895
0.012417300426875432 0.9791837546044606 7.699675549333606
0.01340916242215802 1.0182913534997442 7.732503297144623
0.014378193834428992 1.0564987774843946 7.764575419046946
0.01532439466368835 1.0938060265584122 7.795891915040575
0.016247764909936083 1.1302131007217961 7.826452785125511
0.017148304573172193 1.1657199999745473 7.856258029301754
0.01802601365339669 1.2003267243166655 7.885307647569303
0.01888089215060957 1.2340332737481505 7.913601639928159
0.01971294006481082 1.266839648269002 7.941140006378322
0.02052215739600046 1.2987458478792209 7.9679227469197915
0.02130854414417847 1.3297518725788062 7.993949861552565
0.02207210030934487 1.3598577223677586 8.019221350276649
0.022812825891499636 1.3890633972460775 8.043737213092037
0.023530720890642797 1.417368897213764 8.067497449998731
0.02422578530677433 1.4447742222708166 8.090502060996732
0.02489801913989425 1.4712793724172366 8.112751046086041
0.02554742239000254 1.4968843476530234 8.134244405266655
0.026173995057099227 1.521589147978177 8.154982138538577
0.026777737141184282 1.5453937733926977 8.174964245901805
0.02735864864225772 1.5682982238965848 8.194190727356338
0.02791672956031954 1.5903024994898391 8.212661582902179
0.02845197989536973 1.6114066001724598 8.230376812539326
0.028964399647408306 1.6316105259444484 8.24733641626778
0.029453988816435264 1.650914276805803 8.26354039408754
0.0299207474024506 1.669317852756525 8.278988745998607
0.03036467540545432 1.6868212537966136 8.29368147200098
0.03078577282544642 1.7034244799260687 8.30761857209466
0.031184039662426898 1.7191275311448915 8.320800046279645
0.031559475916395754 1.7339304074530801 8.333225894555937
0.031912081587353 1.7478331088506363 8.344896116923538
0.032241856675298615 1.7608356353375594 8.355810713382443
0.03254880118023262 1.7729379869138493 8.365969683932656
0.032832915102155 1.7841401635795056 8.375373028574174
0.03309419844106575 1.7944421653345293 8.384020747307
0.03333265119696489 1.8038439921789193 8.391912840131132
0.03354827336985241 1.812345644112677 8.399049307046571
0.03374106495972831 1.8199471211358014 8.405430148053314
0.033911025966592595 1.8266484232482925 8.411055363151366
0.03405815639044526 1.8324495504501503 8.415924952340724
0.034182456231286296 1.8373505027413752 8.420038915621388
0.04785543872380102 2.11613848233745 5.897140552234052
0.04773113888295998 2.1120263687505845 5.902043056602661
0.04758400845910732 2.1071589689947032 5.907846020957342
0.047414047452243036 2.1015362830698057 5.914549445298094
0.04722125586236714 2.0951583109758922 5.9221533296249165
0.04700563368947961 2.088025052712963 5.9306576739378105
0.046767180933580475 2.0801365082810173 5.940062478236776
0.04650589759466971 2.0714926776800553 5.950367742521812
0.046221783672747326 2.062093560910078 5.961573466792919
0.045914839167813325 2.051939157971084 5.973679651050098
0.045585064079867704 2.041029468863074 5.986686295293348
0.04523245840891047 2.0293644935860486 6.0005933995226695
0.04485702215494161 2.0169442321400064 6.015400963738061
0.044458755317961125 2.0037686845249483 6.0311089879395245
0.044037657897969026 1.9898378507408743 6.047717472127059
0.0435937298949653 1.9751517307877837 6.065226416300664
0.04312697130894996 1.9597103246656777 6.083635820460341
0.042637382139923 1.943513632374555 6.102945684606088
0.04212496238788442 1.9265616539144172 6.123156008737908
0.041589712052834224 1.9088543892852627 6.144266792855797
0.04103163113477241 1.8903918384870921 6.166278036959759
0.04045071963369896 1.8711740015199059 6.189189741049791
0.0398469775496139 1.851200878383703 6.2130019051258945
0.03922040488251722 1.8304724690784842 6.237714529188069
0.03857100163240893 1.8089887736042498 6.263327613236315
0.037898767799289 1.786749791960999 6.289841157270632
0.03720370338315747 1.7637555241487324 6.31725516129102
0.03648580838401431 1.740005970167449 6.345569625297479
0.03574508280185953 1.71550113001715 6.374784549290009
0.03498152663669313 1.690241003697835 6.404899933268611
0.03419513988851511 1.6642255912095034 6.435915777233284
0.033385922557325476 1.6374548925521566 6.467832081184027
0.03255387464312421 1.6099289077257932 6.500648845120843
0.03169899614591134 1.581647636730414 6.5343660690437275
0.030821287065686837 1.5526110795660184 6.568983752952685
0.029920747402450716 1.522819236232607 6.604501896847713
0.028997377156202986 1.4922721067301796 6.640920500728813
0.028051176326943622 1.4609696910587355 6.678239564595984
0.027082144914672642 1.4289119892182762 6.716459088449225
0.02609028291939005 1.3960990012088006 6.755579072288539
0.02507559034109583 1.3625307270303089 6.795599516113921
0.02403806717978999 1.3282071666828008 6.836520419925376
0.022977713435472533 1.293128320166277 6.878341783722903
0.021894529108143455 1.2572941874807368 6.9210636075065
0.020788514197802758 1.220704768626181 6.9646858912761695
0.019659668704450437 1.1833600636026085 7.009208635031909
0.018507992628086497 1.1452600724100206 7.05463183877372
0.017333485968710944 1.106404795048416 7.100955502501602
0.01613614872632377 1.0667942315177958 7.148179626215556
0.014915980900924974 1.0264283818181597 7.19630420991558
0.013672982492514555 0.985307245949507 7.245329253601675
0.014915980900924967 1.0343167688617552 7.286468886408319
0.016136148726323758 1.08242611686337 7.32685289330627
0.017333485968710927 1.129635289954352 7.366481274295529
0.018507992628086483 1.1759442881347004 7.4053540293760935
0.019659668704450413 1.221353111404416 7.443471158547965
0.020788514197802723 1.2658617597634985 7.480832661811142
0.021894529108143414 1.3094702332119477 7.517438539165627
0.022977713435472488 1.3521785317497637 7.553288790611417
0.02403806717978994 1.3939866553769469 7.588383416148515
0.025075590341095775 1.434894604093497 7.622722415776918
0.02609028291938998 1.4749023778994133 7.656305789496628
0.02708214491467258 1.5140099767946968 7.689133537307645
0.02805117632694355 1.5522174007793472 7.721205659209968
0.028997377156202906 1.5895246498533648 7.752522155203597
0.029920747402450643 1.6259317240167492 7.783083025288534
0.03082128706568675 1.6614386232695004 7.812888269464777
0.031698996145911255 1.6960453476116184 7.8419378877323265
0.03255387464312412 1.7297518970431032 7.870231880091182
0.03338592255732538 1.7625582715639552 7.897770246541343
0.03419513988851502 1.7944644711741737 7.924552987082814
0.03498152663669303 1.825470495873759 7.950580101715588
0.03574508280185942 1.8555763456627112 7.975851590439671
0.03648580838401419 1.88478202054103 8.000367453255059
0.03720370338315736 1.913087520508717 8.024127690161754
0.03789876779928889 1.9404928455657695 8.047132301159756
0.038571001632408806 1.9669979957121897 8.069381286249063
0.0392204048825171 1.9926029709479767 8.090874645429679
0.03984697754961378 2.01730777127313 8.111612378701599
0.04045071963369883 2.0411123966876503 8.131594486064827
0.04103163113477227 2.064016847191538 8.15082096751936
0.041589712052834085 2.086021122784792 8.169291823065201
0.04212496238788428 2.107125223467413 8.187007052702349
0.04263738213992286 2.127329149239401 8.203966656430802
0.04312697130894982 2.1466329001007556 8.220170634250563
0.04359372989496516 2.1650364760514775 8.23561898616163
0.044037657897968874 2.1825398770915663 8.250311712164002
0.04445875531796097 2.1991431032210214 8.264248812257682
0.04485702215494146 2.214846154439844 8.277430286442668
0.04523245840891031 2.2296490307480332 8.289856134718962
0.04558506407986756 2.243551732145589 8.30152635708656
0.04591483916781317 2.2565542586325122 8.312440953545467
0.04622178367274717 2.268656610208802 8.322599924095679
0.046505897594669554 2.2798587868744584 8.332003268737198
0.04676718093358031 2.2901607886294824 8.340650987470022
0.04700563368947944 2.299562615473872 8.348543080294155
0.047221255862366966 2.3080642674076297 8.355679547209593
0.04741404745224287 2.315665744430754 8.362060388216339
0.047584008459107145 2.322367046543245 8.367685603314388
0.047731138882959816 2.3281681737451034 8.372555192503748
0.04785543872380085 2.333069126036328 8.376669155784413
0.04437504318025186 1.990152769720279 5.9104342443776
0.04423932804790501 1.985663013048906 5.915786978739245
0.04408078233254654 1.9804179702085165 5.922040173086962
0.043899406034176455 1.9744176411991112 5.929193827420749
0.04369519915279474 1.9676620260206892 5.937247941740607
0.04346816168840141 1.9601511246732517 5.9462025160465375
0.043218293640996455 1.9518849371567981 5.956057550338539
0.04294559501057988 1.942863463471329 5.96681304461661
0.04265006579715169 1.9330867036168426 5.978468998880754
0.04233170600071188 1.9225546575933408 5.991025413130967
0.041990515621260445 1.9112673254008228 6.004482287367253
0.0416264946587974 1.899224707039289 6.01883962158961
0.04123964311332273 1.886426802508739 6.034097415798037
0.04082996098483644 1.8728736118091727 6.050255669992536
0.040397448273338535 1.8585651349405914 6.067314384173105
0.039942104978828996 1.843501371902993 6.085273558339747
0.039463931101307845 1.8276823226963785 6.1041331924924584
0.038962926640775074 1.811107987320748 6.123893286631242
0.03843909159723068 1.7937783657761015 6.144553840756097
0.03789242597067468 1.7756934580624395 6.166114854867022
0.03732292976110704 1.7568532641797607 6.188576328964019
0.036730602968527794 1.737257784128066 6.211938263047087
0.03611544559293693 1.7169070179073553 6.2362006571162265
0.035477457634334436 1.695800965517629 6.261363511171436
0.034816639092720335 1.673939626958886 6.287426825212718
0.03413298996809459 1.6513230022311274 6.31439059924007
0.03342651026045725 1.6279510913343522 6.342254833253493
0.032697199969808285 1.6038238942685612 6.371019527252988
0.0319450590961477 1.5789414110337545 6.4006846812385545
0.031170087639475486 1.553303641629931 6.431250295210191
0.03037228559979165 1.5269105860570917 6.462716369167899
0.029551652977096204 1.499762244315237 6.495082903111678
0.02870818977138914 1.4718586164043654 6.528349897041529
0.027841895982670447 1.443199702324478 6.56251735095745
0.026952771610940143 1.4137855020755747 6.597585264859443
0.026040816656198215 1.3836160156576551 6.6335536387475065
0.02510603111844466 1.3526912430707196 6.670422472621643
0.024148414997679498 1.321011184314768 6.708191766481848
0.02316796829390271 1.2885758393898001 6.7468615203281255
0.022164691007114302 1.2553852082958166 6.786431734160475
0.021138583137314274 1.2214392910328167 6.826902407978895
0.02008964468450263 1.186738087600801 6.868273541783384
0.019017875648679357 1.1512815979997688 6.910545135573947
0.01792327602984447 1.1150698222297208 6.953717189350579
0.01680584582799796 1.0781027602906565 6.997789703113284
0.015665585043139838 1.0403804121825766 7.042762676862058
0.01450249367527009 1.0019027779054803 7.088636110596904
0.01331657172438872 0.962669857459368 7.135410004317822
0.012107819190495733 0.9226816508442396 7.183084358024811
0.010876236073591125 0.8819381580600951 7.231659171717871
0.010876236073591122 0.885882351581893 7.27674150996424
0.012107819190495722 0.9344417870388243 7.317503329816541
0.013316571724388705 0.982101047585123 7.357509523760144
0.014502493675270064 1.028860133220788 7.396760091795055
0.01566558504313981 1.0747190439458203 7.4352550339212735
0.016805845827997927 1.1196777797602189 7.472994350138798
0.017923276029844434 1.1637363406639847 7.5099780404476295
0.019017875648679315 1.2068947266571177 7.546206104847767
0.020089644684502573 1.249152937739617 7.581678543339209
0.021138583137314218 1.2905109739114837 7.61639535592196
0.022164691007114247 1.3309688351727171 7.650356542596017
0.023167968293902646 1.3705265215233173 7.683562103361381
0.024148414997679425 1.4091840329632843 7.71601203821805
0.025106031118444592 1.446941369492618 7.7477063471660275
0.026040816656198135 1.4837985311113189 7.77864503020531
0.026952771610940056 1.519755517819387 7.8088280873358995
0.027841895982670364 1.554812329616821 7.838255518557795
0.02870818977138905 1.5889689665036224 7.866927323870998
0.029551652977096114 1.622225428479791 7.894843503275507
0.030372285599791556 1.6545817155453262 7.922004056771323
0.031170087639475385 1.6860378277002281 7.948408984358445
0.03194505909614759 1.7165937649444971 7.974058286036874
0.03269719996980817 1.7462495272781327 7.998951961806609
0.033426510260457135 1.7750051147011354 8.023090011667652
0.03413298996809448 1.802860527213505 8.046472435619998
0.0348166390927202 1.8298157648152416 8.069099233663653
0.03547745763433431 1.855870827506345 8.090970405798615
0.03611544559293681 1.881025715286815 8.112085952024882
0.036730602968527676 1.9052804281566524 8.132445872342457
0.03732292976110692 1.928634966115856 8.152050166751337
0.03789242597067454 1.9510893291644267 8.170898835251526
0.03843909159723055 1.9726435173023646 8.18899187784302
0.038962926640774935 1.993297530529669 8.206329294525819
0.039463931101307706 2.01305136884634 8.222911085299927
0.03994210497882885 2.0319050322523786 8.23873725016534
0.040397448273338375 2.0498585207477835 8.25380778912206
0.04082996098483629 2.0669118343325557 8.268122702170086
0.04123964311332258 2.0830649730066946 8.28168198930942
0.041626494658797246 2.0983179367702003 8.294485650540059
0.0419905156212603 2.1126707256230732 8.306533685862005
0.04233170600071173 2.1261233395653125 8.317826095275258
0.04265006579715153 2.1386757785969186 8.328362878779817
0.04294559501057972 2.150328042717892 8.338144036375683
0.04321829364099628 2.161080131928232 8.347169568062855
0.04346816168840124 2.170932046227939 8.355439473841333
0.04369519915279457 2.1798837856170135 8.362953753711118
0.04389940603417628 2.187935350095454 8.36971240767221
0.04408078233254637 2.1950867396632616 8.375715435724608
0.04423932804790484 2.201337954320436 8.380962837868314
0.04437504318025169 2.2066889940669774 8.385454614103324

CELLS 200 700
4 0 101 102 1
4 1 102 103 2
4 2 103 104 3
4 3 104 105 4
4 4 105 106 5
4 5 106 107 6
4 6 107 108 7
4 7 108 109 8
4 8 109 110 9
4 9 110 111 10
4 10 111 112 11
4 11 112 113 12
4 12 113 114 13
4 13 114 115 14
4 14 115 116 15
4 15 116 117 16
4 16 117 118 17
4 17 118 119 18
4 18 119 120 19
4 19 120 121 20
4 20 121 122 21
4 21 122 123 22
4 22 123 124 23
4 23 124 125 24
4 24 125 126 25
4 25 126 127 26
4 26 127 128 27
4 27 128 129 28
4 28 129 130 29
4 29 130 131 30
4 30 131 132 31
4 31 132 133 32
4 32 133 134 33
4 33 134 135 34
4 34 135 136 35
4 35 136 137 36
4 36 137 138 37
4 37 138 139 38
4 38 139 140 39
4 39 140 141 40
4 40 141 142 41
4 41 142 143 42
4 42 143 144 43
4 43 144 145 44
4 44 145 146 45
4 45 146 147 46
4 46 147 148 47
4 47 148 149 48
4 48 149 150 49
4 49 150 151 50
4 50 151 152 51
4 51 152 153 52
4 52 153 154 53
4 53 154 155 54
4 54 155 156 55
4 55 156 157 56
4 56 157 158 57
4 57 158 159 58
4 58 159 160 59
4 59 160 161 60
4 60 161 162 61
4 61 162 163 62
4 62 163 164 63
4 63 164 165 64
4 64 165 166 65
4 65 166 167 66
4 66 167 168 67
4 67 168 169 68
4 68 169 170 69
4 69 170 171 70
4 70 171 172 71
4 71 172 173 72
4 72 173 174 73
4 73 174 175 74
4 74 175 176 75
4 75 176 177 76
4 76 177 178 77
4 77 178 179 78
4 78 179 180 79
4 79 180 181 80
4 80 181 182 81
4 81 182 183 82
4 82 183 184 83
4 83 184 185 84
4 84 185 186 85
4 85 186 187 86
4 86 187 188 87
4 87 188 189 88
4 88 189 190 89
4 89 190 191 90
4 90 191 192 91
4 91 192 193 92
4 92 193 194 93
4 93 194 195 94
4 94 195 196 95
4 95 196 197 96
4 96 197 198 97
4 97 198 199 98
4 98 199 200 99
4 99 200 201 100
1 202
1 203
1 204
1 205
1 206
1 207
1 208
1 209
1 210
1 211
1 212
1 213
1 214
1 215
1 216
1 217
1 218
1 219
1 220
1 221
1 222
1 223
1 224
1 225
1 226
1 227
1 228
1 229
1 230
1 231
1 232
1 233
1 234
1 235
1 236
1 237
1 238
1 239
1 240
1 241
1 242
1 243
1 244
1 245
1 246
1 247
1 248
1 249
1 250
1 251
1 252
1 253
1 254
1 255
1 256
1 257
1 258
1 259
1 260
1 261
1 262
1 263
1 264
1 265
1 266
1 267
1 268
1 269
1 270
1 271
1 272
1 273
1 274
1 275
1 276
1 277
1 278
1 279
1 280
1 281
1 282
1 283
1 284
1 285
1 286
1 287
1 288
1 289
1 290
1 291
1 292
1 293
1 294
1 295
1 296
1 297
1 298
1 299
1 300
1 301

CELL_TYPES 200
9
9
9
9
9
9
9
9
9
9
9
9
9
9
9
9
9
9
9
9
9
9
9
9
9
9
9
9
9
9
9
9
9
9
9
9
9
9
9
9
9
9
9
9
9
9
9
9
9
9
9
9
9
9
9
9
9
9
9
9
9
9
9
9
9
9
9
9
9
9
9
9
9
9
9
9
9
9
9
9
9
9
9
9
9
9
9
9
9
9
9
9
9
9
9
9
9
9
9
9
1
1
1
1
1
1
1
1
1
1
1
1
1
1
1
1
1
1
1
1
1
1
1
1
1
1
1
1
1
1
1
1
1
1
1
1
1
1
1
1
1
1
1
1
1
1
1
1
1
1
1
1
1
1
1
1
1
1
1
1
1
1
1
1
1
1
1
1
1
1
1
1
1
1
1
1
1
1
1
1
1
1
1
1
1
1
1
1
1
1
1
1
1
1
1
1
1
1
1
1

CELL_DATA 200

VECTORS Vinf float
5.169175038174086 39.89810351817011 -14.023926689406249
5.1552345328183025 39.93622586551573 -13.99417323735238
5.139183207820708 39.98071528057246 -13.959455795537604
5.12114739657949 40.03154827013326 -13.91979369957701
5.10128173169062 40.088696851742355 -13.87520890305997
5.079771007229129 40.1521284610727 -13.825725683885569
5.056830905151874 40.22180605834668 -13.771370193372443
5.03270718454118 40.29768848897289 -13.71216982912565
5.006909398726327 40.37882780035535 -13.65123915132482
4.982202073649049 40.46731055663526 -13.58119881838947
4.956962151759728 40.561830105566415 -13.506542577938738
4.931505211136913 40.662318253513824 -13.427347303519738
4.906158009727042 40.768705206803226 -13.34369046126595
4.879550449152008 40.88069011513057 -13.256684332899765
4.855479160790777 40.99871866716322 -13.1642418842984
4.832554331716569 41.12260853068071 -13.067102169037607
4.8109750360478145 41.25233680659332 -12.965261628466886
4.790735815890306 41.38828620357073 -12.858009077191676
4.773531615468295 41.53008780773773 -12.745044621759185
4.757534935349951 41.67759698013526 -12.627825678300953
4.742832046657823 41.83078397665727 -12.506408895184874
4.7294859475121624 41.98962130115604 -12.380852468875075
4.715285179277202 42.15294056298705 -12.254729187831288
4.705111686787465 42.32346494457058 -12.119548733999578
4.696489457901915 42.49985634048424 -11.979529359021829
4.689362264955539 42.68212748141781 -11.83465546361016
4.683677424863558 42.87028973436569 -11.68491363287563
4.679390007301484 43.064352626758534 -11.530292567328862
4.674892302562201 43.26439409879086 -11.371232002312034
4.673720433644958 43.47025262716678 -11.206692117685146
4.67340456910438 43.682078716419525 -11.037283235777233
4.673966441957724 43.899875352103294 -10.862987853885162
4.675427246793334 44.123645655729284 -10.683788757921645
4.682275578287645 44.35288056735971 -10.499681964372813
4.687798234478087 44.58831293127395 -10.310720390422198
4.69496002184415 44.82963564889686 -10.11683656770155
4.703863967241309 45.07684008827323 -9.918026037628959
4.714515836070662 45.33025050224709 -9.715089405583614
4.7269266521178865 45.589162611541624 -9.50633113637735
4.741014767726029 45.854012073986844 -9.292531572124384
4.756559016995299 46.1248366187517 -9.07365566052212
4.773128265813173 46.401696895301136 -8.849663879055136
4.798008383753252 46.68370027288107 -8.621792986535052
4.814861938827683 46.972644416860646 -8.388063892019495
4.830626500729107 47.26781584872629 -8.149255922056605
4.844171155985638 47.569333836812724 -7.905349511130127
4.854604538642902 47.87728721620691 -7.6563465813107365
4.861540483005488 48.19170763480882 -7.402275586285757
4.86524628306626 48.512556353357795 -7.143187636937313
4.866574160688452 48.839734346281766 -6.8791425682313685
4.868366388232724 49.13732219597016 -6.911152816892499
4.870361966371841 49.40014001512483 -7.237480962793065
4.870149503433313 49.65830332973499 -7.557788505154749
4.866653690484574 49.91191128019501 -7.872157431714718
4.859456638943575 50.160999609849014 -8.18065284266375
4.848908510054399 50.405531746991514 -8.483303065448393
4.835957135868713 50.64541579106961 -8.780096677416223
4.816906088566255 50.8803917778358 -9.071483941851218
4.8014379931904365 51.110663469392364 -9.356576336603089
4.7867770635122895 51.33597849724529 -9.635671776328676
4.7735030420337194 51.556282447152114 -9.908729113693735
4.761908909217609 51.77154819663496 -10.17571887139419
4.7520738276658 51.981769209105856 -10.43662170797905
4.743940694848207 52.18695236150553 -10.691425736913114
4.734163020034992 52.387480244041534 -10.94003471634079
4.724459154677358 52.58344824765486 -11.182744665397381
4.719820362514636 52.77350882253718 -11.41969861379788
4.716698054900373 52.95852050029729 -11.650655568876688
4.714976131891473 53.138499384518994 -11.875606121980207
4.714568633800036 53.313458814258595 -12.094540238120883
4.715416895130662 53.48340957787506 -12.307447105693871
4.717484531370175 53.648360350429385 -12.514315144339742
4.7122296246370325 53.809419268015404 -12.714103123692537
4.71438878705392 53.96447496855863 -12.909199502804455
4.716819441073296 54.11478435855347 -13.097680357761254
4.719618882419249 54.26032950648131 -13.279583484454003
4.72505705189975 54.401291202366515 -13.453541324242341
4.731645017662224 54.536733967984645 -13.623359470291293
4.7397669709862145 54.66717925086811 -13.787046042114023
4.749543121627505 54.79262077087463 -13.94458878004337
4.7610802692258325 54.91305343012545 -14.09597547774965
4.77445936706616 55.028474201893445 -14.241194745279913
4.789722424573726 55.13888304144221 -14.38023689011663
4.806860386574116 55.24428370043311 -14.51309482074821
4.826369532080897 55.34421304642807 -14.640959835196854
4.847063995889054 55.43955907643957 -14.761593214561206
4.86923140301253 55.52995220107649 -14.875992917331232
4.892603629430153 55.61541218342364 -14.984175145532634
4.916865831174198 55.695961911402144 -15.086159512555975
4.941670140443162 55.771626348896795 -15.18196842471071
4.966651249861632 55.84243137682281 -15.271626267707026
4.991442161983292 55.90840264979006 -15.355158496423048
5.015688579798864 55.969564576629594 -15.43259072419484
5.039060798057534 56.025939503015636 -15.50394789241636
5.061262423646877 56.077547139227725 -15.569253577831597
5.081131852560214 56.12495445628894 -15.627437079066667
5.100302048971723 56.167045433615215 -15.680792464711432
5.117653883042241 56.20441059161311 -15.728151439920648
5.1330451461056095 56.237059176114315 -15.769526087698221
5.146367042445075 56.26499801611746 -15.804926433706475
5.169175038174086 39.89810351817011 -14.023926689406249
5.1552345328183025 39.93622586551573 -13.99417323735238
5.139183207820708 39.98071528057246 -13.959455795537604
5.12114739657949 40.03154827013326 -13.91979369957701
5.10128173169062 40.088696851742355 -13.87520890305997
5.079771007229129 40.1521284610727 -13.825725683885569
5.056830905151874 40.22180605834668 -13.771370193372443
5.03270718454118 40.29768848897289 -13.71216982912565
5.006909398726327 40.37882780035535 -13.65123915132482
4.982202073649049 40.46731055663526 -13.58119881838947
4.956962151759728 40.561830105566415 -13.506542577938738
4.931505211136913 40.662318253513824 -13.427347303519738
4.906158009727042 40.768705206803226 -13.34369046126595
4.879550449152008 40.88069011513057 -13.256684332899765
4.855479160790777 40.99871866716322 -13.1642418842984
4.832554331716569 41.12260853068071 -13.067102169037607
4.8109750360478145 41.25233680659332 -12.965261628466886
4.790735815890306 41.38828620357073 -12.858009077191676
4.773531615468295 41.53008780773773 -12.745044621759185
4.757534935349951 41.67759698013526 -12.627825678300953
4.742832046657823 41.83078397665727 -12.506408895184874
4.7294859475121624 41.98962130115604 -12.380852468875075
4.715285179277202 42.15294056298705 -12.254729187831288
4.705111686787465 42.32346494457058 -12.119548733999578
4.696489457901915 42.49985634048424 -11.979529359021829
4.689362264955539 42.68212748141781 -11.83465546361016
4.683677424863558 42.87028973436569 -11.68491363287563
4.679390007301484 43.064352626758534 -11.530292567328862
4.674892302562201 43.26439409879086 -11.371232002312034
4.673720433644958 43.47025262716678 -11.206692117685146
4.67340456910438 43.682078716419525 -11.037283235777233
4.673966441957724 43.899875352103294 -10.862987853885162
4.675427246793334 44.123645655729284 -10.683788757921645
4.682275578287645 44.35288056735971 -10.499681964372813
4.687798234478087 44.58831293127395 -10.310720390422198
4.69496002184415 44.82963564889686 -10.11683656770155
4.703863967241309 45.07684008827323 -9.918026037628959
4.714515836070662 45.33025050224709 -9.715089405583614
4.7269266521178865 45.589162611541624 -9.50633113637735
4.741014767726029 45.854012073986844 -9.292531572124384
4.756559016995299 46.1248366187517 -9.07365566052212
4.773128265813173 46.401696895301136 -8.849663879055136
4.798008383753252 46.68370027288107 -8.621792986535052
4.814861938827683 46.972644416860646 -8.388063892019495
4.830626500729107 47.26781584872629 -8.149255922056605
4.844171155985638 47.569333836812724 -7.905349511130127
4.854604538642902 47.87728721620691 -7.6563465813107365
4.861540483005488 48.19170763480882 -7.402275586285757
4.86524628306626 48.512556353357795 -7.143187636937313
4.866574160688452 48.839734346281766 -6.8791425682313685
4.868366388232724 49.13732219597016 -6.911152816892499
4.870361966371841 49.40014001512483 -7.237480962793065
4.870149503433313 49.65830332973499 -7.557788505154749
4.866653690484574 49.91191128019501 -7.872157431714718
4.859456638943575 50.160999609849014 -8.18065284266375
4.848908510054399 50.405531746991514 -8.483303065448393
4.835957135868713 50.64541579106961 -8.780096677416223
4.816906088566255 50.8803917778358 -9.071483941851218
4.8014379931904365 51.110663469392364 -9.356576336603089
4.7867770635122895 51.33597849724529 -9.635671776328676
4.7735030420337194 51.556282447152114 -9.908729113693735
4.761908909217609 51.77154819663496 -10.17571887139419
4.7520738276658 51.981769209105856 -10.43662170797905
4.743940694848207 52.18695236150553 -10.691425736913114
4.734163020034992 52.387480244041534 -10.94003471634079
4.724459154677358 52.58344824765486 -11.182744665397381
4.719820362514636 52.77350882253718 -11.41969861379788
4.716698054900373 52.95852050029729 -11.650655568876688
4.714976131891473 53.138499384518994 -11.875606121980207
4.714568633800036 53.313458814258595 -12.094540238120883
4.715416895130662 53.48340957787506 -12.307447105693871
4.717484531370175 53.648360350429385 -12.514315144339742
4.7122296246370325 53.809419268015404 -12.714103123692537
4.71438878705392 53.96447496855863 -12.909199502804455
4.716819441073296 54.11478435855347 -13.097680357761254
4.719618882419249 54.26032950648131 -13.279583484454003
4.72505705189975 54.401291202366515 -13.453541324242341
4.731645017662224 54.536733967984645 -13.623359470291293
4.7397669709862145 54.66717925086811 -13.787046042114023