# vtk DataFile Version 4.0
[MyVLM domain - lattices] 
ASCII
DATASET UNSTRUCTURED_GRID
POINTS 302 float
0.03418245623128647 5.92956469694859 2.011470565960683
0.03405815639044543 5.931221981967247 2.0176509731966545
0.03391102596659277 5.9331836662750455 2.0249665572718865
0.033741064959728485 5.935449749871985 2.033417318186378
0.03354827336985259 5.938020232758066 2.04300325594013
0.03333265119696506 5.940895114933289 2.0537243705331423
0.033094198441065925 5.944074396397652 2.0655806619654142
0.032832915102155164 5.9475580771511565 2.078572130236947
0.03254880118023278 5.951346157193802 2.092698775347739
0.03224185667529878 5.955438636525589 2.107960597297791
0.03191208158735316 5.959835515146517 2.124357596087104
0.031559475916395914 5.9645367930565865 2.1418897717156766
0.031184039662427054 5.969542470255797 2.160557124183509
0.030785772825446582 5.974852546744149 2.1803596534906022
0.03036467540545448 5.980467022521641 2.201297359636955
0.029920747402450754 5.986385897588275 2.223370242622568
0.02945398881643542 5.99260917194405 2.2465783024474413
0.028964399647408448 5.999136845588967 2.2709215391115745
0.028451979895369874 6.005968918523024 2.296399952614968
0.027916729560319674 6.013105390746222 2.323013542957621
0.027358648642257854 6.020546262258563 2.350762310139535
0.026777737141184414 6.0282915330600435 2.3796462541607086
0.026173995057099355 6.036341203150665 2.409665375021142
0.025547422390002673 6.044695272530429 2.440819672720836
0.024898019139894374 6.0533537411993334 2.47310914725979
0.024225785306774456 6.062316609157379 2.506533798638004
0.02353072089064292 6.071583876404566 2.541093626855478
0.022812825891499758 6.081155542940894 2.5767886319122124
0.022072100309344977 6.091031608766364 2.6136188138082064
0.021308544144178578 6.101212073880974 2.651584172543461
0.020522157396000558 6.111696938284726 2.690684708117976
0.019712940064810922 6.122486201977618 2.73092042053175
0.01888089215060966 6.133579864959652 2.772291309784785
0.01802601365339678 6.144977927230827 2.81479737587708
0.017148304573172284 6.156680388791143 2.858438618808635
0.016247764909936166 6.168687249640601 2.9032150385794497
0.015324394663688424 6.180998509779199 2.949126635189525
0.014378193834429067 6.193614169206939 2.9961734086388603
0.01340916242215809 6.20653422792382 3.0443553589274552
0.012417300426875496 6.219758685929842 3.093672486055311
0.011402607848581279 6.233287543225005 3.1441247900224263
0.01036508468727544 6.24712079980931 3.195712270828802
0.009304730942957981 6.261258455682755 3.248434928474438
0.008221546615628898 6.2757005108453425 3.302292762959334
0.0071155317052882016 6.290446965297071 3.3572857742834894
0.005986686211935883 6.30549781903794 3.4134139624469055
0.004835010135571945 6.320853072067949 3.4706773274495815
0.003660503476196387 6.336512724387101 3.529075869291518
0.0024631662338092143 6.352476775995394 3.5886095879727136
0.001242998408410417 6.368745226892828 3.649278483493171
0.0 6.385318077079403 3.711082555852887
0.0012429984084104148 6.447128398893536 3.694533028947715
0.002463166233809209 6.5078034290825135 3.678287472944883
0.0036605034761963847 6.56734316764633 3.6623458878443915
0.00483501013557194 6.625747614584991 3.646708273646239
0.005986686211935875 6.683016769898495 3.6313746303504266
0.0071155317052881886 6.739150633586839 3.6163449579569544
0.008221546615628884 6.794149205650028 3.6016192564658214
0.00930473094295796 6.848012486088059 3.587197525877029
0.010365084687275416 6.900740474900934 3.5730797661905767
0.011402607848581253 6.952333172088647 3.5592659774064637
0.01241730042687547 7.002790577651205 3.5457561595246907
0.013409162422158062 7.052112691588606 3.5325503125452578
0.014378193834429037 7.100299513900849 3.5196484364681644
0.015324394663688396 7.147351044587934 3.5070505312934115
0.01624776490993613 7.193267283649861 3.494756597020998
0.017148304573172245 7.238048231086632 3.4827666336509244
0.018026013653396747 7.281693886898244 3.4710806411831903
0.01888089215060963 7.3242042510847 3.459698619617797
0.019712940064810884 7.365579323645997 3.448620568954743
0.02052215739600052 7.405819104582138 3.4378464891940297
0.021308544144178536 7.444923593893121 3.427376380335655
0.022072100309344936 7.482892791578944 3.4172102423796207
0.022812825891499706 7.519726697639612 3.4073480753259267
0.023530720890642867 7.555425312075121 3.3977898791745726
0.024225785306774404 7.589988634885473 3.388535653925558
0.024898019139894326 7.623416666070669 3.3795853995788834
0.025547422390002628 7.655709405630706 3.370939116134549
0.0261739950570993 7.6868668535655855 3.3625968035925538
0.02677773714118436 7.716889009875307 3.354558461952899
0.027358648642257805 7.745775874559872 3.3468240912155847
0.027916729560319615 7.773527447619278 3.339393691380609
0.02845197989536982 7.800143729053527 3.332267262447973
0.02896439964740839 7.82562471886262 3.3254448044176783
0.029453988816435354 7.849970417046553 3.3189263172897228
0.029920747402450692 7.87318082360533 3.3127118010641072
0.03036467540545441 7.895255938538949 3.3068012557408317
0.03078577282544651 7.916195761847409 3.3011946813198954
0.031184039662426992 7.936000293530714 3.2958920778013
0.031559475916395845 7.954669533588862 3.290893445185044
0.0319120815873531 7.97220348202185 3.2861987834711277
0.03224185667529871 7.98860213882968 3.281808092659552
0.03254880118023271 8.003865504012355 3.277721372750315
0.032832915102155094 8.017993577569872 3.2739386237434185
0.033094198441065856 8.03098635950223 3.2704598456388627
0.033332651196964984 8.042843849809431 3.267285038436646
0.03354827336985251 8.053566048491474 3.2644142021367686
0.033741064959728416 8.063152955548361 3.2618473367392324
0.0339110259665927 8.071604570980089 3.259584442244035
0.03405815639044536 8.07892089478666 3.2576255186511784
0.0341824562312864 8.085101926968074 3.255970565960661
0.047855438723801054 6.178370790900161 1.580525770003797
0.04773113888296001 6.180028075918818 1.5867061772397681
0.04758400845910735 6.1819897602266165 1.594021761315
0.04741404745224306 6.184255843823557 1.6024725222294922
0.04722125586236717 6.186826326709638 1.6120584599832437
0.04700563368947964 6.18970120888486 1.6227795745762559
0.0467671809335805 6.192880490349223 1.6346358660085278
0.04650589759466974 6.1963641711027275 1.6476273342800605
0.04622178367274736 6.200152251145373 1.6617539793908525
0.04591483916781336 6.204244730477161 1.677015801340905
0.04558506407986774 6.2086416090980885 1.693412800130218
0.0452324584089105 6.2133428870081575 1.71094497575879
0.04485702215494164 6.218348564207368 1.729612328226623
0.04445875531796115 6.22365864069572 1.749414857533716
0.044037657897969054 6.2292731164732125 1.7703525636800688
0.043593729894965336 6.235191991539846 1.792425446665682
0.04312697130894999 6.241415265895622 1.8156335064905549
0.042637382139923026 6.247942939540538 1.8399767431546885
0.04212496238788445 6.254775012474595 1.8654551566580821
0.04158971205283425 6.261911484697794 1.8920687470007351
0.041031631134772435 6.269352356210134 1.9198175141826486
0.04045071963369899 6.2770976270116146 1.9487014582038222
0.039846977549613936 6.285147297102237 1.978720579064256
0.039220404882517254 6.293501366482 2.00987487676395
0.03857100163240896 6.3021598351509045 2.0421643513029037
0.03789876779928904 6.311122703108951 2.075589002681118
0.037203703383157496 6.320389970356137 2.110148830898592
0.036485808384014336 6.329961636892465 2.145843835955326
0.035745082801859555 6.339837702717935 2.182674017851321
0.03498152663669316 6.350018167832545 2.2206393765865746
0.034195139888515136 6.360503032236297 2.2597399121610895
0.033385922557325504 6.371292295929189 2.299975624574864
0.03255387464312424 6.3823859589112235 2.341346513827899
0.031698996145911366 6.393784021182398 2.3838525799201937
0.030821287065686865 6.405486482742715 2.4274938228517486
0.029920747402450744 6.417493343592172 2.472270242622564
0.028997377156203003 6.429804603730771 2.5181818392326387
0.028051176326943643 6.44242026315851 2.565228612681974
0.02708214491467267 6.455340321875392 2.6134105629705693
0.02609028291939007 6.468564779881413 2.662727690098425
0.025075590341095855 6.482093637176577 2.7131799940655403
0.02403806717979002 6.495926893760881 2.764767474871916
0.02297771343547256 6.510064549634327 2.8174901325175514
0.021894529108143476 6.524506604796913 2.8713479670024475
0.020788514197802782 6.539253059248642 2.9263409783266034
0.01965966870445046 6.554303912989511 2.9824691664900196
0.01850799262808652 6.569659166019522 3.0397325314926955
0.017333485968710965 6.585318818338672 3.098131073334632
0.016136148726323792 6.601282869946965 3.157664792015828
0.014915980900924997 6.617551320844399 3.2183336875362842
0.013672982492514578 6.634124171030973 3.280137759896001
0.014915980900924995 6.695934492845108 3.263588232990829
0.016136148726323785 6.756609523034084 3.2473426769879974
0.017333485968710965 6.816149261597902 3.231401091887505
0.01850799262808652 6.874553708536563 3.215763477689353
0.01965966870445045 6.931822863850066 3.2004298343935407
0.020788514197802768 6.987956727538413 3.185400162000068
0.021894529108143466 7.0429552996016 3.170674460508936
0.022977713435472537 7.096818580039631 3.156252729920143
0.024038067179789995 7.149546568852504 3.1421349702336903
0.025075590341095834 7.2011392660402205 3.1283211814495777
0.026090282919390043 7.251596671602777 3.1148113635678047
0.027082144914672642 7.300918785540176 3.1016055165883714
0.028051176326943615 7.349105607852421 3.0887036405112784
0.028997377156202972 7.396157138539506 3.076105735336525
0.02992074740245071 7.442073377601434 3.0638118010641118
0.030821287065686823 7.486854325038204 3.051821837694038
0.031698996145911325 7.530499980849815 3.0401358452263043
0.0325538746431242 7.573010345036271 3.028753823660911
0.03338592255732546 7.614385417597569 3.017675772997857
0.0341951398885151 7.654625198533709 3.0069016932371433
0.03498152663669312 7.693729687844691 2.9964315843787688
0.035745082801859514 7.731698885530515 2.9862654464227347
0.03648580838401429 7.768532791591182 2.9764032793690407
0.037203703383157455 7.804231406026693 2.9668450832176863
0.03789876779928898 7.838794728837045 2.957590857968672
0.038571001632408904 7.87222276002224 2.9486406036219974
0.039220404882517206 7.904515499582276 2.9399943201776626
0.03984697754961388 7.935672947517157 2.931652007635668
0.04045071963369894 7.965695103826878 2.923613665996013
0.04103163113477238 7.994581968511443 2.915879295258698
0.041589712052834196 8.02233354157085 2.9084488954237226
0.04212496238788439 8.048949823005099 2.9013224664910875
0.04263738213992297 8.07443081281419 2.8945000084607924
0.043126971308949935 8.098776510998125 2.887981521332837
0.04359372989496528 8.121986917556901 2.8817670051072213
0.044037657897969 8.14406203249052 2.8758564597839453
0.04445875531796109 8.165001855798982 2.87024988536301
0.04485702215494157 8.184806387482286 2.8649472818444135
0.04523245840891043 8.203475627540433 2.8599486492281576
0.045585064079867677 8.221009575973422 2.8552539875142418
0.04591483916781329 8.237408232781252 2.8508632967026655
0.04622178367274729 8.252671597963927 2.846776576793429
0.04650589759466967 8.266799671521444 2.842993827786533
0.046767180933580434 8.279792453453801 2.8395150496819763
0.04700563368947957 8.291649943761001 2.8363402424797597
0.04722125586236709 8.302372142443046 2.833469406179883
0.047414047452242994 8.311959049499933 2.830902540782346
0.04758400845910728 8.32041066493166 2.828639646287149
0.04773113888295994 8.327726988738231 2.826680722694292
0.047855438723800985 8.333908020919644 2.8250257700037746
0.044375043180251886 6.116997909921596 1.6913521726110043
0.044239328047905035 6.118807394584825 1.6981001682666057
0.044080782332546566 6.120921278537194 1.7059833407614675
0.043899406034176476 6.123339561778704 1.7150016900955896
0.04369519915279476 6.126062244309356 1.7251552162689718
0.04346816168840143 6.129089326129149 1.7364439192816132
0.043218293640996476 6.132420807238082 1.7488677991335158
0.04294559501057991 6.136056687636158 1.762426855824678
0.04265006579715172 6.139996967323374 1.7771210893551004
0.042331706000711906 6.144241646299732 1.792950499724783
0.04199051562126047 6.14879072456523 1.8099150869337255
0.041626494658797426 6.15364420211987 1.828014850981928
0.04123964311332276 6.158802078963651 1.847249791869391
0.04082996098483646 6.164264355096574 1.867619909596114
0.04039744827333855 6.170031030518636 1.8891252041620967
0.03994210497882902 6.176102105229841 1.91176567556734
0.039463931101307866 6.182477579230187 1.9355413238118433
0.038962926640775095 6.189157452519674 1.9604521488956068
0.03843909159723071 6.196141725098302 1.9864981508186297
0.0378924259706747 6.203430396966072 2.0136793295809134
0.037322929761107064 6.211023468122981 2.0419956851824574
0.03673060296852782 6.218920938569033 2.071447217623261
0.03611544559293695 6.227122808304226 2.1020339269033244
0.035477457634334464 6.23562907732856 2.133755813022648
0.034816639092720356 6.244439745642035 2.166612875981232
0.03413298996809462 6.2535548132446515 2.2006051157790765
0.03342651026045727 6.262974280136409 2.2357325324161805
0.032697199969808306 6.272698146317307 2.271995125892545
0.03194505909614771 6.282726411787347 2.3093928962081693
0.031170087639475503 6.293059076546529 2.3479258433630537
0.03037228559979168 6.30369614059485 2.387593967357198
0.029551652977096228 6.314637603932313 2.428397268190603
0.028708189771389156 6.325883466558918 2.4703357458632675
0.02784189598267047 6.337433728474664 2.513409400375193
0.02695277161094016 6.3492883896795504 2.557618231726378
0.02604081665619823 6.3614474501735785 2.6029622399168226
0.025106031118444682 6.373910909956748 2.649441424946528
0.02414841499767952 6.386678769029058 2.697055786815493
0.02316796829390273 6.39975102739051 2.7458053255237185
0.022164691007114323 6.413127685041102 2.795690041071204
0.02113858313731429 6.426808741980836 2.8467099334579498
0.02008964468450265 6.440794198209711 2.898865002683955
0.019017875648679378 6.455084053727727 2.9521552487492206
0.017923276029844486 6.469678308534885 3.006580671653747
0.01680584582799798 6.484576962631183 3.062141271397533
0.015665585043139856 6.499780016016624 3.1188370479805787
0.014502493675270107 6.515287468691203 3.176668001402885
0.013316571724388736 6.531099320654926 3.2356341316644515
0.01210781919049575 6.547215571907789 3.2957354387652784
0.010876236073591141 6.563636222449794 3.3569719227053643
0.010876236073591141 6.602827808450148 3.379599195432636
0.012107819190495746 6.664070484451703 3.3632016539786345
0.01331657172438873 6.724177868828101 3.347108083426972
0.014502493675270098 6.78314996157934 3.3313184837776504
0.01566558504313984 6.840986762705422 3.315832855030668
0.016805845827997965 6.897688272206346 3.3006511971860255
0.017923276029844473 6.953254490082113 3.2857735102437235
0.019017875648679357 7.0076854163327225 3.2711997942037607
0.02008964468450262 7.060981050958174 3.2569300490661384
0.02113858313731427 7.113141393958468 3.2429642748308556
0.022164691007114302 7.1641664453336045 3.2293024714979124
0.0231679682939027 7.214056205083584 3.2159446390673097
0.024148414997679488 7.262810673208407 3.2028907775390465
0.02510603111844465 7.310429849708071 3.190140886913123
0.026040816656198198 7.356913734582576 3.17769496718954
0.026952771610940132 7.4022623278319255 3.1655530183682963
0.02784189598267043 7.446475629456116 3.1537150404493928
0.02870818977138912 7.489553639455152 3.1421810334328293
0.02955165297709619 7.531496357829028 3.1309509973186054
0.030372285599791635 7.5723037845777466 3.1200249321067215
0.03117008763947546 7.611975919701307 3.1094028377971776
0.03194505909614767 7.6505127631997105 3.0990847143899733
0.03269719996980826 7.687914315072955 3.0890705618851095
0.033426510260457225 7.724180575321045 3.0793603802825853
0.03413298996809458 7.7593115439439755 3.0699541695824006
0.03481663909272029 7.793307220941749 3.0608519297845564
0.03547745763433441 7.826167606314366 3.0520536608890514
0.0361154455929369 7.857892700061823 3.043559362895887
0.03673060296852777 7.888482502184124 3.035369035805062
0.037322929761107015 7.917937012681268 3.027482679616577
0.037892425970674645 7.946256231553254 3.019900294330432
0.038439091597230655 7.973440158800082 3.0126218799466264
0.03896292664077504 7.999488794421752 3.0056474364651615
0.03946393110130781 8.024402138418264 2.998976963886036
0.03994210497882896 8.048180190789619 2.9926104622092504
0.040397448273338486 8.070822951535817 2.9865479314348047
0.040829960984836405 8.09233042065686 2.980789371562699
0.04123964311332269 8.11270259815274 2.9753347825929333
0.04162649465879736 8.131939484023466 2.970184164525507
0.04199051562126041 8.150041078269034 2.9653375173604215
0.042331706000711844 8.167007380889444 2.960794841097675
0.042650065797151644 8.182838391884697 2.956556135737269
0.04294559501057984 8.197534111254791 2.9526214012792025
0.0432182936409964 8.21109453899973 2.948990637723476
0.043468161688401355 8.223519675119508 2.945663845070089
0.04369519915279469 8.234809519614132 2.9426410233190428
0.0438994060341764 8.244964072483596 2.939922172470336
0.044080782332546496 8.253983333727904 2.937507292523969
0.044239328047904966 8.261867303347053 2.935396383479942
0.044375043180251816 8.268615981341044 2.9335894453382547

CELLS 200 700
4 0 101 102 1
4 1 102 103 2
4 2 103 104 3
4 3 104 105 4
4 4 105 106 5
4 5 106 107 6
4 6 107 108 7
4 7 108 109 8
4 8 109 110 9
4 9 110 111 10
4 10 111 112 11
4 11 112 113 12
4 12 113 114 13
4 13 114 115 14
4 14 115 116 15
4 15 116 117 16
4 16 117 118 17
4 17 118 119 18
4 18 119 120 19
4 19 120 121 20
4 20 121 122 21
4 21 122 123 22
4 22 123 124 23
4 23 124 125 24
4 24 125 126 25
4 25 126 127 26
4 26 127 128 27
4 27 128 129 28
4 28 129 130 29
4 29 130 131 30
4 30 131 132 31
4 31 132 133 32
4 32 133 134 33
4 33 134 135 34
4 34 135 136 35
4 35 136 137 36
4 36 137 138 37
4 37 138 139 38
4 38 139 140 39
4 39 140 141 40
4 40 141 142 41
4 41 142 143 42
4 42 143 144 43
4 43 144 145 44
4 44 145 146 45
4 45 146 147 46
4 46 147 148 47
4 47 148 149 48
4 48 149 150 49
4 49 150 151 50
4 50 151 152 51
4 51 152 153 52
4 52 153 154 53
4 53 154 155 54
4 54 155 156 55
4 55 156 157 56
4 56 157 158 57
4 57 158 159 58
4 58 159 160 59
4 59 160 161 60
4 60 161 162 61
4 61 162 163 62
4 62 163 164 63
4 63 164 165 64
4 64 165 166 65
4 65 166 167 66
4 66 167 168 67
4 67 168 169 68
4 68 169 170 69
4 69 170 171 70
4 70 171 172 71
4 71 172 173 72
4 72 173 174 73
4 73 174 175 74
4 74 175 176 75
4 75 176 177 76
4 76 177 178 77
4 77 178 179 78
4 78 179 180 79
4 79 180 181 80
4 80 181 182 81
4 81 182 183 82
4 82 183 184 83
4 83 184 185 84
4 84 185 186 85
4 85 186 187 86
4 86 187 188 87
4 87 188 189 88
4 88 189 190 89
4 89 190 191 90
4 90 191 192 91
4 91 192 193 92
4 92 193 194 93
4 93 194 195 94
4 94 195 196 95
4 95 196 197 96
4 96 197 198 97
4 97 198 199 98
4 98 199 200 99
4 99 200 201 100
1 202
1 203
1 204
1 205
1 206
1 207
1 208
1 209
1 210
1 211
1 212
1 213
1 214
1 215
1 216
1 217
1 218
1 219
1 220
1 221
1 222
1 223
1 224
1 225
1 226
1 227
1 228
1 229
1 230
1 231
1 232
1 233
1 234
1 235
1 236
1 237
1 238
1 239
1 240
1 241
1 242
1 243
1 244
1 245
1 246
1 247
1 248
1 249
1 250
1 251
1 252
1 253
1 254
1 255
1 256
1 257
1 258
1 259
1 260
1 261
1 262
1 263
1 264
1 265
1 266
1 267
1 268
1 269
1 270
1 271
1 272
1 273
1 274
1 275
1 276
1 277
1 278
1 279
1 280
1 281
1 282
1 283
1 284
1 285
1 286
1 287
1 288
1 289
1 290
1 291
1 292
1 293
1 294
1 295
1 296
1 297
1 298
1 299
1 300
1 301

CELL_TYPES 200
9
9
9
9
9
9
9
9
9
9
9
9
9
9
9
9
9
9
9
9
9
9
9
9
9
9
9
9
9
9
9
9
9
9
9
9
9
9
9
9
9
9
9
9
9
9
9
9
9
9
9
9
9
9
9
9
9
9
9
9
9
9
9
9
9
9
9
9
9
9
9
9
9
9
9
9
9
9
9
9
9
9
9
9
9
9
9
9
9
9
9
9
9
9
9
9
9
9
9
9
1
1
1
1
1
1
1
1
1
1
1
1
1
1
1
1
1
1
1
1
1
1
1
1
1
1
1
1
1
1
1
1
1
1
1
1
1
1
1
1
1
1
1
1
1
1
1
1
1
1
1
1
1
1
1
1
1
1
1
1
1
1
1
1
1
1
1
1
1
1
1
1
1
1
1
1
1
1
1
1
1
1
1
1
1
1
1
1
1
1
1
1
1
1
1
1
1
1
1
1

CELL_DATA 200

VECTORS Vinf float
5.16794246595906 11.392306130260495 -40.75478703577374
5.154148090058502 11.438297953896535 -40.76890983187036
5.138230358663444 11.491986846497594 -40.7853944343347
5.120302869183083 11.553352148744741 -40.80423235248771
5.100508867182786 11.622369176418086 -40.82541261417042
5.079024286130594 11.699009217471637 -40.848921422515936
5.056059713628488 11.78323976918741 -40.874741878103464
5.031860842605839 11.875025070029883 -40.90285380363285
5.006707022200479 11.974326961551622 -40.93323370639163
4.980907642819599 12.081106085898837 -40.9658549071853
4.954796276994012 12.195323385159497 -41.00068785241374
4.928722743570698 12.31694182338761 -41.03770060874441
4.903043543073946 12.445928206756992 -41.07685951870163
4.878111385767399 12.58225494037197 -41.1181299731116
4.8542647478152565 12.725901541302136 -41.1614772365399
4.829665720571319 12.877523082118035 -41.2069745413325
4.807996767044323 13.035368702278127 -41.254589017628135
4.787819592201203 13.20041531382393 -41.30426565523978
4.769240685612211 13.3726695971384 -41.35599087420826
4.75232246269455 13.552144990592137 -41.409754554246454
4.737088527573116 13.738860004052817 -41.46554982269666
4.7235308452173355 13.932836392531264 -41.52337265626743
4.712303612863258 14.131092511691945 -41.583624940723396
4.700762118417678 14.34077691338101 -41.64538328218541
4.690302876917988 14.558416269892666 -41.70905498595783
4.679797428287435 14.78337941591937 -41.77532161470699
4.675551879935763 15.01307596977338 -41.84330164414721
4.672185902823838 15.250440202682439 -41.91329563864788
4.6698040511644265 15.495509720237864 -41.98528028509019
4.668494631479813 15.748325780514017 -42.059232892076025
4.668336963335866 16.00893202285834 -42.13513099380789
4.669408971927986 16.277373393898646 -42.21295189777771
4.6740724161179195 16.549766270851475 -42.29355972426283
4.67730473788046 16.832463152471522 -42.375704069398424
4.682273815870211 17.122549349064172 -42.459853539047046
4.689126802688139 17.4200335703977 -42.54598982448092
4.697997661515043 17.72492691929117 -42.634096261380186
4.708992493689546 18.037244224585628 -42.72415923024594
4.720789174353643 18.357181628143564 -42.816155861370035
4.735193688925585 18.684096494272698 -42.91021999549064
4.75130220451693 19.018473330723754 -43.00626988945665
4.768736509759542 19.360358360834304 -43.10433390273226
4.786866006752015 19.709816190894237 -43.20445916549463
4.804798345295257 20.066927432042174 -43.30671224738505
4.8214475710534 20.431779308809407 -43.41117491503845
4.835704960941124 20.80444800031264 -43.517933300360596
4.84649857122055 21.185078986578137 -43.62705488895108
4.8540440996963765 21.57335144291953 -43.738600738225216
4.858018072437476 21.96950597884739 -43.85255124231688
4.859463397223894 22.37332912194021 -43.968868142140956
4.86090550116042 22.518184177370173 -44.23076266557736
4.862751528940027 22.401424836810417 -44.63335285876611
4.862383784986328 22.2869414866886 -45.02866010821597
4.858690112953452 22.1747220381181 -45.41681746412593
4.851204943492565 22.06473157782047 -45.79789761401224
4.83926633892468 21.95575787979485 -46.172237707004484
4.82594652271051 21.85036364127982 -46.53900330267755
4.811074828510132 21.74705519606562 -46.898501253784985
4.795839510534554 21.64581142638569 -47.250609145778114
4.78045290642114 21.5475780407515 -47.595018980485165
4.767178755040209 21.450088938160718 -47.932179621806526
4.755242685465976 21.35468145232603 -48.26174747016599
4.744753552894364 21.26136894859038 -48.58370427608673
4.735686441158292 21.17016610335861 -48.89804732320614
4.727471507057423 21.08011476543838 -49.20513045929395
4.72113073990701 20.993339995038202 -49.50421745972569
4.715973889023697 20.908565533364953 -49.795758630656636
4.711887995258345 20.825809323436538 -50.0797629912091
4.708782566179182 20.745088108699182 -50.35623741347705
4.706587362319511 20.666417633784626 -50.6251866713345
4.705248250799881 20.589812835232937 -50.88661376675328
4.704773970952259 20.51593067054519 -51.140277254410414
4.70536189811266 20.44377367322975 -51.38651712066345
4.706972464895453 20.373751947635398 -51.62519589011229
4.7096772651526475 20.305869048921426 -51.85630685565408
4.713566176254597 20.24012886626114 -52.07984144861805
4.71874470186545 20.176535763174336 -52.29578947820108
4.725329991110901 20.115094692694726 -52.50413948474417
4.733444907574054 20.05581127587856 -52.704879269689684
4.743209718746483 19.998691827950832 -52.89799664900574
4.754322287858389 19.94311735493573 -53.08365512722537
4.767632957804572 19.89042322021188 -53.261470796867194
4.782868925667317 19.839918279563367 -53.43163177691038
4.800005546364568 19.791609429003483 -53.59413913199483
4.818960948927017 19.74550334697394 -53.74899912857164
4.8395906644778215 19.701606162392192 -53.896223827616446
4.861687508335054 19.659923140054293 -54.03583119563062
4.884986897941588 19.620458417263322 -54.16784470653346
4.909176986084681 19.58321481786798 -54.29229248224011
4.933912341618982 19.548193758731898 -54.40920608202118
4.958829531613237 19.515395251400626 -54.51861908901294
4.982818396022313 19.484993016024287 -54.62076188912802
5.007053447054789 19.456529270068884 -54.71531230595515
5.030416591984842 19.43029164416216 -54.802457943613376
5.05261205455407 19.406275392126574 -54.88222745543456
5.0733822529707355 19.38447534941736 -54.95464611753156
5.092510035986203 19.364886168902824 -55.019735553459626
5.109818163096069 19.347502535803944 -55.07751371618101
5.1251666400315425 19.33231935447677 -55.12799507413559
5.1384485803257185 19.319331903871227 -55.171190941416164
5.16794246595906 11.392306130260495 -40.75478703577374
5.154148090058502 11.438297953896535 -40.76890983187036
5.138230358663444 11.491986846497594 -40.7853944343347
5.120302869183083 11.553352148744741 -40.80423235248771
5.100508867182786 11.622369176418086 -40.82541261417042
5.079024286130594 11.699009217471637 -40.848921422515936
5.056059713628488 11.78323976918741 -40.874741878103464
5.031860842605839 11.875025070029883 -40.90285380363285
5.006707022200479 11.974326961551622 -40.93323370639163
4.980907642819599 12.081106085898837 -40.9658549071853
4.954796276994012 12.195323385159497 -41.00068785241374
4.928722743570698 12.31694182338761 -41.03770060874441
4.903043543073946 12.445928206756992 -41.07685951870163
4.878111385767399 12.58225494037197 -41.1181299731116
4.8542647478152565 12.725901541302136 -41.1614772365399
4.829665720571319 12.877523082118035 -41.2069745413325
4.807996767044323 13.035368702278127 -41.254589017628135
4.787819592201203 13.20041531382393 -41.30426565523978
4.769240685612211 13.3726695971384 -41.35599087420826
4.75232246269455 13.552144990592137 -41.409754554246454
4.737088527573116 13.738860004052817 -41.46554982269666
4.7235308452173355 13.932836392531264 -41.52337265626743
4.712303612863258 14.131092511691945 -41.583624940723396
4.700762118417678 14.34077691338101 -41.64538328218541
4.690302876917988 14.558416269892666 -41.70905498595783
4.679797428287435 14.78337941591937 -41.77532161470699
4.675551879935763 15.01307596977338 -41.84330164414721
4.672185902823838 15.250440202682439 -41.91329563864788
4.6698040511644265 15.495509720237864 -41.98528028509019
4.668494631479813 15.748325780514017 -42.059232892076025
4.668336963335866 16.00893202285834 -42.13513099380789
4.669408971927986 16.277373393898646 -42.21295189777771
4.6740724161179195 16.549766270851475 -42.29355972426283
4.67730473788046 16.832463152471522 -42.375704069398424
4.682273815870211 17.122549349064172 -42.459853539047046
4.689126802688139 17.4200335703977 -42.54598982448092
4.697997661515043 17.72492691929117 -42.634096261380186
4.708992493689546 18.037244224585628 -42.72415923024594
4.720789174353643 18.357181628143564 -42.816155861370035
4.735193688925585 18.684096494272698 -42.91021999549064
4.75130220451693 19.018473330723754 -43.00626988945665
4.768736509759542 19.360358360834304 -43.10433390273226
4.786866006752015 19.709816190894237 -43.20445916549463
4.804798345295257 20.066927432042174 -43.30671224738505
4.8214475710534 20.431779308809407 -43.41117491503845
4.835704960941124 20.80444800031264 -43.517933300360596
4.84649857122055 21.185078986578137 -43.62705488895108
4.8540440996963765 21.57335144291953 -43.738600738225216
4.858018072437476 21.96950597884739 -43.85255124231688
4.859463397223894 22.37332912194021 -43.968868142140956
4.86090550116042 22.518184177370173 -44.23076266557736
4.862751528940027 22.401424836810417 -44.63335285876611
4.862383784986328 22.2869414866886 -45.02866010821597
4.858690112953452 22.1747220381181 -45.41681746412593
4.851204943492565 22.06473157782047 -45.79789761401224
4.83926633892468 21.95575787979485 -46.172237707004484
4.82594652271051 21.85036364127982 -46.53900330267755
4.811074828510132 21.74705519606562 -46.898501253784985
4.795839510534554 21.64581142638569 -47.250609145778114
4.78045290642114 21.5475780407515 -47.595018980485165
4.767178755040209 21.450088938160718 -47.932179621806526
4.755242685465976 21.35468145232603 -48.26174747016599
4.744753552894364 21.26136894859038 -48.58370427608673
4.735686441158292 21.17016610335861 -48.89804732320614
4.727471507057423 21.08011476543838 -49.20513045929395
4.72113073990701 20.993339995038202 -49.50421745972569
4.715973889023697 20.908565533364953 -49.795758630656636
4.711887995258345 20.825809323436538 -50.0797629912091
4.708782566179182 20.745088108699182 -50.35623741347705
4.706587362319511 20.666417633784626 -50.6251866713345
4.705248250799881 20.589812835232937 -50.88661376675328
4.704773970952259 20.51593067054519 -51.140277254410414
4.70536189811266 20.44377367322975 -51.38651712066345
4.706972464895453 20.373751947635398 -51.62519589011229
4.7096772651526475 20.305869048921426 -51.85630685565408
4.713566176254597 20.24012886626114 -52.07984144861805
4.71874470186545 20.176535763174336 -52.29578947820108
4.725329991110901 20.115094692694726 -52.50413948474417
4.733444907574054 20.05581127587856 -52.704879269689684
4.743209718746483 19.998691827950832 -52.89799664900574