# vtk DataFile Version 4.0
[MyVLM domain - lattices] 
ASCII
DATASET UNSTRUCTURED_GRID
POINTS 302 float
0.034182456231286476 -0.5647228355219975 6.126240386764913
0.03405815639044544 -0.5702637135622153 6.129440808265113
0.033911025966592775 -0.5768223038955345 6.133229062285759
0.033741064959728485 -0.5843986065219549 6.13760514882685
0.03354827336985259 -0.5929926214414765 6.142569067888386
0.03333265119696506 -0.6026043486540997 6.148120819470368
0.033094198441065925 -0.6132337881598238 6.154260403572794
0.032832915102155164 -0.624880939958649 6.160987820195665
0.03254880118023279 -0.6375458040505757 6.1683030693389815
0.03224185667529878 -0.6512283804356036 6.176206151002742
0.03191208158735316 -0.6659286691137327 6.184697065186949
0.03155947591639592 -0.6816466700849633 6.193775811891601
0.03118403966242706 -0.6983823833492946 6.203442391116697
0.030785772825446582 -0.7161358089067276 6.213696802862239
0.03036467540545448 -0.7349069467572618 6.224539047128225
0.02992074740245076 -0.7546957969008969 6.235969123914657
0.02945398881643542 -0.7755023593376338 6.247987033221534
0.02896439964740845 -0.7973266340674716 6.260592775048856
0.028451979895369878 -0.8201686210904109 6.273786349396623
0.027916729560319677 -0.8440283204064511 6.287567756264835
0.027358648642257854 -0.8689057320155928 6.301936995653492
0.026777737141184414 -0.8948008559178358 6.316894067562593
0.02617399505709936 -0.9217136921131796 6.332438971992141
0.025547422390002673 -0.9496442406016251 6.348571708942133
0.024898019139894378 -0.9785925013831719 6.3652922784125705
0.02422578530677446 -1.0085584744578195 6.382600680403453
0.023530720890642922 -1.0395421598255685 6.40049691491478
0.022812825891499758 -1.071543557486419 6.418980981946552
0.022072100309344984 -1.1045626674403706 6.43805288149877
0.02130854414417858 -1.1385994896874236 6.457712613571433
0.02052215739600056 -1.1736540242275777 6.47796017816454
0.019712940064810922 -1.209726271060833 6.498795575278093
0.018880892150609663 -1.2468162301871897 6.520218804912091
0.018026013653396785 -1.2849239016066476 6.542229867066534
0.017148304573172287 -1.3240492853192065 6.564828761741421
0.016247764909936166 -1.3641923813248669 6.588015488936754
0.015324394663688427 -1.4053531896236287 6.611790048652532
0.014378193834429068 -1.4475317102154914 6.636152440888755
0.01340916242215809 -1.4907279431004554 6.661102665645424
0.012417300426875498 -1.5349418882785206 6.686640722922536
0.011402607848581279 -1.580173545749687 6.7127666127200945
0.010365084687275442 -1.6264229155139551 6.739480335038097
0.009304730942957983 -1.673689997571324 6.766781889876546
0.0082215466156289 -1.7219747919217947 6.794671277235439
0.007115531705288203 -1.7712772985653664 6.8231484971147776
0.0059866862119358835 -1.8215975175020391 6.852213549514563
0.004835010135571944 -1.872935448731813 6.88186643443479
0.003660503476196387 -1.9252910922546884 6.912107151875463
0.0024631662338092148 -1.9786644480706648 6.942935701836583
0.0012429984084104172 -2.0330555161797426 6.974352084318146
0.0 -2.088464296581922 7.006356299320155
0.0012429984084104105 -2.0564809926619496 7.061777152741177
0.002463166233809201 -2.0250851371813234 7.116180072119772
0.0036605034761963725 -1.9942767301400444 7.16956505745594
0.004835010135571924 -1.9640557715381115 7.221932108749681
0.005986686211935855 -1.9344222613755249 7.273281226000995
0.007115531705288165 -1.9053761996522844 7.323612409209883
0.008221546615628857 -1.876917586368391 7.372925658376343
0.009304730942957928 -1.8490464215238438 7.421220973500376
0.010365084687275379 -1.8217627051186427 7.468498354581983
0.011402607848581214 -1.795066437152788 7.514757801621162
0.012417300426875427 -1.7689576176262802 7.559999314617915
0.013409162422158017 -1.7434362465391189 7.604222893572241
0.01437819383442899 -1.7185023238913035 7.647428538484139
0.015324394663688342 -1.694155849682835 7.689616249353611
0.016247764909936076 -1.6703968239137126 7.730786026180655
0.017148304573172186 -1.647225246583937 7.770937868965274
0.018026013653396688 -1.6246411176935074 7.810071777707464
0.018880892150609563 -1.6026444372424244 7.848187752407229
0.019712940064810815 -1.581235205230688 7.885285793064567
0.020522157396000454 -1.5604134216582977 7.9213658996794765
0.021308544144178463 -1.5401790865252543 7.95642807225196
0.02207210030934486 -1.5205321998315569 7.990472310782017
0.02281282589149963 -1.501472761577206 8.023498615269645
0.023530720890642787 -1.4830007717622016 8.055506985714848
0.024225785306774324 -1.4651162303865437 8.086497422117624
0.02489801913989424 -1.447819137450232 8.116469924477972
0.025547422390002537 -1.4311094929532668 8.145424492795893
0.026173995057099213 -1.4149872968956483 8.173361127071388
0.02677773714118427 -1.3994525492773762 8.200279827304456
0.027358648642257708 -1.3845052500984503 8.226180593495098
0.027916729560319525 -1.3701453993588708 8.251063425643311
0.028451979895369715 -1.3563729970586378 8.274928323749098
0.028964399647408295 -1.3431880431977514 8.297775287812458
0.029453988816435253 -1.3305905377762113 8.319604317833392
0.029920747402450598 -1.3185804807940176 8.340415413811897
0.030364675405454317 -1.3071578722511703 8.360208575747977
0.0307857728254464 -1.2963227121476697 8.37898380364163
0.031184039662426888 -1.2860750004835149 8.396741097492855
0.03155947591639574 -1.2764147372587074 8.413480457301652
0.03191208158735299 -1.2673419224732454 8.429201883068025
0.0322418566752986 -1.2588565561271303 8.443905374791969
0.03254880118023261 -1.2509586382203617 8.457590932473487
0.03283291510215498 -1.2436481687529397 8.470258556112578
0.033094198441065745 -1.2369251477248637 8.481908245709242
0.03333265119696488 -1.2307895751361346 8.492540001263478
0.0335482733698524 -1.2252414509867515 8.502153822775288
0.033741064959728305 -1.2202807752767149 8.51074971024467
0.03391102596659258 -1.2159075480060249 8.518327663671627
0.034058156390445245 -1.212121769174681 8.524887683056157
0.03418245623128628 -1.208923438782684 8.530429768398259
0.04785543872380103 -0.08406637175016485 6.255031898069485
0.047731138882959996 -0.08960724979038281 6.258232319569686
0.04758400845910733 -0.09616584012370177 6.262020573590331
0.04741404745224304 -0.1037421427501224 6.266396660131423
0.04722125586236715 -0.112336157669644 6.271360579192959
0.04700563368947962 -0.12194788488226704 6.27691233077494
0.04676718093358048 -0.13257732438799108 6.283051914877366
0.04650589759466972 -0.14422447618681655 6.289779331500237
0.04622178367274734 -0.15688934027874302 6.297094580643554
0.04591483916781334 -0.17057191666377092 6.304997662307315
0.04558506407986772 -0.18527220534190025 6.313488576491522
0.045232458408910485 -0.20099020631313036 6.322567323196173
0.04485702215494162 -0.21772591957746212 6.33223390242127
0.04445875531796113 -0.23547934513489488 6.342488314166811
0.04403765789796903 -0.25425048298542907 6.353330558432798
0.043593729894965315 -0.2740393331290645 6.36476063521923
0.04312697130894998 -0.2948458955658011 6.376778544526106
0.04263738213992301 -0.31667017029563915 6.389384286353428
0.04212496238788443 -0.3395121573185782 6.402577860701195
0.04158971205283423 -0.3633718566346187 6.4163592675694066
0.041031631134772414 -0.38824926824376016 6.430728506958064
0.04045071963369897 -0.41414439214600307 6.445685578867166
0.03984697754961391 -0.4410572283413472 6.461230483296713
0.039220404882517226 -0.4689877768297928 6.477363220246706
0.03857100163240894 -0.4979360376113391 6.494083789717143
0.03789876779928902 -0.5279020106859871 6.511392191708026
0.037203703383157476 -0.5588856960537361 6.5292884262193525
0.036485808384014315 -0.5908870937145865 6.547772493251124
0.035745082801859535 -0.6239062036685381 6.566844392803342
0.03498152663669314 -0.6579430259155907 6.586504124876005
0.034195139888515115 -0.6929975604557452 6.606751689469113
0.03338592255732548 -0.7290698072890005 6.627587086582665
0.03255387464312422 -0.766159766415357 6.649010316216663
0.031698996145911346 -0.8042674378348149 6.671021378371105
0.03082128706568684 -0.843392821547374 6.693620273045993
0.02992074740245072 -0.8835359175530344 6.716807000241326
0.028997377156202986 -0.924696725851796 6.740581559957104
0.028051176326943626 -0.966875246443659 6.764943952193327
0.027082144914672653 -1.0100714793286227 6.7898941769499945
0.026090282919390057 -1.0542854245066882 6.815432234227109
0.025075590341095834 -1.0995170819778548 6.841558124024667
0.024038067179789995 -1.1457664517421224 6.86827184634267
0.022977713435472537 -1.1930335337994915 6.895573401181118
0.02189452910814346 -1.241318328149962 6.923462788540012
0.02078851419780276 -1.2906208347935337 6.95194000841935
0.01965966870445044 -1.3409410537302064 6.981005060819133
0.0185079926280865 -1.3922789849599806 7.0106579457393625
0.017333485968710944 -1.444634628482856 7.0408986631800365
0.01613614872632377 -1.4980079842988325 7.071727213141154
0.014915980900924974 -1.55239905240791 7.103143595622718
0.013672982492514555 -1.607807832810089 7.135147810624727
0.014915980900924967 -1.575824528890117 7.190568664045749
0.016136148726323758 -1.5444286734094912 7.244971583424344
0.017333485968710927 -1.5136202663682117 7.2983565687605125
0.01850799262808648 -1.4833993077662786 7.3507236200542545
0.01965966870445041 -1.4537657976036922 7.402072737305566
0.02078851419780272 -1.4247197358804522 7.452403920514456
0.02189452910814341 -1.3962611225965582 7.501717169680915
0.022977713435472485 -1.368389957752011 7.550012484804949
0.024038067179789936 -1.3411062413468102 7.597289865886556
0.02507559034109577 -1.3144099733809558 7.643549312925735
0.02609028291938998 -1.2883011538544478 7.688790825922489
0.027082144914672566 -1.2627797827672862 7.733014404876813
0.028051176326943542 -1.2378458601194713 7.776220049788712
0.0289973771562029 -1.2134993859110024 7.818407760658184
0.029920747402450633 -1.1897403601418801 7.859577537485229
0.030821287065686747 -1.1665687828121043 7.8997293802698465
0.03169899614591125 -1.1439846539216747 7.938863289012038
[...]
CELL_DATA 200

VECTORS Vinf float
5.152735584850455 42.28870514811786 0.48012534096622506
5.138841661138245 42.31431809704591 0.5211234398005467
5.1228437079160205 42.34421129974773 0.568964748574889
5.104867515548856 42.378369625242314 0.6236234190584976
5.08506706617601 42.41677467380999 0.6850696266725673
5.063626394686144 42.45940458817358 0.7532698000499772
5.040760319943977 42.50623399542827 0.8281870640600212
5.016713646648479 42.55723412444062 0.9097819333879303
4.991758498550968 42.612373136286166 0.9980132759806506
4.963340236003275 42.67188531080115 1.0913928528220957
4.938525007018527 42.735086931711876 1.1933247805960516
4.913444020963463 42.80235264973737 1.3017288640065754
4.888426299316233 42.8736439943328 1.4165449890373045
4.863806416497872 42.94892184726489 1.5377152674927015
4.839913821305008 43.02814765380548 1.6651854623634341
4.817062738141022 43.111284562201845 1.7989060663404992
4.7955437440776425 43.1982983668327 1.9388328967514226
4.775628482993621 43.289161447669926 2.0849209083446136
4.757209175704667 43.383885736429896 2.2378736743576417
4.7404548343866235 43.4824531578753 2.3972704193116665
4.725389719052585 43.58486110844631 2.56313083323086
4.714418120661668 43.69092344679871 2.7356148917601546
4.695119672433689 43.801781650644955 2.915407856438723
4.687359377134829 43.91544966692822 3.1005352624219396
4.680340825861161 44.033070193386415 3.292262765641217
4.6741888231467055 44.15462897862825 3.490604574835767
4.669009064431307 44.28011377963357 3.69557834252689
4.6648935527521305 44.40951378285685 3.9072039161803622
4.661927732339773 44.54281885237012 4.125502126160684
4.660198328995465 44.680018716934896 4.350493767203979
4.659800809241875 44.821102211367325 4.582198892059673
4.661091676524635 44.96597635023099 4.820050327280178
4.66362696059361 45.114774437995216 5.06490758237666
4.667614187187609 45.26744102762342 5.316406847756696
4.673134244005107 45.42396833176217 5.574548966768927
4.68028365847666 45.58434743449369 5.839334577998953
4.690454079033757 45.74902147761088 6.110409471894091
4.701004604996678 45.91717472175865 6.388573520243417
4.713313994547806 46.08843427944529 6.673371186967505
4.7272588040706465 46.26420607237279 6.964895488576097
4.743069679519214 46.443817879142465 7.263062737379239
4.760329067978637 46.62731265779886 7.567919364516511
4.778363658552031 46.81475640628152 7.879523784891228
4.79623884175061 47.00623782083627 8.197944109703307
4.8124775560976465 47.20189043522884 8.523279832209282
4.826591908204673 47.40175249956547 8.855560426368411
4.837517063352989 47.60589473139582 9.195001256823614
4.844581079376186 47.814443899006555 9.541261852887217
4.848427254987733 48.02732226902093 9.89437221011027
4.849862342104606 48.24446289455359 10.254241748368282
4.851474913908708 48.535051985767545 10.32636965428136
4.853532829362777 48.89369906499675 10.109531443152608
4.85332392156138 49.24590339331456 9.896832466973365
4.849352481204409 49.59186527453392 9.687941166802434
4.842042447222395 49.93149633416795 9.483324539252768
4.831197026645103 50.26485970192709 9.282629398992318
4.817792797066129 50.59186049320594 9.08583710570259
4.803066132455841 50.91237201287501 8.892948334271148
4.788197266873397 51.22626939489173 8.703977670475135
4.772693679874602 51.53359521612822 8.518689596885224
4.757417891881422 51.834279201757646 8.337731700846444
4.746259194054394 52.12786922750765 8.160513187765826
4.736322262201195 52.41468206623688 7.987265695963232
4.727612206360216 52.6947149113585 7.818004338048051
4.720061368382785 52.967973706880855 7.652742094748814
4.712802640478602 53.23445611035967 7.491125729291994
4.708187472313025 53.494124143737686 7.333950247467998
4.704663552487877 53.74702611803233 7.180749847939296
4.702151753370175 53.99317228552891 7.031533093194663
4.700603243339059 54.23256963032084 6.886308713789334
4.6999927350072355 54.465222499615614 6.745085718363094
4.700308271457814 54.69113358522648 6.607873316035538
4.701538642465549 54.91030513293688 6.474680661369095
4.701153632132561 55.12280745623021 6.3458626888733205
4.7029104373295025 55.32867862042787 6.21998789051718
4.706261574206824 55.52773491350251 6.098265222207514
4.711202921963363 55.719978886616005 5.980691275969034
4.717741876081232 55.90541193247617 5.867263568464287
4.725891636208407 56.08403479920714 5.757980452438681
4.73566353983263 56.25584827276253 5.652840921712267
4.747057738951543 56.420854000671554 5.551844307279941
4.7600529673107825 56.579055392155254 5.454989879606273
4.774596580344428 56.730458492325816 5.362276392463331
4.79059630283847 56.87507270612619 5.273701620609961
4.812600394892047 57.012426386227496 5.18883710424901
4.83319349262441 57.14332403720503 5.108284952413974
4.8552486870006 57.267436404248286 5.0318405916329185
4.878507024109603 57.38478649770401 4.95950298047838
4.902660584744017 57.495401653350264 4.891268476610258
4.9273664423355195 57.59931230973808 4.827131068569338
4.952262501992381 57.69655061695331 4.7670827528868625
4.976983500921218 57.78714902783872 4.7111140071636335
5.001175646193821 57.871139006008086 4.659214305839178
5.024508747358235 57.9485499518099 4.611372629613332
5.046685168083739 58.01940840657437 4.5675779293513825
5.067445381107854 58.083737555058136 4.527819518043193
5.0865702978405904 58.14155701186353 4.492087377369388
5.103005899858846 58.19285192073804 4.459593972394564
5.11815588142498 58.23771693843702 4.431904508814955
5.131293189285305 58.27610589049287 4.408215343186209
5.152735584850455 42.28870514811786 0.48012534096622506
5.138841661138245 42.31431809704591 0.5211234398005467
5.1228437079160205 42.34421129974773 0.568964748574889
5.104867515548856 42.378369625242314 0.6236234190584976
5.08506706617601 42.41677467380999 0.6850696266725673
5.063626394686144 42.45940458817358 0.7532698000499772
5.040760319943977 42.50623399542827 0.8281870640600212
5.016713646648479 42.55723412444062 0.9097819333879303
4.991758498550968 42.612373136286166 0.9980132759806506
4.963340236003275 42.67188531080115 1.0913928528220957
4.938525007018527 42.735086931711876 1.1933247805960516
4.913444020963463 42.80235264973737 1.3017288640065754
4.888426299316233 42.8736439943328 1.4165449890373045
4.863806416497872 42.94892184726489 1.5377152674927015
4.839913821305008 43.02814765380548 1.6651854623634341
4.817062738141022 43.111284562201845 1.7989060663404992
4.7955437440776425 43.1982983668327 1.9388328967514226
4.775628482993621 43.289161447669926 2.0849209083446136
4.757209175704667 43.383885736429896 2.2378736743576417
4.7404548343866235 43.4824531578753 2.3972704193116665
4.725389719052585 43.58486110844631 2.56313083323086
4.714418120661668 43.69092344679871 2.7356148917601546
4.695119672433689 43.801781650644955 2.915407856438723
4.687359377134829 43.91544966692822 3.1005352624219396
4.680340825861161 44.033070193386415 3.292262765641217
4.6741888231467055 44.15462897862825 3.490604574835767
4.669009064431307 44.28011377963357 3.69557834252689
4.6648935527521305 44.40951378285685 3.9072039161803622
4.661927732339773 44.54281885237012 4.125502126160684
4.660198328995465 44.680018716934896 4.350493767203979
4.659800809241875 44.821102211367325 4.582198892059673
4.661091676524635 44.96597635023099 4.820050327280178
4.66362696059361 45.114774437995216 5.06490758237666
4.667614187187609 45.26744102762342 5.316406847756696
4.673134244005107 45.42396833176217 5.574548966768927
4.68028365847666 45.58434743449369 5.839334577998953
4.690454079033757 45.74902147761088 6.110409471894091
4.701004604996678 45.91717472175865 6.388573520243417
4.713313994547806 46.08843427944529 6.673371186967505
4.7272588040706465 46.26420607237279 6.964895488576097
4.743069679519214 46.443817879142465 7.263062737379239
4.760329067978637 46.62731265779886 7.567919364516511
4.778363658552031 46.81475640628152 7.879523784891228
4.79623884175061 47.00623782083627 8.197944109703307
4.8124775560976465 47.20189043522884 8.523279832209282
4.826591908204673 47.40175249956547 8.855560426368411
4.837517063352989 47.60589473139582 9.195001256823614
4.844581079376186 47.814443899006555 9.541261852887217
4.848427254987733 48.02732226902093 9.89437221011027
4.849862342104606 48.24446289455359 10.254241748368282
4.851474913908708 48.535051985767545 10.32636965428136
4.853532829362777 48.89369906499675 10.109531443152608
4.85332392156138 49.24590339331456 9.896832466973365
4.849352481204409 49.59186527453392 9.687941166802434
4.842042447222395 49.93149633416795 9.483324539252768
4.831197026645103 50.26485970192709 9.282629398992318
4.817792797066129 50.59186049320594 9.08583710570259
4.803066132455841 50.91237201287501 8.892948334271148
4.788197266873397 51.22626939489173 8.703977670475135
4.772693679874602 51.53359521612822 8.518689596885224
4.757417891881422 51.834279201757646 8.337731700846444
4.746259194054394 52.12786922750765 8.160513187765826
4.736322262201195 52.41468206623688 7.987265695963232
4.727612206360216 52.6947149113585 7.818004338048051
4.720061368382785 52.967973706880855 7.652742094748814
4.712802640478602 53.23445611035967 7.491125729291994
4.708187472313025 53.494124143737686 7.333950247467998
4.704663552487877 53.74702611803233 7.180749847939296
4.702151753370175 53.99317228552891 7.031533093194663
4.700603243339059 54.23256963032084 6.886308713789334
4.6999927350072355 54.465222499615614 6.745085718363094
4.700308271457814 54.69113358522648 6.607873316035538
4.701538642465549 54.91030513293688 6.474680661369095
4.701153632132561 55.12280745623021 6.3458626888733205
4.7029104373295025 55.32867862042787 6.21998789051718
4.706261574206824 55.52773491350251 6.098265222207514
4.711202921963363 55.719978886616005 5.980691275969034
4.717741876081232 55.90541193247617 5.867263568464287
4.725891636208407 56.08403479920714 5.757980452438681
4.73566353983263 56.25584827276253 5.652840921712267
4.747057738951543 56.420854000671554 5.551844307279941
4.7600529673107825 56.579055392155254 5.454989879606273
4.774596580344428 56.730458492325816 5.362276392463331
4.79059630283847 56.87507270612619 5.273701620609961
4.812600394892047 57.012426386227496 5.18883710424901
4.83319349262441 57.14332403720503 5.108284952413974
4.8552486870006 57.267436404248286 5.0318405916329185
4.878507024109603 57.38478649770401 4.95950298047838
4.902660584744017 57.495401653350264 4.891268476610258
4.9273664423355195 57.59931230973808 4.827131068569338
4.952262501992381 57.69655061695331 4.7670827528868625
4.976983500921218 57.78714902783872 4.7111140071636335
5.001175646193821 57.871139006008086 4.659214305839178
5.024508747358235 57.9485499518099 4.611372629613332
5.046685168083739 58.01940840657437 4.5675779293513825
5.067445381107854 58.083737555058136 4.527819518043193
5.0865702978405904 58.14155701186353 4.492087377369388
5.103005899858846 58.19285192073804 4.459593972394564
5.11815588142498 58.23771693843702 4.431904508814955
5.131293189285305 58.27610589049287 4.408215343186209

VECTORS L float
0.0574496785698789 0.0 0.0
0.10387751906973391 0.0 0.0
0.15423520718103392 0.0 0.0
0.21021740528937327 0.0 0.0
0.27230693635104264 0.0 0.0
0.34065911571271223 0.0 0.0
0.41529270210912483 0.0 0.0
0.4961478572172463 0.0 0.0
0.583106753591348 0.0 0.0
0.675993183193151 0.0 0.0
0.7746279297406511 0.0 0.0
0.8787443186765773 0.0 0.0
0.988046403104557 0.0 0.0
1.1022067815758754 0.0 0.0
1.2208727654498923 0.0 0.0
1.3436764379383923 0.0 0.0
1.4702444960751733 0.0 0.0
1.6002069551944906 0.0 0.0
1.7332050355404656 0.0 0.0
1.868901299196475 0.0 0.0
2.006988992201709 0.0 0.0
2.1471632286421687 0.0 0.0
2.2890135215406353 0.0 0.0
2.4325996150403326 0.0 0.0
2.5776064252171094 0.0 0.0
2.723793729206955 0.0 0.0
2.8709709075331897 0.0 0.0
3.0189729777306598 0.0 0.0
3.167651889656984 0.0 0.0
3.3168687278774733 0.0 0.0
3.4664855290134313 0.0 0.0
3.6163570276302397 0.0 0.0
3.7662704440858166 0.0 0.0
3.9160765402539233 0.0 0.0
4.065542415136757 0.0 0.0
4.214350210532727 0.0 0.0
4.3621565897711365 0.0 0.0
4.508368022713103 0.0 0.0
4.652432344398305 0.0 0.0
4.793524125121979 0.0 0.0
4.930749973996934 0.0 0.0
5.062925354094413 0.0 0.0
5.188647118547478 0.0 0.0
5.306322867549613 0.0 0.0
5.414290796536212 0.0 0.0
5.5112025794907975 0.0 0.0
5.596328809779382 0.0 0.0
5.670812993885029 0.0 0.0
5.740111250708747 0.0 0.0
5.828248590105318 0.0 0.0
6.075926036477079 0.0 0.0
6.104565347241208 0.0 0.0
6.149229981208638 0.0 0.0
6.185401517847353 0.0 0.0
6.206908090371459 0.0 0.0
6.211691702205859 0.0 0.0
6.19967833134274 0.0 0.0
6.171696573433431 0.0 0.0
6.12892877872875 0.0 0.0
6.07279438613601 0.0 0.0
6.004521967433381 0.0 0.0
5.925422432512835 0.0 0.0
5.8362400778582835 0.0 0.0
5.737699636831071 0.0 0.0
5.630421337830291 0.0 0.0
5.514977979154995 0.0 0.0
5.391917392212535 0.0 0.0
5.261591783201376 0.0 0.0
5.124306675331764 0.0 0.0
4.980362079163036 0.0 0.0
4.8301157624403 0.0 0.0
4.67373736933669 0.0 0.0
4.511591108897092 0.0 0.0
4.34393409194522 0.0 0.0
4.171289556711753 0.0 0.0
3.994083381527728 0.0 0.0
3.8127116446727918 0.0 0.0
3.627659360523696 0.0 0.0
3.4394465766367737 0.0 0.0
3.2486510870886125 0.0 0.0
3.0559189215727214 0.0 0.0
2.8619473772662167 0.0 0.0
2.6675484646397813 0.0 0.0
2.4734777222383926 0.0 0.0
2.280685317644119 0.0 0.0
2.089968423355753 0.0 0.0
1.9023061472478384 0.0 0.0
1.7186514158318242 0.0 0.0
1.539952573820733 0.0 0.0
1.3671239550376952 0.0 0.0
1.2010313716926568 0.0 0.0
1.0424821935363306 0.0 0.0
0.8922077748450438 0.0 0.0
0.7508561095102066 0.0 0.0
0.6189781176390966 0.0 0.0
0.4970061876778049 0.0 0.0
0.3852102948493447 0.0 0.0
0.28358248453190205 0.0 0.0
0.1914799551391531 0.0 0.0
0.10594264775242367 0.0 0.0
0.0574496785698789 0.0 0.0
0.10387751906973391 0.0 0.0
0.15423520718103392 0.0 0.0
0.21021740528937327 0.0 0.0
0.27230693635104264 0.0 0.0
0.34065911571271223 0.0 0.0
0.41529270210912483 0.0 0.0
0.4961478572172463 0.0 0.0
0.583106753591348 0.0 0.0
0.675993183193151 0.0 0.0
0.7746279297406511 0.0 0.0
0.8787443186765773 0.0 0.0
0.988046403104557 0.0 0.0
1.1022067815758754 0.0 0.0
1.2208727654498923 0.0 0.0
1.3436764379383923 0.0 0.0
1.4702444960751733 0.0 0.0
1.6002069551944906 0.0 0.0
1.7332050355404656 0.0 0.0
1.868901299196475 0.0 0.0
2.006988992201709 0.0 0.0
2.1471632286421687 0.0 0.0
2.2890135215406353 0.0 0.0
2.4325996150403326 0.0 0.0
2.5776064252171094 0.0 0.0
2.723793729206955 0.0 0.0
2.8709709075331897 0.0 0.0
3.0189729777306598 0.0 0.0
3.167651889656984 0.0 0.0
3.3168687278774733 0.0 0.0
3.4664855290134313 0.0 0.0
3.6163570276302397 0.0 0.0
3.7662704440858166 0.0 0.0
3.9160765402539233 0.0 0.0
4.065542415136757 0.0 0.0
4.214350210532727 0.0 0.0
4.3621565897711365 0.0 0.0
4.508368022713103 0.0 0.0
4.652432344398305 0.0 0.0
4.793524125121979 0.0 0.0
4.930749973996934 0.0 0.0
5.062925354094413 0.0 0.0
5.188647118547478 0.0 0.0
5.306322867549613 0.0 0.0
5.414290796536212 0.0 0.0
5.5112025794907975 0.0 0.0
5.596328809779382 0.0 0.0
5.670812993885029 0.0 0.0
5.740111250708747 0.0 0.0
5.828248590105318 0.0 0.0
6.075926036477079 0.0 0.0
6.104565347241208 0.0 0.0
6.149229981208638 0.0 0.0
6.185401517847353 0.0 0.0
6.206908090371459 0.0 0.0
6.211691702205859 0.0 0.0
6.19967833134274 0.0 0.0
6.171696573433431 0.0 0.0
6.12892877872875 0.0 0.0
6.07279438613601 0.0 0.0
6.004521967433381 0.0 0.0
5.925422432512835 0.0 0.0
5.8362400778582835 0.0 0.0
5.737699636831071 0.0 0.0
5.630421337830291 0.0 0.0
5.514977979154995 0.0 0.0
5.391917392212535 0.0 0.0
5.261591783201376 0.0 0.0
5.124306675331764 0.0 0.0
4.980362079163036 0.0 0.0
4.8301157624403 0.0 0.0
4.67373736933669 0.0 0.0
4.511591108897092 0.0 0.0
4.34393409194522 0.0 0.0
4.171289556711753 0.0 0.0
3.994083381527728 0.0 0.0
3.8127116446727918 0.0 0.0
3.627659360523696 0.0 0.0
3.4394465766367737 0.0 0.0
3.2486510870886125 0.0 0.0
3.0559189215727214 0.0 0.0
2.8619473772662167 0.0 0.0
2.6675484646397813 0.0 0.0
2.4734777222383926 0.0 0.0
2.280685317644119 0.0 0.0
2.089968423355753 0.0 0.0
1.9023061472478384 0.0 0.0
1.7186514158318242 0.0 0.0
1.539952573820733 0.0 0.0
1.3671239550376952 0.0 0.0
1.2010313716926568 0.0 0.0
1.0424821935363306 0.0 0.0
0.8922077748450438 0.0 0.0
0.7508561095102066 0.0 0.0
0.6189781176390966 0.0 0.0
0.4970061876778049 0.0 0.0
0.3852102948493447 0.0 0.0
0.28358248453190205 0.0 0.0
0.1914799551391531 0.0 0.0
0.10594264775242367 0.0 0.0

SCALARS Gamma float
LOOKUP_TABLE default
0.4154885342402036
0.6386152009050481
0.8212283420760338
0.9855404092364086
1.1390130439450665
1.2849229300909646
1.4248819194962883
1.5597024030307411
1.6897627717379549
1.8151661823977105
1.935966734686804
2.0519998948330658
2.163075885376358
2.26898750098555
2.369531229062517
2.464528685493498
2.5538409574819734
2.6373765209992146
2.715095188429295
2.787013501184987
2.8532061377073927
2.913755715080206
2.9686258325827355
3.0183671792263684
3.0630291777449967
3.1027557415180147
3.1377409442844972
3.1681945929362563
3.194330059922485
3.2163554795101006
3.234466398734522
3.248839626149601
3.2595859838077588
3.266867088282047
3.270770370310294
3.2713204602642154
3.2685321972468504
3.2622546385557043
3.252381406575366
3.2387165299153566
3.2209664509759923
3.198769815502758
3.1716820357648587
3.139223085696689
3.100953927459461
3.0566785051133163
3.006557130890445
2.951640883531458
2.8946502407501606
2.8425737734199794
2.8368824222676943
2.8770454878229663
2.9216271182116493
2.963971909215627
3.0016014250025194
3.033546388602153
3.059668527396803
3.080224736597928
3.0956309733237912
3.1064220514714123
3.113038929954294
3.115976494660279
3.115441176142609
3.111626410852821
3.1046680652097205
3.0946726801637556
3.0817289735766207
3.0658092855374592
3.0468456135843556
3.024750927610638
2.9994297436565796
2.970744122669266
2.938546274525793
2.9026378185143455
2.8629691330082716
2.8193925931215804
2.771757903706973
2.719909224992599
2.6636997749706626
2.6029987755475466
2.537703126996725
2.4677287120586957
2.393070532446454
2.3136632100877605
2.229608655328834
2.140868499822021
2.047582332604319
1.949887224543766
1.8479428724297051
1.741903779482594
1.631899998029288
1.5180161130026966
1.400248278479745
1.2784558077300883
1.152273011276221
1.0209486311460596
0.8830188547695041
0.7355282825978342
0.5717912595261049
0.37191297300208537
0.4154885342402036
0.6386152009050481
0.8212283420760338
0.9855404092364086
1.1390130439450665
1.2849229300909646
1.4248819194962883
1.5597024030307411
1.6897627717379549
1.8151661823977105
1.935966734686804
2.0519998948330658
2.163075885376358
2.26898750098555
2.369531229062517
2.464528685493498
2.5538409574819734
2.6373765209992146
2.715095188429295
2.787013501184987
2.8532061377073927
2.913755715080206
2.9686258325827355
3.0183671792263684
3.0630291777449967
3.1027557415180147
3.1377409442844972
3.1681945929362563
3.194330059922485
3.2163554795101006
3.234466398734522
3.248839626149601
3.2595859838077588
3.266867088282047
3.270770370310294
3.2713204602642154
3.2685321972468504
3.2622546385557043
3.252381406575366
3.2387165299153566
3.2209664509759923
3.198769815502758
3.1716820357648587
3.139223085696689
3.100953927459461
3.0566785051133163
3.006557130890445
2.951640883531458
2.8946502407501606
2.8425737734199794
2.8368824222676943
2.8770454878229663
2.9216271182116493
2.963971909215627
3.0016014250025194
3.033546388602153
3.059668527396803
3.080224736597928
3.0956309733237912
3.1064220514714123
3.113038929954294
3.115976494660279
3.115441176142609
3.111626410852821
3.1046680652097205
3.0946726801637556
3.0817289735766207
3.0658092855374592
3.0468456135843556
3.024750927610638
2.9994297436565796
2.970744122669266
2.938546274525793
2.9026378185143455
2.8629691330082716
2.8193925931215804
2.771757903706973
2.719909224992599
2.6636997749706626
2.6029987755475466
2.537703126996725
2.4677287120586957
2.393070532446454
2.3136632100877605
2.229608655328834
2.140868499822021
2.047582332604319
1.949887224543766
1.8479428724297051
1.741903779482594
1.631899998029288
1.5180161130026966
1.400248278479745
1.2784558077300883
1.152273011276221
1.0209486311460596
0.8830188547695041
0.7355282825978342
0.5717912595261049