# vtk DataFile Version 4.0
[MyVLM domain - lattices] 
ASCII
DATASET UNSTRUCTURED_GRID
POINTS 302 float
0.03418245623128632 -5.607088332379048 2.7389689200726037
0.034058156390445286 -5.612764652096219 2.736015376149795
0.03391102596659263 -5.619483561149199 2.7325193445676947
0.03374106495972834 -5.6272450595379855 2.728480825326303
0.033548273369852444 -5.636049147262579 2.7238998184256205
0.03333265119696492 -5.645895824322979 2.718776323865646
0.033094198441065786 -5.656785090719187 2.7131103416463804
0.032832915102155025 -5.668716946451202 2.7069018717678235
0.032548801180232644 -5.681691391519024 2.700150914229975
0.03224185667529864 -5.695708425922653 2.6928574690328353
0.03191208158735302 -5.710768049662089 2.685021536176404
0.03155947591639578 -5.726870262737333 2.6766431156606814
0.031184039662426926 -5.744015065148384 2.6677222074856677
0.030785772825446447 -5.762202456895241 2.658258811651362
0.030364675405454348 -5.781432437977906 2.648252928157765
0.029920747402450633 -5.801705008396378 2.637704557004877
0.02945398881643529 -5.823020168150657 2.6266136981926977
0.02896439964740833 -5.845377917240743 2.6149803517212264
0.028451979895369756 -5.868778255666637 2.6028045175904646
0.027916729560319556 -5.893221183428337 2.590086195800411
0.027358648642257736 -5.918706700525845 2.5768253863510653
0.026777737141184296 -5.945234806959159 2.563022089242429
0.02617399505709924 -5.972805502728281 2.548676304474501
0.025547422390002565 -6.0014187878332095 2.5337880320472816
0.02489801913989427 -6.031074662273946 2.518357271960771
0.024225785306774352 -6.06177312605049 2.5023840242149693
0.023530720890642818 -6.09351417916284 2.485868288809876
0.02281282589149966 -6.126297821610997 2.468810065745491
0.022072100309344884 -6.160124053394961 2.451209355021815
0.02130854414417849 -6.194992874514734 2.433066156638847
0.020522157396000475 -6.230904284970312 2.4143804705965883
0.019712940064810835 -6.267858284761698 2.395152296895038
0.01888089215060958 -6.305854873888891 2.375381635534196
0.01802601365339671 -6.344894052351892 2.355068486514063
0.01714830457317221 -6.384975820150698 2.334212849834638
0.016247764909936097 -6.4261001772853135 2.3128147254959224
0.01532439466368836 -6.4682671237557345 2.2908741134979147
0.014378193834429006 -6.511476659561963 2.268391013840616
0.013409162422158035 -6.555728784704 2.245365426524026
0.012417300426875442 -6.601023499181842 2.221797351548145
0.01140260784858123 -6.647360802995492 2.1976867889129714
0.010365084687275396 -6.694740696144948 2.1730337386185075
0.009304730942957943 -6.743163178630214 2.1478382006647516
0.008221546615628864 -6.792628250451285 2.1221001750517043
0.007115531705288172 -6.843135911608164 2.095819661779366
0.0059866862119358575 -6.894686162100851 2.0689966608477364
0.004835010135571924 -6.947279001929342 2.041631172256815
0.0036605034761963704 -7.000914431093642 2.013723196006602
0.002463166233809204 -7.05559244959375 1.9852727320970984
0.0012429984084104115 -7.111313057429664 1.956279780528303
0.0 -7.1680762546013845 1.9267443413002159
0.0012429984084104085 -7.197633111626477 1.983496389072521
0.002463166233809197 -7.226647087604171 2.039206052293906
0.0036605034761963665 -7.2551181825344635 2.0938733309643713
0.0048350101355719155 -7.283046396417357 2.1474982250839165
0.0059866862119358445 -7.310431729252851 2.200080734652542
0.007115531705288152 -7.337274181040946 2.2516208596702474
0.008221546615628843 -7.363573751781639 2.302118600137033
0.009304730942957912 -7.389330441474934 2.3515739560528988
0.010365084687275362 -7.41454425012083 2.3999869274178445
0.011402607848581194 -7.439215177719325 2.4473575142318706
0.012417300426875406 -7.463343224270422 2.493685716494977
0.013409162422157995 -7.486928389774118 2.538971534207163
0.014378193834428964 -7.509970674230414 2.5832149673684293
0.015324394663688318 -7.53247007763931 2.6264160159787755
0.016247764909936048 -7.5544266000008085 2.668574680038202
0.01714830457317216 -7.575840241314906 2.709690959546709
0.018026013653396653 -7.596711001581604 2.7497648545042956
0.018880892150609528 -7.617038880800902 2.7887963649109624
0.019712940064810783 -7.6368238789728 2.8267854907667096
0.020522157396000416 -7.6560659960973 2.863732232071537
0.02130854414417843 -7.674765232174399 2.8996365888254436
0.02207210030934482 -7.692921587204098 2.9344985610284313
0.022812825891499588 -7.710535061186398 2.968318148680498
0.023530720890642745 -7.727605654121298 3.001095351781646
0.024225785306774283 -7.744133366008798 3.0328301703318736
0.0248980191398942 -7.7601181968489 3.0635226043311814
0.025547422390002492 -7.775560146641602 3.093172653779569
0.026173995057099168 -7.790459215386904 3.1217803186770374
0.026777737141184223 -7.804815403084804 3.1493455990235857
0.027358648642257663 -7.818628709735308 3.1758684948192135
0.02791672956031947 -7.83189913533841 3.2013490060639223
0.02845197989536967 -7.844626679894114 3.2257871327577106
0.028964399647408243 -7.856811343402416 3.249182874900579
0.0294539888164352 -7.86845312586332 3.2715362324925272
0.029920747402450543 -7.879552027276824 3.2928472055335565
0.03036467540545426 -7.890108047642929 3.3131157940236653
0.030785772825446357 -7.900121186961633 3.3323419979628546
0.031184039662426836 -7.909591445232939 3.3505258173511243
0.031559475916395685 -7.9185188224568455 3.3676672521884727
0.03191208158735293 -7.926903318633349 3.3837663024749025
0.032241856675298546 -7.934744933762455 3.398822968210412
0.032548801180232546 -7.942043667844163 3.4128372493950017
0.03283291510215493 -7.94879952087847 3.425809146028671
0.03309419844106569 -7.955012492865377 3.437738658111421
0.03333265119696482 -7.960682583804885 3.44862578564325
0.03354827336985234 -7.965809793696993 3.4584705286241606
0.03374106495972824 -7.9703941225417 3.467272887054151
0.033911025966592526 -7.9744355703390095 3.4750328609332213
0.03405815639044519 -7.977934137088918 3.481750450261372
0.034182456231286226 -7.980889822791427 3.487425655038602
0.04785543872380084 -5.457453461572588 3.2135500985747583
0.0477311388829598 -5.46312978128976 3.21059655465195
0.047584008459107145 -5.469848690342739 3.2071005230698497
0.047414047452242855 -5.477610188731526 3.203062003828458
0.04722125586236696 -5.486414276456119 3.198480996927775
0.04700563368947944 -5.49626095351652 3.1933575023678014
0.0467671809335803 -5.507150219912727 3.1876915201485354
0.04650589759466953 -5.519082075644743 3.1814830502699785
0.04622178367274716 -5.5320565207125645 3.17473209273213
0.04591483916781316 -5.546073555116195 3.16743864753499
0.04558506407986754 -5.561133178855631 3.159602714678559
0.045232458408910305 -5.5772353919308735 3.1512242941628363
0.044857022154941445 -5.594380194341924 3.142303385987822
0.04445875531796096 -5.612567586088781 3.132839990153517
0.04403765789796886 -5.631797567171446 3.12283410665992
0.04359372989496514 -5.652070137589918 3.112285735507032
0.0431269713089498 -5.673385297344198 3.1011948766948523
0.042637382139922846 -5.695743046434284 3.0895615302233814
0.04212496238788427 -5.719143384860177 3.0773856960926196
0.04158971205283407 -5.743586312621877 3.0646673743025654
0.041031631134772255 -5.769071829719385 3.0514065648532203
0.04045071963369882 -5.7955999361526995 3.0376032677445837
0.039846977549613756 -5.823170631921822 3.023257482976656
0.039220404882517074 -5.851783917026751 3.0083692105494366
0.038571001632408786 -5.8814397914674865 2.992938450462926
0.037898767799288864 -5.91213825524403 2.976965202717124
0.03720370338315734 -5.94387930835638 2.9604494673120305
0.036485808384014176 -5.9766629508045375 2.943391244247646
0.0357450828018594 -6.010489182588502 2.9257905335239696
0.034981526636693 -6.045358003708274 2.907647335141002
0.03419513988851498 -6.081269414163852 2.888961649098743
0.03338592255732535 -6.1182234139552385 2.869733475397193
0.03255387464312409 -6.1562200030824314 2.849962814036351
0.03169899614591123 -6.195259181545432 2.8296496650162175
0.030821287065686723 -6.2353409493442395 2.808794028336793
0.029920747402450616 -6.276465306478854 2.7873959039980774
0.02899737715620287 -6.318632252949276 2.7654552920000697
0.028051176326943518 -6.3618417887555045 2.742972192342771
0.027082144914672552 -6.40609391389754 2.719946605026181
0.026090282919389952 -6.451388628375383 2.6963785300502994
0.025075590341095744 -6.497725932189032 2.6722679674151264
0.02403806717978991 -6.54510582533849 2.647614917120662
0.022977713435472457 -6.593528307823755 2.6224193791669066
0.021894529108143376 -6.6429933796448255 2.5966813535538593
0.02078851419780269 -6.693501040801705 2.570400840281521
0.019659668704450375 -6.7450512912943905 2.543577839349891
0.018507992628086438 -6.797644131122884 2.5162123507589698
0.01733348596871089 -6.851279560287184 2.4883043745087567
0.01613614872632372 -6.905957578787291 2.459853910599253
0.014915980900924927 -6.961678186623205 2.4308609590304577
0.013672982492514515 -7.018441383794927 2.401325519802371
0.014915980900924922 -7.047998240820019 2.4580775675746755
0.016136148726323712 -7.077012216797711 2.513787230796061
0.017333485968710878 -7.105483311728005 2.568454509466526
0.01850799262808643 -7.133411525610898 2.6220794035860715
0.019659668704450357 -7.160796858446392 2.6746619131546967
0.020788514197802668 -7.187639310234485 2.7262020381724024
0.021894529108143358 -7.213938880975181 2.776699778639188
0.022977713435472426 -7.239695570668475 2.8261551345550537
0.024038067179789877 -7.2649093793143695 2.8745681059199995
0.02507559034109571 -7.289580306912866 2.9219386927340256
0.02609028291938992 -7.313708353463962 2.9682668949971314
0.027082144914672507 -7.337293518967658 3.0135527127093176
0.028051176326943473 -7.360335803423954 3.057796145870584
0.028997377156202833 -7.382835206832852 3.1009971944809305
0.029920747402450563 -7.404791729194348 3.143155858540357
0.03082128706568667 -7.4262053705084465 3.184272138048864
0.03169899614591117 -7.4470761307751445 3.2243460330064506
0.032553874643124044 -7.467404009994442 3.263377543413118
[...]
CELL_DATA 200

VECTORS Vinf float
5.172512401916059 22.322393704610658 35.91853427021998
5.15855744420615 22.301588654366466 35.962172718407956
5.142489119800039 22.277313626443338 36.01309900865967
5.1244337265472195 22.249582270684282 36.07128633765676
5.104545870507783 22.218409827794915 36.13670299828428
5.08301033472198 22.183812834089416 36.209312349151496
5.060042813326186 22.1458087171364 36.28907300990051
5.035889109773415 22.104415275219942 36.37593933974055
5.010822458589661 22.059650044639316 36.46986224092135
4.985138751522483 22.011529573389907 36.57079030278967
4.959149634387558 21.96006863658624 36.678671265982494
4.934767510480031 21.905218251743424 36.793302117985945
4.909615987210828 21.84721402240543 36.91482396891493
4.884641334804312 21.78577876623557 37.043298458512275
4.85839491596352 21.721011719966477 37.178748458634594
4.835428610277328 21.652958169250958 37.32070458762674
4.813808815684278 21.581579592671982 37.46937992415953
4.793689573763392 21.506864403094745 37.62476142314078
4.775178348607278 21.428797999659178 37.786844303421624
4.758338518130667 21.347363666860762 37.95563109967404
4.743194623042711 21.262543545580048 38.131130302659706
4.729739523968206 21.174319569692145 38.31335477354273
4.717942477464203 21.082674275911007 38.502320125902365
4.7038452869046505 20.98460047704976 38.700488154291165
4.696990445506617 20.88730254298506 38.901968692370566
4.691031663448456 20.786233353656833 39.110515264928004
4.686069761189337 20.681334806359384 39.32615054424119
4.682179731241194 20.572546060399702 39.54890232485048
4.679419504028165 20.45980436952296 39.77880188063463
4.677840106304963 20.34304572233497 40.015882265451495
4.6774957753588415 20.222205224580065 40.260176786652046
4.678452675174414 20.097217202380232 40.511717836552975
4.680066707380117 19.97561465113978 40.76592231265959
4.685039577657431 19.845309928199367 41.02981530120831
4.690572258179677 19.7117907227329 41.30056693187872
4.6977381020738775 19.574745378325584 41.578138987161076
4.706639558392209 19.43416854503416 41.862523840271216
4.717366726535398 19.290053881612952 42.15371637353517
4.729968299845099 19.14239388713686 42.45171743433028
4.744586369795264 18.99075129189623 42.756807094134615
4.760593435526158 18.836153790185385 43.068384178874624
4.777941178289276 18.67784583388601 43.38695018644248
4.795964126704319 18.515800950437928 43.712597423908406
4.813733088859893 18.349995875091686 44.045443810148775
4.830439631507816 18.18201162961665 44.38441613777975
4.8445938472920735 18.008763646384487 44.73185573069147
4.8555041400978975 17.832502070601162 45.08635989271833
4.862777848845559 17.652718765448952 45.44827272882975
4.866686859127394 17.46945846618894 45.81754288710153
4.8680791426099725 17.28276215947033 46.19405940500692
4.869509639490984 17.378124854566508 46.47791608696504
4.871356375665004 17.753741486368 46.66387174207902
4.870962968123402 18.122458153547555 46.84658824368618
4.867357147229198 18.484700326725726 47.02598987062453
4.859757306883228 18.83969643064166 47.202547568286576
4.8486453878457025 19.18815481457364 47.37583909115198
4.834999011143923 19.530034552641304 47.54577838070606
4.820066579658845 19.865260529659665 47.71226174405645
4.8039245182253625 20.19245030443199 47.87656597122336
4.789305604704681 20.51319896999302 48.036461824817515
4.775840949217931 20.828754205455084 48.19119817417707
4.763610079108583 21.13610465476525 48.34361511901545
4.75293486588003 21.436453451489758 48.49241757595469
4.7437799854264995 21.72979284323036 48.63761158073588
4.735615117420761 22.017549207311816 48.77843994970259
4.729557988376548 22.296176377515163 48.91683223586043
4.724443493760125 22.56809211167257 49.05150212667293
4.720198214364313 22.833273465802 49.182475037702275
4.716769945041328 23.09169715896191 49.309774015372184
4.71412505433932 23.343339437358424 49.43341993363037
4.7122401363264 23.588176454352645 49.553432108826385
4.711089909149706 23.82618505015661 49.669829145136134
4.714276109784367 24.055109270102413 49.78354775623575
4.715192654044812 24.2778334388729 49.89352091254272
4.71790098287392 24.494082936983673 49.99963917952482
4.721796278057984 24.703300188665825 50.102217295353384
4.726985327643421 24.905474471059044 50.201251490683944
4.733586292752672 25.10059374217077 50.29673761000623
4.741722771470769 25.288644985552075 50.38867152683484
4.751515505251561 25.469614752969502 50.47704966831001
4.763071707949533 25.643489922342425 50.56186964423565
4.776703937312204 25.809807035000727 50.64336359337386
4.791847277161092 25.969616173662246 50.72098266132537
4.808925461890781 26.122442074698686 50.794988876249434
4.827898587079642 26.267848832142434 50.865599488722744
4.848544269389795 26.406134795073356 50.93267989495476
4.8706618198164575 26.537308293866793 50.99624602788828
4.8939908670516425 26.66138272841397 51.056316820455294
4.91822185320683 26.77837603207141 51.11291346225438
4.943010069438734 26.888309813784605 51.16605848942154
4.967991577291053 26.991208286692196 51.21577481016043
4.992799288260031 27.087097106456046 51.26208476720986
5.017077671009886 27.17600223684084 51.30500932226736
5.040494939136667 27.25794893859945 51.344567421580685
5.062752041269015 27.33296094731712 51.38077557267801
5.083588237456388 27.401059873286847 51.41364763483687
5.10278343457802 27.46226482707302 51.44319480398813
5.120157733339206 27.51659225145126 51.46942575797141
5.1355688028509325 27.56405592515327 51.49234692044861
5.148907758697654 27.604667096003155 51.51196280024443
5.172512401916059 22.322393704610658 35.91853427021998
5.15855744420615 22.301588654366466 35.962172718407956
5.142489119800039 22.277313626443338 36.01309900865967
5.1244337265472195 22.249582270684282 36.07128633765676
5.104545870507783 22.218409827794915 36.13670299828428
5.08301033472198 22.183812834089416 36.209312349151496
5.060042813326186 22.1458087171364 36.28907300990051
5.035889109773415 22.104415275219942 36.37593933974055
5.010822458589661 22.059650044639316 36.46986224092135
4.985138751522483 22.011529573389907 36.57079030278967
4.959149634387558 21.96006863658624 36.678671265982494
4.934767510480031 21.905218251743424 36.793302117985945
4.909615987210828 21.84721402240543 36.91482396891493
4.884641334804312 21.78577876623557 37.043298458512275
4.85839491596352 21.721011719966477 37.178748458634594
4.835428610277328 21.652958169250958 37.32070458762674
4.813808815684278 21.581579592671982 37.46937992415953
4.793689573763392 21.506864403094745 37.62476142314078
4.775178348607278 21.428797999659178 37.786844303421624
4.758338518130667 21.347363666860762 37.95563109967404
4.743194623042711 21.262543545580048 38.131130302659706
4.729739523968206 21.174319569692145 38.31335477354273
4.717942477464203 21.082674275911007 38.502320125902365
4.7038452869046505 20.98460047704976 38.700488154291165
4.696990445506617 20.88730254298506 38.901968692370566
4.691031663448456 20.786233353656833 39.110515264928004
4.686069761189337 20.681334806359384 39.32615054424119
4.682179731241194 20.572546060399702 39.54890232485048
4.679419504028165 20.45980436952296 39.77880188063463
4.677840106304963 20.34304572233497 40.015882265451495
4.6774957753588415 20.222205224580065 40.260176786652046
4.678452675174414 20.097217202380232 40.511717836552975
4.680066707380117 19.97561465113978 40.76592231265959
4.685039577657431 19.845309928199367 41.02981530120831
4.690572258179677 19.7117907227329 41.30056693187872
4.6977381020738775 19.574745378325584 41.578138987161076
4.706639558392209 19.43416854503416 41.862523840271216
4.717366726535398 19.290053881612952 42.15371637353517
4.729968299845099 19.14239388713686 42.45171743433028
4.744586369795264 18.99075129189623 42.756807094134615
4.760593435526158 18.836153790185385 43.068384178874624
4.777941178289276 18.67784583388601 43.38695018644248
4.795964126704319 18.515800950437928 43.712597423908406
4.813733088859893 18.349995875091686 44.045443810148775
4.830439631507816 18.18201162961665 44.38441613777975
4.8445938472920735 18.008763646384487 44.73185573069147
4.8555041400978975 17.832502070601162 45.08635989271833
4.862777848845559 17.652718765448952 45.44827272882975
4.866686859127394 17.46945846618894 45.81754288710153
4.8680791426099725 17.28276215947033 46.19405940500692
4.869509639490984 17.378124854566508 46.47791608696504
4.871356375665004 17.753741486368 46.66387174207902
4.870962968123402 18.122458153547555 46.84658824368618
4.867357147229198 18.484700326725726 47.02598987062453
4.859757306883228 18.83969643064166 47.202547568286576
4.8486453878457025 19.18815481457364 47.37583909115198
4.834999011143923 19.530034552641304 47.54577838070606
4.820066579658845 19.865260529659665 47.71226174405645
4.8039245182253625 20.19245030443199 47.87656597122336
4.789305604704681 20.51319896999302 48.036461824817515
4.775840949217931 20.828754205455084 48.19119817417707
4.763610079108583 21.13610465476525 48.34361511901545
4.75293486588003 21.436453451489758 48.49241757595469
4.7437799854264995 21.72979284323036 48.63761158073588
4.735615117420761 22.017549207311816 48.77843994970259
4.729557988376548 22.296176377515163 48.91683223586043
4.724443493760125 22.56809211167257 49.05150212667293
4.720198214364313 22.833273465802 49.182475037702275
4.716769945041328 23.09169715896191 49.309774015372184
4.71412505433932 23.343339437358424 49.43341993363037
4.7122401363264 23.588176454352645 49.553432108826385
4.711089909149706 23.82618505015661 49.669829145136134
4.714276109784367 24.055109270102413 49.78354775623575
4.715192654044812 24.2778334388729 49.89352091254272
4.71790098287392 24.494082936983673 49.99963917952482
4.721796278057984 24.703300188665825 50.102217295353384
4.726985327643421 24.905474471059044 50.201251490683944
4.733586292752672 25.10059374217077 50.29673761000623
4.741722771470769 25.288644985552075 50.38867152683484
4.751515505251561 25.469614752969502 50.47704966831001
4.763071707949533 25.643489922342425 50.56186964423565
4.776703937312204 25.809807035000727 50.64336359337386
4.791847277161092 25.969616173662246 50.72098266132537
4.808925461890781 26.122442074698686 50.794988876249434
4.827898587079642 26.267848832142434 50.865599488722744
4.848544269389795 26.406134795073356 50.93267989495476
4.8706618198164575 26.537308293866793 50.99624602788828
4.8939908670516425 26.66138272841397 51.056316820455294
4.91822185320683 26.77837603207141 51.11291346225438
4.943010069438734 26.888309813784605 51.16605848942154
4.967991577291053 26.991208286692196 51.21577481016043
4.992799288260031 27.087097106456046 51.26208476720986
5.017077671009886 27.17600223684084 51.30500932226736
5.040494939136667 27.25794893859945 51.344567421580685
5.062752041269015 27.33296094731712 51.38077557267801
5.083588237456388 27.401059873286847 51.41364763483687
5.10278343457802 27.46226482707302 51.44319480398813
5.120157733339206 27.51659225145126 51.46942575797141
5.1355688028509325 27.56405592515327 51.49234692044861
5.148907758697654 27.604667096003155 51.51196280024443

VECTORS L float
0.05771843430425415 0.0 0.0
0.1043636031600872 0.0 0.0
0.1549577410207808 0.0 0.0
0.2112033736717736 0.0 0.0
0.2735857247330636 0.0 0.0
0.3422612385541919 0.0 0.0
0.4172492656185746 0.0 0.0
0.49849062824783336 0.0 0.0
0.5858689685164513 0.0 0.0
0.67922154884942 0.0 0.0
0.7783305413762116 0.0 0.0
0.8829497958186282 0.0 0.0
0.9927698413194369 0.0 0.0
1.1074657729252357 0.0 0.0
1.2266711162045363 0.0 0.0
1.3500463675979197 0.0 0.0
1.4772057380539114 0.0 0.0
1.6077741068021907 0.0 0.0
1.7413857993581998 0.0 0.0
1.8777174413468165 0.0 0.0
2.0164427572802253 0.0 0.0
2.1572636097026954 0.0 0.0
2.29990630361252 0.0 0.0
2.4440850225717408 0.0 0.0
2.5897340684402876 0.0 0.0
2.736608829345748 0.0 0.0
2.8845003628167944 0.0 0.0
3.033233949678534 0.0 0.0
3.182634654643412 0.0 0.0
3.3326040221723847 0.0 0.0
3.4829940177245904 0.0 0.0
3.6335736573459165 0.0 0.0
3.784192374280468 0.0 0.0
3.9347437761133652 0.0 0.0
4.0849044621176125 0.0 0.0
4.234398795265709 0.0 0.0
4.382840518517948 0.0 0.0
4.529759120746959 0.0 0.0
4.6745520595925045 0.0 0.0
4.816424367778994 0.0 0.0
4.954389918975268 0.0 0.0
5.0872668164837815 0.0 0.0
5.2136443805530455 0.0 0.0
5.331929759233013 0.0 0.0
5.440491792453397 0.0 0.0
5.5378501243367175 0.0 0.0
5.623409139505764 0.0 0.0
5.6982977429522075 0.0 0.0
5.76796751674877 0.0 0.0
5.856599096063686 0.0 0.0
6.107941529239254 0.0 0.0
6.136617327740823 0.0 0.0
6.18148389314677 0.0 0.0
6.217848147783879 0.0 0.0
6.239404660297574 0.0 0.0
6.244124738566188 0.0 0.0
6.231932741372997 0.0 0.0
6.203655425350875 0.0 0.0
6.160593250875586 0.0 0.0
6.104170462279457 0.0 0.0
6.035588643342057 0.0 0.0
5.955917283556579 0.0 0.0
5.866091839955507 0.0 0.0
5.766895968939677 0.0 0.0
5.658943254549903 0.0 0.0
5.542860757921494 0.0 0.0
5.419051533488465 0.0 0.0
5.287867935927463 0.0 0.0
5.149672238994517 0.0 0.0
5.00479979363178 0.0 0.0
4.853574333503319 0.0 0.0
4.6963332248493765 0.0 0.0
4.53350201831529 0.0 0.0
4.365172852925209 0.0 0.0
4.191821485541838 0.0 0.0
4.013832140768527 0.0 0.0
3.831635564834663 0.0 0.0
3.645722167273079 0.0 0.0
3.4566191517263576 0.0 0.0
3.2649141349635804 0.0 0.0
3.071256827227525 0.0 0.0
2.8763567866569817 0.0 0.0
2.6809647224477997 0.0 0.0
2.4859112761338085 0.0 0.0
2.2920739876210585 0.0 0.0
2.100370776853378 0.0 0.0
1.9117478691487264 0.0 0.0
1.7271639099811311 0.0 0.0
1.547566426172857 0.0 0.0
1.373873269532461 0.0 0.0
1.2069537387670173 0.0 0.0
1.0476169424760446 0.0 0.0
0.8965973667489204 0.0 0.0
0.7545459972041634 0.0 0.0
0.6220155405080894 0.0 0.0
0.49944329622576306 0.0 0.0
0.38709852833316116 0.0 0.0
0.2849739608375818 0.0 0.0
0.19241946556754225 0.0 0.0
0.10646168132858076 0.0 0.0
0.05771843430425415 0.0 0.0
0.1043636031600872 0.0 0.0
0.1549577410207808 0.0 0.0
0.2112033736717736 0.0 0.0
0.2735857247330636 0.0 0.0
0.3422612385541919 0.0 0.0
0.4172492656185746 0.0 0.0
0.49849062824783336 0.0 0.0
0.5858689685164513 0.0 0.0
0.67922154884942 0.0 0.0
0.7783305413762116 0.0 0.0
0.8829497958186282 0.0 0.0
0.9927698413194369 0.0 0.0
1.1074657729252357 0.0 0.0
1.2266711162045363 0.0 0.0
1.3500463675979197 0.0 0.0
1.4772057380539114 0.0 0.0
1.6077741068021907 0.0 0.0
1.7413857993581998 0.0 0.0
1.8777174413468165 0.0 0.0
2.0164427572802253 0.0 0.0
2.1572636097026954 0.0 0.0
2.29990630361252 0.0 0.0
2.4440850225717408 0.0 0.0
2.5897340684402876 0.0 0.0
2.736608829345748 0.0 0.0
2.8845003628167944 0.0 0.0
3.033233949678534 0.0 0.0
3.182634654643412 0.0 0.0
3.3326040221723847 0.0 0.0
3.4829940177245904 0.0 0.0
3.6335736573459165 0.0 0.0
3.784192374280468 0.0 0.0
3.9347437761133652 0.0 0.0
4.0849044621176125 0.0 0.0
4.234398795265709 0.0 0.0
4.382840518517948 0.0 0.0
4.529759120746959 0.0 0.0
4.6745520595925045 0.0 0.0
4.816424367778994 0.0 0.0
4.954389918975268 0.0 0.0
5.0872668164837815 0.0 0.0
5.2136443805530455 0.0 0.0
5.331929759233013 0.0 0.0
5.440491792453397 0.0 0.0
5.5378501243367175 0.0 0.0
5.623409139505764 0.0 0.0
5.6982977429522075 0.0 0.0
5.76796751674877 0.0 0.0
5.856599096063686 0.0 0.0
6.107941529239254 0.0 0.0
6.136617327740823 0.0 0.0
6.18148389314677 0.0 0.0
6.217848147783879 0.0 0.0
6.239404660297574 0.0 0.0
6.244124738566188 0.0 0.0
6.231932741372997 0.0 0.0
6.203655425350875 0.0 0.0
6.160593250875586 0.0 0.0
6.104170462279457 0.0 0.0
6.035588643342057 0.0 0.0
5.955917283556579 0.0 0.0
5.866091839955507 0.0 0.0
5.766895968939677 0.0 0.0
5.658943254549903 0.0 0.0
5.542860757921494 0.0 0.0
5.419051533488465 0.0 0.0
5.287867935927463 0.0 0.0
5.149672238994517 0.0 0.0
5.00479979363178 0.0 0.0
4.853574333503319 0.0 0.0
4.6963332248493765 0.0 0.0
4.53350201831529 0.0 0.0
4.365172852925209 0.0 0.0
4.191821485541838 0.0 0.0
4.013832140768527 0.0 0.0
3.831635564834663 0.0 0.0
3.645722167273079 0.0 0.0
3.4566191517263576 0.0 0.0
3.2649141349635804 0.0 0.0
3.071256827227525 0.0 0.0
2.8763567866569817 0.0 0.0
2.6809647224477997 0.0 0.0
2.4859112761338085 0.0 0.0
2.2920739876210585 0.0 0.0
2.100370776853378 0.0 0.0
1.9117478691487264 0.0 0.0
1.7271639099811311 0.0 0.0
1.547566426172857 0.0 0.0
1.373873269532461 0.0 0.0
1.2069537387670173 0.0 0.0
1.0476169424760446 0.0 0.0
0.8965973667489204 0.0 0.0
0.7545459972041634 0.0 0.0
0.6220155405080894 0.0 0.0
0.49944329622576306 0.0 0.0
0.38709852833316116 0.0 0.0
0.2849739608375818 0.0 0.0
0.19241946556754225 0.0 0.0
0.10646168132858076 0.0 0.0

SCALARS Gamma float
LOOKUP_TABLE default
0.41756814472890325
0.6418126655032456
0.8253418121348142
0.9904793035996947
1.1447244634179512
1.2913714298010763
1.4320411277879992
1.5675520655316855
1.698289264620454
1.824389376464615
1.9458072624117333
2.062436858092962
2.17406133149056
2.2804841816225867
2.381481057066087
2.4769309263926553
2.5666719829893694
2.6506059986693606
2.7286852683273053
2.800949966043171
2.8674486762268327
2.928278723940588
2.9835720288195926
3.033447743018293
3.078277385323772
3.1181953002849676
3.1533721105572834
3.184006333411793
3.210285682220616
3.2324596315105123
3.250712489214812
3.2651463995218863
3.2759332238183343
3.283270604108307
3.287172878591536
3.287702047663839
3.2848439863857615
3.278539601539963
3.268659795419546
3.254977876526459
3.237187841532478
3.2149165721040927
3.1877178235544372
3.155114454879836
3.116687135723265
3.072168940337685
3.0217985379680297
2.9666190826872136
2.9093455550420173
2.856995234746477
2.851259133918286
2.891608652061616
2.9364094891278674
2.9789751678131777
3.0167691445884057
3.0488360499520435
3.075036109987679
3.0956240366108223
3.1110733979339673
3.121920507885616
3.1285956099321948
3.13146568309432
3.130832078242696
3.126918556623985
3.119857249386398
3.1097840852487764
3.0967072192221234
3.080594939846416
3.061408395654327
3.039079473595688
3.01351715299225
2.9846209183412977
2.9523274088357674
2.9163382411406222
2.8765713502773416
2.832863636524732
2.7850559482388504
2.7330037752203205
2.676562288187703
2.615604886703074
2.550028165184826
2.4797547665953057
2.4047226477367216
2.324924604662294
2.2403899868193884
2.1511878183650652
2.0574254267491963
1.9592426081247274
1.8567949301173106
1.7502371640545797
1.6396997302679226
1.52526522597875
1.4069293862069534
1.2845508040791793
1.1577606646511087
1.0258096907178256
0.8872243811601792
0.7390380869176493
0.5745233512618151
0.3736919532330875
0.41756814472890325
0.6418126655032456
0.8253418121348142
0.9904793035996947
1.1447244634179512
1.2913714298010763
1.4320411277879992
1.5675520655316855
1.698289264620454
1.824389376464615
1.9458072624117333
2.062436858092962
2.17406133149056
2.2804841816225867
2.381481057066087
2.4769309263926553
2.5666719829893694
2.6506059986693606
2.7286852683273053
2.800949966043171
2.8674486762268327
2.928278723940588
2.9835720288195926
3.033447743018293
3.078277385323772
3.1181953002849676
3.1533721105572834
3.184006333411793
3.210285682220616
3.2324596315105123
3.250712489214812
3.2651463995218863
3.2759332238183343
3.283270604108307
3.287172878591536
3.287702047663839
3.2848439863857615
3.278539601539963
3.268659795419546
3.254977876526459
3.237187841532478
3.2149165721040927
3.1877178235544372
3.155114454879836
3.116687135723265
3.072168940337685
3.0217985379680297
2.9666190826872136
2.9093455550420173
2.856995234746477
2.851259133918286
2.891608652061616
2.9364094891278674
2.9789751678131777
3.0167691445884057
3.0488360499520435
3.075036109987679
3.0956240366108223
3.1110733979339673
3.121920507885616
3.1285956099321948
3.13146568309432
3.130832078242696
3.126918556623985
3.119857249386398
3.1097840852487764
3.0967072192221234
3.080594939846416
3.061408395654327
3.039079473595688
3.01351715299225
2.9846209183412977
2.9523274088357674
2.9163382411406222
2.8765713502773416
2.832863636524732
2.7850559482388504
2.7330037752203205
2.676562288187703
2.615604886703074
2.550028165184826
2.4797547665953057
2.4047226477367216
2.324924604662294
2.2403899868193884
2.1511878183650652
2.0574254267491963
1.9592426081247274
1.8567949301173106
1.7502371640545797
1.6396997302679226
1.52526522597875
1.4069293862069534
1.2845508040791793
1.1577606646511087