# vtk DataFile Version 4.0
[MyVLM domain - lattices] 
ASCII
DATASET UNSTRUCTURED_GRID
POINTS 302 float
0.03418245623128632 4.6673003385927565 -4.417427187905761
0.034058156390445286 4.673547675823617 -4.416043423200536
0.03391102596659262 4.680942483158104 -4.414405497631087
0.03374106495972834 4.689484760596219 -4.412513411197413
0.03354827336985244 4.699174508137961 -4.410367163899513
0.03333265119696492 4.710011725783332 -4.407966755737389
0.033094198441065786 4.721996413532328 -4.40531218671104
0.03283291510215502 4.735128571384953 -4.402403456820466
0.032548801180232644 4.749408199341205 -4.399240566065667
0.03224185667529864 4.764835297401085 -4.3958235144466435
0.03191208158735302 4.781409865564591 -4.392152301963394
0.03155947591639578 4.799131903831725 -4.388226928615921
0.031184039662426926 4.818001412202486 -4.384047394404222
0.030785772825446447 4.838018390676876 -4.379613699328299
0.030364675405454348 4.859182839254892 -4.374925843388151
0.029920747402450633 4.881494757936535 -4.369983826583777
0.02945398881643529 4.904954146721806 -4.364787648915179
0.02896439964740833 4.929561005610704 -4.359337310382356
0.02845197989536975 4.955315334603231 -4.353632810985308
0.027916729560319556 4.9822171336993835 -4.3476741507240355
0.027358648642257736 5.010266402899164 -4.341461329598538
0.026777737141184296 5.039463142202573 -4.334994347608815
0.02617399505709924 5.069807351609608 -4.328273204754867
0.025547422390002565 5.10129903112027 -4.3212979010366945
0.024898019139894267 5.13393818073456 -4.3140684364542965
0.024225785306774352 5.167724800452477 -4.306584811007674
0.023530720890642818 5.202658890274023 -4.298847024696827
0.022812825891499657 5.238740450199195 -4.290855077521755
0.022072100309344884 5.275969480227994 -4.282608969482458
0.021308544144178487 5.314345980360422 -4.274108700578935
0.02052215739600047 5.353869950596476 -4.265354270811189
0.019712940064810835 5.394541390936158 -4.256345680179217
0.01888089215060958 5.436360301379468 -4.24708292868302
0.018026013653396705 5.479326681926404 -4.2375660163225985
0.01714830457317221 5.523440532576968 -4.227794943097952
0.016247764909936097 5.568701853331159 -4.21776970900908
0.015324394663688356 5.615110644188978 -4.207490314055984
0.014378193834429006 5.662666905150424 -4.196956758238663
0.013409162422158031 5.711370636215498 -4.186169041557116
0.012417300426875442 5.761221837384198 -4.175127164011346
0.011402607848581228 5.812220508656527 -4.163831125601349
0.010365084687275395 5.8643666500324825 -4.152280926327128
0.009304730942957943 5.917660261512065 -4.140476566188682
0.008221546615628864 5.972101343095276 -4.128418045186011
0.00711553170528817 6.027689894782114 -4.116105363319116
0.0059866862119358575 6.084425916572579 -4.103538520587995
0.004835010135571923 6.142309408466672 -4.090717516992649
0.0036605034761963704 6.201340370464392 -4.077642352533079
0.002463166233809204 6.261518802565739 -4.064313027209284
0.0012429984084104115 6.322844704770714 -4.050729541021264
0.0 6.385318077079316 -4.036891893969019
0.0012429984084104163 6.399179297811742 -4.099360040118546
0.0024631662338092126 6.41278592469398 -4.160680812155123
0.0036605034761963895 6.426137957726031 -4.220854210078749
0.004835010135571946 6.439235396907894 -4.2798802338894255
0.005986686211935882 6.45207824223957 -4.337758883587151
0.007115531705288199 6.464666493721059 -4.394490159171926
0.008221546615628895 6.477000151352359 -4.45007406064375
0.009304730942957971 6.489079215133473 -4.504510588002624
0.01036508468727543 6.500903685064399 -4.557799741248547
0.011402607848581268 6.512473561145138 -4.60994152038152
0.012417300426875486 6.523788843375691 -4.660935925401542
0.01340916242215808 6.5348495317560555 -4.7107829563086145
0.014378193834429058 6.545655626286231 -4.759482613102736
0.015324394663688417 6.55620712696622 -4.807034895783906
0.016247764909936152 6.566504033796021 -4.853439804352127
0.01714830457317227 6.576546346775636 -4.898697338807397
0.018026013653396768 6.5863340659050635 -4.942807499149716
0.01888089215060965 6.595867191184303 -4.985770285379085
0.01971294006481091 6.605145722613355 -5.027585697495503
0.020522157396000544 6.6141696601922195 -5.068253735498971
0.021308544144178564 6.622939003920898 -5.107774399389489
0.02207210030934496 6.631453753799388 -5.146147689167056
0.022812825891499737 6.63971390982769 -5.183373604831672
0.023530720890642898 6.647719472005806 -5.219452146383338
0.024225785306774435 6.655470440333733 -5.2543833138220535
0.024898019139894357 6.662966814811473 -5.288167107147818
0.025547422390002655 6.670208595439027 -5.320803526360632
0.02617399505709933 6.677195782216391 -5.352292571460496
0.0267777371411844 6.68392837514357 -5.382634242447409
0.02735864864225784 6.6904063742205615 -5.411828539321372
0.027916729560319656 6.696629779447363 -5.439875462082385
0.02845197989536985 6.702598590823981 -5.466775010730446
0.02896439964740843 6.70831280835041 -5.4925271852655575
0.029453988816435385 6.71377243202665 -5.517131985687719
0.029920747402450733 6.718977461852703 -5.540589411996929
0.030364675405454452 6.7239278978285695 -5.562899464193189
0.030785772825446554 6.72862373995425 -5.5840621422764976
0.031184039662427037 6.73306498822974 -5.6040774462468566
0.03155947591639589 6.737251642655044 -5.622945376104266
0.03191208158735314 6.741183703230161 -5.640665931848723
0.032241856675298754 6.744861169955089 -5.65723911348023
0.032548801180232755 6.748284042829832 -5.672664920998787
0.03283291510215513 6.751452321854387 -5.686943354404393
0.0330941984410659 6.754366007028754 -5.700074413697049
0.033332651196965025 6.757025098352933 -5.712058098876754
0.033548273369852555 6.759429595826926 -5.722894409943509
0.033741064959728465 6.76157949945073 -5.7325833468973135
0.03391102596659274 6.7634748092243475 -5.741124909738167
0.03405815639044541 6.765115525147777 -5.748519098466071
0.03418245623128645 6.766501647221021 -5.754765913081023
0.04785543872380088 4.399933504923785 -4.83710905051551
0.047731138882959843 4.406180842154646 -4.835725285810286
0.04758400845910718 4.4135756494891325 -4.8340873602408365
0.0474140474522429 4.422117926927248 -4.832195273807162
0.047221255862366994 4.43180767446899 -4.830049026509263
0.04700563368947948 4.442644892114361 -4.827648618347139
0.04676718093358034 4.454629579863357 -4.8249940493207895
0.04650589759466958 4.467761737715982 -4.822085319430215
0.0462217836727472 4.4820413656722335 -4.818922428675417
0.0459148391678132 4.497468463732114 -4.815505377056393
0.04558506407986758 4.5140430318956195 -4.811834164573144
0.045232458408910346 4.531765070162754 -4.807908791225671
0.04485702215494148 4.550634578533515 -4.803729257013972
0.044458755317961 4.5706515570079045 -4.799295561938049
0.0440376578979689 4.591816005585921 -4.7946077059979
0.04359372989496518 4.614127924267564 -4.7896656891935265
0.043126971308949845 4.637587313052835 -4.784469511524929
0.04263738213992289 4.662194171941733 -4.779019172992106
0.04212496238788431 4.68794850093426 -4.773314673595057
0.04158971205283411 4.714850300030412 -4.767356013333785
0.041031631134772296 4.742899569230193 -4.761143192208287
0.04045071963369885 4.772096308533602 -4.754676210218564
0.0398469775496138 4.802440517940637 -4.747955067364616
0.039220404882517115 4.833932197451299 -4.740979763646443
0.03857100163240883 4.866571347065589 -4.733750299064046
0.037898767799288906 4.900357966783506 -4.726266673617424
0.03720370338315737 4.935292056605052 -4.718528887306577
0.03648580838401422 4.971373616530224 -4.7105369401315045
0.03574508280185944 5.008602646559023 -4.702290832092207
0.03498152663669305 5.04697914669145 -4.693790563188685
0.034195139888515025 5.086503116927505 -4.6850361334209385
0.0333859225573254 5.127174557267187 -4.676027542788966
0.032553874643124134 5.1689934677104965 -4.66676479129277
0.03169899614591126 5.2119598482574325 -4.657247878932348
0.03082128706568676 5.256073698907997 -4.647476805707702
0.029920747402450654 5.301335019662188 -4.63745157161883
0.028997377156202916 5.347743810520007 -4.627172176665733
0.028051176326943563 5.3953000714814525 -4.616638620848412
0.02708214491467259 5.4440038025465265 -4.605850904166866
0.026090282919389998 5.493855003715227 -4.594809026621094
0.025075590341095785 5.544853674987555 -4.5835129882110985
0.024038067179789954 5.596999816363511 -4.571962788936878
0.0229777134354725 5.650293427843094 -4.560158428798432
0.02189452910814342 5.704734509426305 -4.548099907795761
0.020788514197802727 5.760323061113143 -4.535787225928866
0.019659668704450416 5.817059082903608 -4.523220383197745
0.018507992628086483 5.874942574797701 -4.510399379602399
0.017333485968710927 5.9339735367954205 -4.497324215142829
0.01613614872632376 5.994151968896768 -4.483994889819034
0.014915980900924972 6.0554778711017425 -4.470411403631013
0.013672982492514557 6.117951243410345 -4.456573756578768
0.014915980900924974 6.1318124641427705 -4.519041902728295
0.016136148726323768 6.145419091025008 -4.5803626747648725
0.017333485968710947 6.1587711240570595 -4.640536072688499
0.018507992628086504 6.171868563238923 -4.699562096499175
0.01965966870445044 6.184711408570599 -4.757440746196901
0.020788514197802754 6.197299660052088 -4.814172021781675
0.021894529108143452 6.209633317683388 -4.8697559232535
0.02297771343547253 6.221712381464502 -4.924192450612374
0.024038067179789985 6.233536851395429 -4.977481603858297
0.025075590341095827 6.245106727476167 -5.02962338299127
0.02609028291939004 6.256422009706719 -5.080617788011292
0.027082144914672635 6.2674826980870835 -5.130464818918364
0.028051176326943608 6.27828879261726 -5.179164475712485
0.028997377156202972 6.288840293297249 -5.226716758393656
0.02992074740245071 6.299137200127051 -5.273121666961877
0.030821287065686823 6.309179513106665 -5.318379201417146
0.03169899614591133 6.318967232236092 -5.362489361759466
0.03255387464312421 6.328500357515332 -5.405452147988835
0.03338592255732547 6.337778888944384 -5.447267560105253
0.0341951398885151 6.346802826523249 -5.487935598108721
[...]
CELL_DATA 200

VECTORS Vinf float
5.248198012034845 -30.856332217762407 -28.932916378147358
5.234040598858213 -30.847543179462807 -28.980584433447795
5.217750228490962 -30.83728676287753 -29.03621399875209
5.199464387167935 -30.825567335790204 -29.099775629668873
5.179353477967574 -30.812389238248937 -29.171234187326057
5.157623692926547 -30.797756471652878 -29.250548714148383
5.134518744757783 -30.781672335360067 -29.337672563091672
5.110320013708887 -30.764139018961952 -29.43255384576939
5.082768215079501 -30.746213763074323 -29.53417524530906
5.056508358229679 -30.725913696571258 -29.644280314190365
5.029318803678997 -30.703100452906757 -29.763252070227477
5.002974441063473 -30.68006464962014 -29.88835382794366
4.976970400401899 -30.655610090454694 -30.020927369853233
4.951613071791048 -30.62973032874219 -30.160927626481904
4.927183350760725 -30.602416340581843 -30.30831687807574
4.903927021232401 -30.573656758994215 -30.46306610277443
4.8820474419650655 -30.54343827106849 -30.625155744666017
4.861701294121255 -30.51174614888731 -30.794575809034605
4.842997764540361 -30.478564866089283 -30.971325279116503
4.82600107666053 -30.44387873931673 -31.155410941737333
4.805237405686848 -30.408279006292986 -31.347163127488624
4.794310055580963 -30.3703489646313 -31.5457069389773
4.784219253077696 -30.3309437766322 -31.75171394782163
4.7750433401334735 -30.29004874514314 -31.965187638211688
4.766838287444273 -30.247649120672744 -32.18613527462868
4.759643652059744 -30.203730522061836 -32.41456649407607
4.753489544169047 -30.15827919891098 -32.65049190476045
4.748403895072143 -30.111282120157295 -32.8939218169416
4.7444193976723215 -30.062726892410552 -33.144865197247746
4.742034540459182 -30.013176740805633 -33.40204838982954
4.7435689830552725 -29.961140183990114 -33.66789329155053
4.746704692629463 -29.906009769301004 -33.94291634969347
4.74945346591322 -29.850834286724236 -34.223844717731275
4.753682513429144 -29.79404349328912 -34.512278791501274
4.75947380533684 -29.73563163621586 -34.80821375937005
4.766925849182312 -29.675592158393446 -35.11164382832502
4.776142982529515 -29.613917909456912 -35.42256384900236
4.787216441914733 -29.55060164514139 -35.740971711876234
4.80019448056531 -29.485636874008925 -36.06687170044279
4.815039422599599 -29.41901908452694 -36.40027890244066
4.831572060103744 -29.350747337181286 -36.74122450329391
4.851869942465606 -29.27943615865525 -37.09070609319309
4.869697332630351 -29.208105119263227 -37.446803928462735
4.887462110755324 -29.135146545265577 -37.810655359920986
4.904027792487659 -29.06058742654304 -38.182385124366775
4.918236892928981 -28.984463740376878 -38.56211001857173
4.929174716694056 -28.906816077000983 -38.949910202013314
4.936439712573028 -28.827682102027815 -39.345802738889795
4.9402945130266085 -28.74708729218875 -39.74973130070317
4.941596443983992 -28.665037359966025 -40.161581480802546
4.942906561817988 -28.831314193156903 -40.410394046216176
4.944551680045356 -29.24283039527409 -40.491560853553054
4.943648509141947 -29.646928806380945 -40.57130174102193
4.93951296586952 -30.043561502467742 -40.649888648205675
4.932948940284651 -30.432568059091217 -40.72717061033453
4.920658865816653 -30.81473803994732 -40.80314496782476
4.905915139283032 -31.189532112209417 -40.87774564770797
4.889931521304671 -31.556864042067645 -40.95088391564108
4.8738777178343895 -31.91663801773618 -41.02248144128663
4.8586737272605145 -32.268770076348375 -41.0924810715643
4.844919589547028 -32.6131983924562 -41.16084915356851
4.832922864941602 -32.94988434915442 -41.22757228614922
4.822771693382143 -33.278808483668264 -41.292651750141765
4.814413823470012 -33.59996485413379 -41.356097918590734
4.800610317143101 -33.915315661886375 -41.41724990176973
4.793587864653542 -34.220982782076824 -41.477685368204384
4.7876955198183975 -34.519148083894834 -41.53630807584267
4.782844061722863 -34.80979986433766 -41.59314696768293
4.778969680285938 -35.092925011854824 -41.64822861857809
4.776031569897046 -35.36850893212163 -41.701577474712586
4.775244887179271 -35.63633213084315 -41.75316329226549
4.774009538185495 -35.89553072865589 -41.804420952442165
4.77395468905871 -36.14718511227172 -41.85391162614547
4.775067768443969 -36.391281353845216 -41.901654463857426
4.777360971410486 -36.627803707743546 -41.94766698393326
4.78086938054884 -36.85673467985083 -41.99196530756596
4.785648388178095 -37.078055163684226 -42.03456440596232
4.791769867100721 -37.29174468964778 -42.07547837427446
4.797694342778372 -37.49528912845186 -42.11753646776663
4.807827500280551 -37.69321022589525 -42.155475700685564
4.8218967395399925 -37.88320836022499 -42.191634648872814
4.835140659838279 -38.06544829122222 -42.2265535041874
4.850315670684533 -38.23988146024325 -42.25989870280447
4.8674130481857585 -38.406503730256006 -42.2916763752638
4.886362388978822 -38.565316115913106 -42.321895032283976
4.907026502828184 -38.716325444978835 -42.35056551982414
4.929201665008178 -38.859544573694194 -42.37770076519034
4.952623405451424 -38.99499211653483 -42.403315332257094
4.976977195903714 -39.12269172216712 -42.427424832101856
5.001912737049488 -39.24267098890237 -42.450045254446046
5.0270601620616535 -39.35496015325197 -42.471192292199575
5.052046398731273 -39.459590699535184 -42.49088072623266
5.076510132972481 -39.5565940285629 -42.509123922996295
5.1001142068959355 -39.64600029546916 -42.52593347786124
5.122554761870037 -39.727837489146204 -42.5413190163056
5.1435669072823265 -39.80213078647147 -42.5552881467502
5.162927091269658 -39.86890217981312 -42.56784654507166
5.180452634334552 -39.928170349818735 -42.578998142340616
5.1959990529451066 -39.97995073848498 -42.58874538389682
5.209455861057942 -40.02425576939252 -42.59708952841581
5.248198012034845 -30.856332217762407 -28.932916378147358
5.234040598858213 -30.847543179462807 -28.980584433447795
5.217750228490962 -30.83728676287753 -29.03621399875209
5.199464387167935 -30.825567335790204 -29.099775629668873
5.179353477967574 -30.812389238248937 -29.171234187326057
5.157623692926547 -30.797756471652878 -29.250548714148383
5.134518744757783 -30.781672335360067 -29.337672563091672
5.110320013708887 -30.764139018961952 -29.43255384576939
5.082768215079501 -30.746213763074323 -29.53417524530906
5.056508358229679 -30.725913696571258 -29.644280314190365
5.029318803678997 -30.703100452906757 -29.763252070227477
5.002974441063473 -30.68006464962014 -29.88835382794366
4.976970400401899 -30.655610090454694 -30.020927369853233
4.951613071791048 -30.62973032874219 -30.160927626481904
4.927183350760725 -30.602416340581843 -30.30831687807574
4.903927021232401 -30.573656758994215 -30.46306610277443
4.8820474419650655 -30.54343827106849 -30.625155744666017
4.861701294121255 -30.51174614888731 -30.794575809034605
4.842997764540361 -30.478564866089283 -30.971325279116503
4.82600107666053 -30.44387873931673 -31.155410941737333
4.805237405686848 -30.408279006292986 -31.347163127488624
4.794310055580963 -30.3703489646313 -31.5457069389773
4.784219253077696 -30.3309437766322 -31.75171394782163
4.7750433401334735 -30.29004874514314 -31.965187638211688
4.766838287444273 -30.247649120672744 -32.18613527462868
4.759643652059744 -30.203730522061836 -32.41456649407607
4.753489544169047 -30.15827919891098 -32.65049190476045
4.748403895072143 -30.111282120157295 -32.8939218169416
4.7444193976723215 -30.062726892410552 -33.144865197247746
4.742034540459182 -30.013176740805633 -33.40204838982954
4.7435689830552725 -29.961140183990114 -33.66789329155053
4.746704692629463 -29.906009769301004 -33.94291634969347
4.74945346591322 -29.850834286724236 -34.223844717731275
4.753682513429144 -29.79404349328912 -34.512278791501274
4.75947380533684 -29.73563163621586 -34.80821375937005
4.766925849182312 -29.675592158393446 -35.11164382832502
4.776142982529515 -29.613917909456912 -35.42256384900236
4.787216441914733 -29.55060164514139 -35.740971711876234
4.80019448056531 -29.485636874008925 -36.06687170044279
4.815039422599599 -29.41901908452694 -36.40027890244066
4.831572060103744 -29.350747337181286 -36.74122450329391
4.851869942465606 -29.27943615865525 -37.09070609319309
4.869697332630351 -29.208105119263227 -37.446803928462735
4.887462110755324 -29.135146545265577 -37.810655359920986
4.904027792487659 -29.06058742654304 -38.182385124366775
4.918236892928981 -28.984463740376878 -38.56211001857173
4.929174716694056 -28.906816077000983 -38.949910202013314
4.936439712573028 -28.827682102027815 -39.345802738889795
4.9402945130266085 -28.74708729218875 -39.74973130070317
4.941596443983992 -28.665037359966025 -40.161581480802546
4.942906561817988 -28.831314193156903 -40.410394046216176
4.944551680045356 -29.24283039527409 -40.491560853553054
4.943648509141947 -29.646928806380945 -40.57130174102193
4.93951296586952 -30.043561502467742 -40.649888648205675
4.932948940284651 -30.432568059091217 -40.72717061033453
4.920658865816653 -30.81473803994732 -40.80314496782476
4.905915139283032 -31.189532112209417 -40.87774564770797
4.889931521304671 -31.556864042067645 -40.95088391564108
4.8738777178343895 -31.91663801773618 -41.02248144128663
4.8586737272605145 -32.268770076348375 -41.0924810715643
4.844919589547028 -32.6131983924562 -41.16084915356851
4.832922864941602 -32.94988434915442 -41.22757228614922
4.822771693382143 -33.278808483668264 -41.292651750141765
4.814413823470012 -33.59996485413379 -41.356097918590734
4.800610317143101 -33.915315661886375 -41.41724990176973
4.793587864653542 -34.220982782076824 -41.477685368204384
4.7876955198183975 -34.519148083894834 -41.53630807584267
4.782844061722863 -34.80979986433766 -41.59314696768293
4.778969680285938 -35.092925011854824 -41.64822861857809
4.776031569897046 -35.36850893212163 -41.701577474712586
4.775244887179271 -35.63633213084315 -41.75316329226549
4.774009538185495 -35.89553072865589 -41.804420952442165
4.77395468905871 -36.14718511227172 -41.85391162614547
4.775067768443969 -36.391281353845216 -41.901654463857426
4.777360971410486 -36.627803707743546 -41.94766698393326
4.78086938054884 -36.85673467985083 -41.99196530756596
4.785648388178095 -37.078055163684226 -42.03456440596232
4.791769867100721 -37.29174468964778 -42.07547837427446
4.797694342778372 -37.49528912845186 -42.11753646776663
4.807827500280551 -37.69321022589525 -42.155475700685564
4.8218967395399925 -37.88320836022499 -42.191634648872814
4.835140659838279 -38.06544829122222 -42.2265535041874
4.850315670684533 -38.23988146024325 -42.25989870280447
4.8674130481857585 -38.406503730256006 -42.2916763752638
4.886362388978822 -38.565316115913106 -42.321895032283976
4.907026502828184 -38.716325444978835 -42.35056551982414
4.929201665008178 -38.859544573694194 -42.37770076519034
4.952623405451424 -38.99499211653483 -42.403315332257094
4.976977195903714 -39.12269172216712 -42.427424832101856
5.001912737049488 -39.24267098890237 -42.450045254446046
5.0270601620616535 -39.35496015325197 -42.471192292199575
5.052046398731273 -39.459590699535184 -42.49088072623266
5.076510132972481 -39.5565940285629 -42.509123922996295
5.1001142068959355 -39.64600029546916 -42.52593347786124
5.122554761870037 -39.727837489146204 -42.5413190163056
5.1435669072823265 -39.80213078647147 -42.5552881467502
5.162927091269658 -39.86890217981312 -42.56784654507166
5.180452634334552 -39.928170349818735 -42.578998142340616
5.1959990529451066 -39.97995073848498 -42.58874538389682
5.209455861057942 -40.02425576939252 -42.59708952841581

VECTORS L float
0.05884528414605873 0.0 0.0
0.10640304329310683 0.0 0.0
0.15798895875033522 0.0 0.0
0.21533838022109167 0.0 0.0
0.2789459452535247 0.0 0.0
0.34897087053171233 0.0 0.0
0.4254323221270513 0.0 0.0
0.5082681820284364 0.0 0.0
0.597351207431661 0.0 0.0
0.6925246915146928 0.0 0.0
0.7935677932826376 0.0 0.0
0.9002258486925584 0.0 0.0
1.0122054159954055 0.0 0.0
1.129170442421289 0.0 0.0
1.2507600173036635 0.0 0.0
1.3765970650636832 0.0 0.0
1.5062985046738842 0.0 0.0
1.6394850484502486 0.0 0.0
1.7757861034801443 0.0 0.0
1.9148595159941324 0.0 0.0
2.056324411052082 0.0 0.0
2.200059722180515 0.0 0.0
2.3457004164616495 0.0 0.0
2.49297910595389 0.0 0.0
2.641660227990772 0.0 0.0
2.7915400954285534 0.0 0.0
2.942432190468791 0.0 0.0
3.0941796420621657 0.0 0.0
3.2466446151534902 0.0 0.0
3.3997165097371065 0.0 0.0
3.5533149331578735 0.0 0.0
3.7072182310966766 0.0 0.0
3.8611606044590734 0.0 0.0
4.01496636910383 0.0 0.0
4.168406733886666 0.0 0.0
4.32118211079667 0.0 0.0
4.4729125628028985 0.0 0.0
4.623112067894443 0.0 0.0
4.77134840715872 0.0 0.0
4.91641491430216 0.0 0.0
5.057526384341051 0.0 0.0
5.19356346212398 0.0 0.0
5.322778429839268 0.0 0.0
5.443680121620123 0.0 0.0
5.554616503983214 0.0 0.0
5.654139793629339 0.0 0.0
5.741577387418939 0.0 0.0
5.818106667952852 0.0 0.0
5.8893193944579165 0.0 0.0
5.980092599746452 0.0 0.0
6.237590425769134 0.0 0.0
6.26648349672325 0.0 0.0
6.312087036529615 0.0 0.0
6.349030536796173 0.0 0.0
6.370922315169121 0.0 0.0
6.375450111402756 0.0 0.0
6.3626906768183975 0.0 0.0
6.333531598595707 0.0 0.0
6.289373430468397 0.0 0.0
6.23150683043241 0.0 0.0
6.161230104543229 0.0 0.0
6.079620056657101 0.0 0.0
5.9875917437210395 0.0 0.0
5.885856123725779 0.0 0.0
5.774746729747847 0.0 0.0
5.655590704023538 0.0 0.0
5.528618335032743 0.0 0.0
5.394200060130272 0.0 0.0
5.252693305429556 0.0 0.0
5.10444175084282 0.0 0.0
4.949813357843145 0.0 0.0
4.789041389325308 0.0 0.0
4.622461823715862 0.0 0.0
4.450417400829058 0.0 0.0
4.273279733708297 0.0 0.0
4.091465864146172 0.0 0.0
3.905411369504185 0.0 0.0
3.715602888144857 0.0 0.0
3.522561602046446 0.0 0.0
3.3270000027870528 0.0 0.0
3.1295431553817976 0.0 0.0
2.9307845943986583 0.0 0.0
2.7315475215085345 0.0 0.0
2.532677554329026 0.0 0.0
2.3350689931290667 0.0 0.0
2.1396582406295748 0.0 0.0
1.9474098657953174 0.0 0.0
1.7592981283350797 0.0 0.0
1.5762864603024611 0.0 0.0
1.3993075199353178 0.0 0.0
1.2292456384528094 0.0 0.0
1.0669224050785895 0.0 0.0
0.913084662571634 0.0 0.0
0.7683933198855984 0.0 0.0
0.6334099512388647 0.0 0.0
0.5085750542137817 0.0 0.0
0.39416263331661255 0.0 0.0
0.29016398365198465 0.0 0.0
0.19591582291831314 0.0 0.0
0.10838974883287611 0.0 0.0
0.05884528414605873 0.0 0.0
0.10640304329310683 0.0 0.0
0.15798895875033522 0.0 0.0
0.21533838022109167 0.0 0.0
0.2789459452535247 0.0 0.0
0.34897087053171233 0.0 0.0
0.4254323221270513 0.0 0.0
0.5082681820284364 0.0 0.0
0.597351207431661 0.0 0.0
0.6925246915146928 0.0 0.0
0.7935677932826376 0.0 0.0
0.9002258486925584 0.0 0.0
1.0122054159954055 0.0 0.0
1.129170442421289 0.0 0.0
1.2507600173036635 0.0 0.0
1.3765970650636832 0.0 0.0
1.5062985046738842 0.0 0.0
1.6394850484502486 0.0 0.0
1.7757861034801443 0.0 0.0
1.9148595159941324 0.0 0.0
2.056324411052082 0.0 0.0
2.200059722180515 0.0 0.0
2.3457004164616495 0.0 0.0
2.49297910595389 0.0 0.0
2.641660227990772 0.0 0.0
2.7915400954285534 0.0 0.0
2.942432190468791 0.0 0.0
3.0941796420621657 0.0 0.0
3.2466446151534902 0.0 0.0
3.3997165097371065 0.0 0.0
3.5533149331578735 0.0 0.0
3.7072182310966766 0.0 0.0
3.8611606044590734 0.0 0.0
4.01496636910383 0.0 0.0
4.168406733886666 0.0 0.0
4.32118211079667 0.0 0.0
4.4729125628028985 0.0 0.0
4.623112067894443 0.0 0.0
4.77134840715872 0.0 0.0
4.91641491430216 0.0 0.0
5.057526384341051 0.0 0.0
5.19356346212398 0.0 0.0
5.322778429839268 0.0 0.0
5.443680121620123 0.0 0.0
5.554616503983214 0.0 0.0
5.654139793629339 0.0 0.0
5.741577387418939 0.0 0.0
5.818106667952852 0.0 0.0
5.8893193944579165 0.0 0.0
5.980092599746452 0.0 0.0
6.237590425769134 0.0 0.0
6.26648349672325 0.0 0.0
6.312087036529615 0.0 0.0
6.349030536796173 0.0 0.0
6.370922315169121 0.0 0.0
6.375450111402756 0.0 0.0
6.3626906768183975 0.0 0.0
6.333531598595707 0.0 0.0
6.289373430468397 0.0 0.0
6.23150683043241 0.0 0.0
6.161230104543229 0.0 0.0
6.079620056657101 0.0 0.0
5.9875917437210395 0.0 0.0
5.885856123725779 0.0 0.0
5.774746729747847 0.0 0.0
5.655590704023538 0.0 0.0
5.528618335032743 0.0 0.0
5.394200060130272 0.0 0.0
5.252693305429556 0.0 0.0
5.10444175084282 0.0 0.0
4.949813357843145 0.0 0.0
4.789041389325308 0.0 0.0
4.622461823715862 0.0 0.0
4.450417400829058 0.0 0.0
4.273279733708297 0.0 0.0
4.091465864146172 0.0 0.0
3.905411369504185 0.0 0.0
3.715602888144857 0.0 0.0
3.522561602046446 0.0 0.0
3.3270000027870528 0.0 0.0
3.1295431553817976 0.0 0.0
2.9307845943986583 0.0 0.0
2.7315475215085345 0.0 0.0
2.532677554329026 0.0 0.0
2.3350689931290667 0.0 0.0
2.1396582406295748 0.0 0.0
1.9474098657953174 0.0 0.0
1.7592981283350797 0.0 0.0
1.5762864603024611 0.0 0.0
1.3993075199353178 0.0 0.0
1.2292456384528094 0.0 0.0
1.0669224050785895 0.0 0.0
0.913084662571634 0.0 0.0
0.7683933198855984 0.0 0.0
0.6334099512388647 0.0 0.0
0.5085750542137817 0.0 0.0
0.39416263331661255 0.0 0.0
0.29016398365198465 0.0 0.0
0.19591582291831314 0.0 0.0
0.10838974883287611 0.0 0.0

SCALARS Gamma float
LOOKUP_TABLE default
0.42537916951138016
0.6538216897073503
0.8407896677882256
1.0090244317942996
1.1661654286902068
1.3155672264683538
1.4588792526691197
1.596930182742717
1.7300905825392345
1.858530272339851
1.982206392872126
2.101002954811162
2.2147465799007424
2.323220418570713
2.4262142588412257
2.523542920149678
2.615061268946378
2.7006737670723644
2.7803336086518606
2.8540616214536714
2.9218459543740867
2.9840337383876046
3.0406282385552363
3.0917701278298635
3.1376351529259603
3.1784270312936638
3.2143563329183946
3.245651341119937
3.2725437705841904
3.2952748917249277
3.314093907316732
3.3291063201947426
3.340381854583539
3.348069099974255
3.352268981799542
3.353028778552266
3.3503438438044246
3.344148047873281
3.3343040318653103
3.3205891968987427
3.3026913600331436
3.2802803242605494
3.2527090691809364
3.219580384407929
3.180476788850908
3.135161971397304
3.0838428941486393
3.0275959034292987
2.96919205718476
2.9157919642537022
2.9099294207603554
2.9510646420173456
2.9967097384887182
3.040067671706451
3.0785828305626692
3.1111675563715973
3.137751913015964
3.158637117347486
3.1742944480642934
3.1852205692642017
3.1918892073988645
3.1946668405534995
3.1938390654693993
3.1895843591510156
3.1818736186045564
3.1712113124541816
3.157511908424244
3.140749635684337
3.1208789073263423
3.0978311899440456
3.0715347317564143
3.0418241457618205
3.008569914759328
2.9716243772023274
2.9308338253509216
2.8860490787625435
2.8371068980273617
2.783851597594935
2.726123927437651
2.6638838145532784
2.5970053506432387
2.525306989475565
2.448771271181598
2.367391309871165
2.281198146518989
2.190264451274153
2.0947017329304956
1.9946517967380166
1.890273017743483
1.7817223524610357
1.669133383705097
1.5525892730721833
1.432086471588835
1.3074806870216262
1.178397449606192
1.044068291273605
0.9029953464290925
0.7521592525526762
0.5847129100867761
0.3803136200841117
0.42537916951138016
0.6538216897073503
0.8407896677882256
1.0090244317942996
1.1661654286902068
1.3155672264683538
1.4588792526691197
1.596930182742717
1.7300905825392345
1.858530272339851
1.982206392872126
2.101002954811162
2.2147465799007424
2.323220418570713
2.4262142588412257
2.523542920149678
2.615061268946378
2.7006737670723644
2.7803336086518606
2.8540616214536714
2.9218459543740867
2.9840337383876046
3.0406282385552363
3.0917701278298635
3.1376351529259603
3.1784270312936638
3.2143563329183946
3.245651341119937
3.2725437705841904
3.2952748917249277
3.314093907316732
3.3291063201947426
3.340381854583539
3.348069099974255
3.352268981799542
3.353028778552266
3.3503438438044246
3.344148047873281
3.3343040318653103
3.3205891968987427
3.3026913600331436
3.2802803242605494
3.2527090691809364
3.219580384407929
3.180476788850908
3.135161971397304
3.0838428941486393
3.0275959034292987
2.96919205718476
2.9157919642537022
2.9099294207603554
2.9510646420173456
2.9967097384887182
3.040067671706451
3.0785828305626692
3.1111675563715973
3.137751913015964
3.158637117347486
3.1742944480642934
3.1852205692642017
3.1918892073988645
3.1946668405534995
3.1938390654693993
3.1895843591510156
3.1818736186045564
3.1712113124541816
3.157511908424244
3.140749635684337
3.1208789073263423
3.0978311899440456
3.0715347317564143
3.0418241457618205