# vtk DataFile Version 4.0
[MyVLM domain - lattices] 
ASCII
DATASET UNSTRUCTURED_GRID
POINTS 302 float
0.034182456231286275 -1.07994108692278 -6.384219955281237
0.034058156390445245 -1.0754173397600235 -6.388745409826691
0.03391102596659258 -1.0700627002612504 -6.394102070309065
0.0337410649597283 -1.063877168426461 -6.40028993672836
0.0335482733698524 -1.0568607442556552 -6.407309009084574
0.03333265119696487 -1.0490134277488328 -6.415159287377708
0.03309419844106574 -1.040335218905994 -6.423840771607763
0.032832915102154976 -1.0308261177271385 -6.433353461774738
0.0325488011802326 -1.0204861242122667 -6.443697357878633
0.032241856675298594 -1.0093152383613786 -6.454872459919448
0.031912081587352974 -0.9973134601744736 -6.466878767897183
0.031559475916395734 -0.9844807896515523 -6.479716281811839
0.03118403966242688 -0.9708172267926146 -6.493385001663413
0.030785772825446405 -0.9563227715976604 -6.507884927451909
0.030364675405454303 -0.9409974240666897 -6.523216059177326
0.029920747402450588 -0.9248411841997026 -6.539378396839661
0.029453988816435253 -0.9078540519966989 -6.556371940438917
0.02896439964740829 -0.8900360274576784 -6.574196689975093
0.02845197989536971 -0.8713871105826418 -6.592852645448188
0.027916729560319514 -0.8519073013715887 -6.612339806858205
0.027358648642257698 -0.831596599824519 -6.632658174205142
0.026777737141184265 -0.8104550059414327 -6.653807747488998
0.02617399505709921 -0.7884825197223302 -6.675788526709775
0.025547422390002524 -0.765679141167211 -6.698600511867472
0.024898019139894235 -0.7420448702760756 -6.722243702962088
0.02422578530677432 -0.7175797070489235 -6.746718099993625
0.023530720890642783 -0.692283651485755 -6.772023702962082
0.02281282589149963 -0.6661567035865698 -6.79816051186746
0.022072100309344856 -0.6391988633513683 -6.825128526709757
0.021308544144178456 -0.6114101307801503 -6.852927747488974
0.020522157396000443 -0.5827905058729157 -6.8815581742051135
0.019712940064810808 -0.5533399886296647 -6.91101980685817
0.018880892150609556 -0.5230585790503972 -6.941312645448147
0.01802601365339668 -0.4919462771351133 -6.972436689975045
0.017148304573172186 -0.46000308288381275 -7.004391940438865
0.016247764909936072 -0.4272289962964959 -7.037178396839604
0.01532439466368834 -0.3936240173731623 -7.070796059177262
0.014378193834428987 -0.35918814611381256 -7.10524492745184
0.013409162422158016 -0.32392138251844615 -7.140525001663339
0.012417300426875427 -0.28782372658706334 -7.176636281811756
0.011402607848581214 -0.250895178319664 -7.213578767897096
0.01036508468727538 -0.21313573771624816 -7.251352459919355
0.00930473094295793 -0.17454540477681585 -7.289957357878534
0.008221546615628853 -0.1351241795013668 -7.329393461774634
0.0071155317052881625 -0.09487206188990155 -7.369660771607653
0.005986686211935849 -0.053789051942419674 -7.410759287377593
0.004835010135571916 -0.011875149658921363 -7.452689009084452
0.0036605034761963647 0.030869644960593415 -7.4954499367282335
0.0024631662338092004 0.07444533191612447 -7.539042070308932
0.0012429984084104098 0.11885191120767222 -7.583465409826553
0.0 0.16408938283523644 -7.628719955281093
0.0012429984084104146 0.11885191120768251 -7.673974500735644
0.002463166233809209 0.0744453319161449 -7.718397840253274
0.0036605034761963847 0.030869644960623555 -7.761989973833984
0.00483501013557194 -0.011875149658881479 -7.804750901477774
0.005986686211935874 -0.05378905194237019 -7.846680623184643
0.007115531705288188 -0.09487206188984265 -7.887779138954592
0.008221546615628883 -0.13512417950129874 -7.92804644878762
0.009304730942957957 -0.17454540477673858 -7.9674825526837285
0.010365084687275414 -0.21313573771616215 -8.006087450642918
0.01140260784858125 -0.25089517831956937 -8.043861142665184
0.012417300426875466 -0.28782372658696037 -8.080803628750532
0.01340916242215806 -0.32392138251833497 -8.11691490889896
0.014378193834429035 -0.3591881461136933 -8.152194983110466
0.015324394663688394 -0.39362401737303543 -8.186643851385053
0.016247764909936128 -0.42722899629636113 -8.220261513722718
0.017148304573172245 -0.46000308288367053 -8.253047970123465
0.018026013653396743 -0.49194627713496386 -8.28500322058729
0.018880892150609622 -0.5230585790502408 -8.316127265114195
0.01971294006481088 -0.5533399886295014 -8.34642010370418
0.020522157396000516 -0.5827905058727457 -8.375881736357245
0.021308544144178532 -0.6114101307799735 -8.40451216307339
0.022072100309344932 -0.6391988633511854 -8.432311383852614
0.022812825891499702 -0.6661567035863805 -8.459279398694918
0.023530720890642863 -0.6922836514855597 -8.4854162076003
0.0242257853067744 -0.7175797070487224 -8.510721810568763
0.02489801913989432 -0.7420448702758691 -8.535196207600306
0.02554742239000262 -0.7656791411669993 -8.558839398694928
0.0261739950570993 -0.7884825197221133 -8.58165138385263
0.026777737141184355 -0.8104550059412108 -8.603632163073412
0.0273586486422578 -0.8315965998242921 -8.624781736357274
0.02791672956031961 -0.8519073013713574 -8.645100103704214
0.028451979895369805 -0.871387110582406 -8.664587265114235
0.028964399647408386 -0.890036027457438 -8.683243220587336
0.029453988816435347 -0.9078540519964542 -8.701067970123516
0.029920747402450692 -0.9248411841994544 -8.718061513722777
0.03036467540545441 -0.9409974240664379 -8.734223851385115
0.030785772825446502 -0.9563227715974049 -8.749554983110535
0.031184039662426992 -0.970817226792356 -8.764054908899034
0.031559475916395845 -0.9844807896512907 -8.777723628750612
0.03191208158735309 -0.9973134601742092 -8.79056114266527
0.032241856675298705 -1.0093152383611113 -8.802567450643009
0.03254880118023271 -1.0204861242119967 -8.813742552683825
0.03283291510215509 -1.0308261177268663 -8.824086448787723
0.03309419844106585 -1.0403352189057196 -8.8335991389547
0.033332651196964984 -1.049013427748556 -8.842280623184756
0.033548273369852506 -1.0568607442553768 -8.850130901477893
0.03374106495972841 -1.0638771684261812 -8.857149973834108
0.033911025966592685 -1.0700627002609693 -8.863337840253404
0.034058156390445356 -1.075417339759741 -8.86869450073578
0.0341824562312864 -1.0799410869224966 -8.873219955281236
0.04785543872380081 -1.5775532748259296 -6.384219955281295
0.04773113888295978 -1.5730295276631732 -6.388745409826749
0.047584008459107124 -1.5676748881644005 -6.394102070309122
0.047414047452242834 -1.561489356329611 -6.400289936728417
0.04722125586236694 -1.5544729321588049 -6.407309009084631
0.047005633689479416 -1.5466256156519824 -6.415159287377766
0.046767180933580274 -1.537947406809144 -6.4238407716078205
0.04650589759466951 -1.5284383056302886 -6.433353461774796
0.04622178367274714 -1.5180983121154168 -6.4436973578786905
0.04591483916781314 -1.5069274262645282 -6.454872459919505
0.04558506407986752 -1.4949256480776234 -6.46687876789724
0.045232458408910284 -1.4820929775547023 -6.479716281811895
0.04485702215494142 -1.4684294146957644 -6.493385001663471
0.04445875531796094 -1.4539349595008102 -6.507884927451967
0.04403765789796884 -1.4386096119698397 -6.523216059177383
0.04359372989496513 -1.4224533721028525 -6.539378396839717
0.04312697130894979 -1.4054662398998485 -6.556371940438973
0.042637382139922825 -1.3876482153608283 -6.57419668997515
0.042124962387884254 -1.3689992984857917 -6.592852645448246
0.04158971205283406 -1.3495194892747384 -6.612339806858262
0.04103163113477224 -1.3292087877276688 -6.632658174205198
0.0404507196336988 -1.3080671938445825 -6.653807747489056
0.03984697754961374 -1.2860947076254803 -6.675788526709831
0.03922040488251707 -1.263291329070361 -6.698600511867529
0.03857100163240877 -1.2396570581792257 -6.722243702962146
0.03789876779928886 -1.2151918949520732 -6.746718099993683
0.03720370338315732 -1.189895839388905 -6.77202370296214
0.03648580838401416 -1.1637688914897195 -6.7981605118675175
0.035745082801859396 -1.1368110512545182 -6.825128526709815
0.034981526636693 -1.1090223186833001 -6.8529277474890335
0.03419513988851498 -1.0804026937760653 -6.881558174205171
0.03338592255732535 -1.0509521765328147 -6.911019806858228
0.032553874643124085 -1.0206707669535473 -6.941312645448207
0.03169899614591123 -0.9895584650382635 -6.972436689975103
0.030821287065686723 -0.9576152707869626 -7.004391940438922
0.029920747402450616 -0.9248411841996457 -7.0371783968396615
0.02899737715620288 -0.8912362052763125 -7.070796059177318
0.028051176326943518 -0.8568003340169622 -7.105244927451897
0.027082144914672552 -0.8215335704215961 -7.140525001663396
0.026090282919389966 -0.7854359144902133 -7.176636281811814
0.02507559034109575 -0.748507366222814 -7.213578767897154
0.02403806717978992 -0.710747925619398 -7.251352459919413
0.022977713435472467 -0.6721575926799657 -7.289957357878592
0.021894529108143393 -0.6327363674045168 -7.32939346177469
0.0207885141978027 -0.5924842497930515 -7.369660771607711
0.01965966870445039 -0.5514012398455697 -7.410759287377651
0.01850799262808646 -0.5094873375620713 -7.4526890090845095
0.017333485968710902 -0.46674254294255657 -7.49544993672829
0.01613614872632374 -0.4231668559870254 -7.539042070308989
0.01491598090092495 -0.3787602766954776 -7.58346540982661
0.013672982492514538 -0.3335228050679135 -7.62871995528115
0.014915980900924952 -0.3787602766954674 -7.673974500735702
0.016136148726323747 -0.42316685598700493 -7.718397840253331
0.017333485968710923 -0.46674254294252643 -7.761989973834042
0.018507992628086476 -0.5094873375620314 -7.804750901477831
0.019659668704450413 -0.55140123984552 -7.8466806231847
0.020788514197802727 -0.5924842497929924 -7.887779138954649
0.02189452910814342 -0.6327363674044487 -7.928046448787677
0.0229777134354725 -0.6721575926798885 -7.967482552683786
0.024038067179789954 -0.710747925619312 -8.006087450642974
0.025075590341095792 -0.7485073662227194 -8.043861142665243
0.026090282919390004 -0.7854359144901102 -8.080803628750589
0.0270821449146726 -0.8215335704214849 -8.116914908899016
0.02805117632694357 -0.8568003340168431 -8.152194983110524
0.028997377156202934 -0.8912362052761855 -8.18664385138511
[...]
CELL_DATA 200

VECTORS Vinf float
5.171838202740627 -40.97172903476229 10.48185329361306
5.157948033466817 -41.007108001622704 10.448851481723512
5.141916163695949 -41.048394498820805 10.410366344292342
5.123855284511333 -41.0955652220813 10.366430522477899
5.103907640840059 -41.148591884470356 10.317081620650105
5.082248035522244 -41.20744091933757 10.262362028053246
5.059085730202201 -41.27207336321185 10.202318563153911
5.036115862959799 -41.34233418322366 10.136983725878475
5.01103867225308 -41.41848185188938 10.066081222976962
4.985343864856414 -41.5003022314098 9.989876038568298
4.959343218519831 -41.587749474070066 9.90839807550061
4.933355461610926 -41.68077776078317 9.821674478132811
4.907695999910671 -41.77934287027301 9.729728363484114
4.881670750776502 -41.883695635654064 9.631837386336278
4.858902652611243 -41.99285944372758 9.530168873839802
4.836745530213195 -42.10756355183368 9.423145521207031
4.81544906876899 -42.227783777876645 9.310744899293464
4.793804433472417 -42.35397361261815 9.19206884780016
4.775284162353081 -42.4850982025786 9.068944132900706
4.758436198857417 -42.62159996505062 8.940592949140662
4.74328516979308 -42.76348146800392 8.806995118835733
4.730904246320644 -42.91092336519724 8.666901066539761
4.719794679261635 -43.063459703179426 8.522836102391999
4.709564197119141 -43.221445253618086 8.373654022743313
4.6997704777626925 -43.384422243866254 8.221599845460991
4.692730445790344 -43.553479281010524 8.06084850796315
4.686888109357466 -43.72797442904951 7.894876998251227
4.682373659444036 -43.90789278339057 7.723682966747627
4.679303285932194 -44.093221269838615 7.547262991091972
4.677787374746493 -44.28394744363817 7.365613589263903
4.677938647192822 -44.480058373374966 7.178731953175043
4.679878906737396 -44.681539782998875 6.986616332725703
4.6794339325291885 -44.88920976490559 6.787624869148108
4.684281541062732 -45.101693740673554 6.584270535381368
4.691610810644292 -45.319449671301165 6.37597817385876
4.698620699869134 -45.54295489297058 6.161804543981297
4.707502557602429 -45.77186688879019 5.942234309500772
4.718356544224049 -46.006179877105666 5.717249306865912
4.731228133912226 -46.24589547265013 5.486828601367981
4.746070688202022 -46.491026659636624 5.250947450048555
4.7616769508589005 -46.741718850719586 5.0095639480707135
4.779386364185972 -46.99780043117085 4.762791192821414
4.797605052089872 -47.260014302574255 4.509957672436505
4.8148982281833455 -47.52738197808138 4.252392072949532
4.83110376539358 -47.80051796668299 3.9891684306850745
4.845089147298362 -48.079538942581706 3.7202530137768997
4.855962786176747 -48.36453305765444 3.4456356036479954
4.863119718650945 -48.65557795879543 3.1645783600934436
4.866760292385697 -48.9526653066315 2.8785970311512687
4.868470511901747 -49.25540920478638 2.5879040369715387
4.869901829576188 -49.55477401729302 2.5935285018676355
4.871620786473892 -49.84517938057955 2.895345122025187
4.871309251076764 -50.1302516156197 3.1922566903637755
4.867570407894336 -50.41028747675017 3.483572237135182
4.860087451427217 -50.685267806713696 3.76972183608969
4.849033888445015 -50.9552653307863 4.05007748343954
4.8353694786016135 -51.2201293926714 4.325006758750633
4.820263813014253 -51.47974414210427 4.594484902114203
4.806400780364148 -51.73385076096253 4.85826295372263
4.791588754450058 -51.98263372567155 5.116785379176202
4.777552329771403 -52.22594898088507 5.369756194653539
4.763402010962572 -52.463970792076466 5.616952401305457
4.753102302112774 -52.69616757968349 5.858569161602316
4.7445255453144055 -52.92279939949023 6.094572338759561
4.737509434107342 -53.143885259039656 6.324955890475929
4.731880348787335 -53.359445407995985 6.549716110864532
4.725601718880079 -53.569438435819016 6.769874454352547
4.721362915827309 -53.77408706867824 6.983334022040078
4.717737467773973 -53.973282926921044 7.191177854195284
4.715132317986393 -54.166892253857085 7.394042643419772
4.713807170844958 -54.355041442115564 7.590905827474552
4.713423272566681 -54.53771229256976 7.782151596129915
4.714011801082015 -54.714903839052646 7.967775379842969
4.71562567191843 -54.88661331294701 8.14777145741699
4.718337724263584 -55.05283638237557 8.322132914511908
4.722238736747105 -55.213567387001035 8.49085162225455
4.726466585387236 -55.36848711010975 8.65514165419857
4.733117716477728 -55.51821492950436 8.812569507383408
4.741301788327467 -55.662431984202556 8.9643093371162
4.751100167398767 -55.80113413921988 9.110352648507334
4.762586470356948 -55.93431795836965 9.250690665709156
4.776954039908659 -56.06222498710316 9.384082592314057
4.792244523598629 -56.18432579904963 9.51300237327022
4.8094110296161485 -56.30089804371581 9.636196248767298
4.828383876163226 -56.41194964728451 9.75365984767188
4.84902785225722 -56.517493511738 9.865392416104632
4.871142435431294 -56.617547420511414 9.971397128610342
4.894467453176887 -56.71213353022841 10.071681098765175
4.9186935620274275 -56.80127750305741 10.166255090845594
4.943476269647551 -56.88500738273564 10.255132975007895
4.968451845823444 -56.96335234450123 10.338330998215872
4.993253394694794 -57.03634145262917 10.415866957829449
5.017525557324368 -57.104002542101426 10.487759364300889
5.0414664555890205 -57.16645865338857 10.55352156019612
5.063630810298434 -57.22354261375812 10.61418468871592
5.084381756705614 -57.27536613799362 10.669257550266703
5.103499682422042 -57.32194574698004 10.718754816652549
5.120805039104952 -57.363294755510424 10.762689387672005
5.136155728811635 -57.39942352378124 10.801072317248671
5.149443000285349 -57.43033981930911 10.833912839658629
5.171838202740627 -40.97172903476229 10.48185329361306
5.157948033466817 -41.007108001622704 10.448851481723512
5.141916163695949 -41.048394498820805 10.410366344292342
5.123855284511333 -41.0955652220813 10.366430522477899
5.103907640840059 -41.148591884470356 10.317081620650105
5.082248035522244 -41.20744091933757 10.262362028053246
5.059085730202201 -41.27207336321185 10.202318563153911
5.036115862959799 -41.34233418322366 10.136983725878475
5.01103867225308 -41.41848185188938 10.066081222976962
4.985343864856414 -41.5003022314098 9.989876038568298
4.959343218519831 -41.587749474070066 9.90839807550061
4.933355461610926 -41.68077776078317 9.821674478132811
4.907695999910671 -41.77934287027301 9.729728363484114
4.881670750776502 -41.883695635654064 9.631837386336278
4.858902652611243 -41.99285944372758 9.530168873839802
4.836745530213195 -42.10756355183368 9.423145521207031
4.81544906876899 -42.227783777876645 9.310744899293464
4.793804433472417 -42.35397361261815 9.19206884780016
4.775284162353081 -42.4850982025786 9.068944132900706
4.758436198857417 -42.62159996505062 8.940592949140662
4.74328516979308 -42.76348146800392 8.806995118835733
4.730904246320644 -42.91092336519724 8.666901066539761
4.719794679261635 -43.063459703179426 8.522836102391999
4.709564197119141 -43.221445253618086 8.373654022743313
4.6997704777626925 -43.384422243866254 8.221599845460991
4.692730445790344 -43.553479281010524 8.06084850796315
4.686888109357466 -43.72797442904951 7.894876998251227
4.682373659444036 -43.90789278339057 7.723682966747627
4.679303285932194 -44.093221269838615 7.547262991091972
4.677787374746493 -44.28394744363817 7.365613589263903
4.677938647192822 -44.480058373374966 7.178731953175043
4.679878906737396 -44.681539782998875 6.986616332725703
4.6794339325291885 -44.88920976490559 6.787624869148108
4.684281541062732 -45.101693740673554 6.584270535381368
4.691610810644292 -45.319449671301165 6.37597817385876
4.698620699869134 -45.54295489297058 6.161804543981297
4.707502557602429 -45.77186688879019 5.942234309500772
4.718356544224049 -46.006179877105666 5.717249306865912
4.731228133912226 -46.24589547265013 5.486828601367981
4.746070688202022 -46.491026659636624 5.250947450048555
4.7616769508589005 -46.741718850719586 5.0095639480707135
4.779386364185972 -46.99780043117085 4.762791192821414
4.797605052089872 -47.260014302574255 4.509957672436505
4.8148982281833455 -47.52738197808138 4.252392072949532
4.83110376539358 -47.80051796668299 3.9891684306850745
4.845089147298362 -48.079538942581706 3.7202530137768997
4.855962786176747 -48.36453305765444 3.4456356036479954
4.863119718650945 -48.65557795879543 3.1645783600934436
4.866760292385697 -48.9526653066315 2.8785970311512687
4.868470511901747 -49.25540920478638 2.5879040369715387
4.869901829576188 -49.55477401729302 2.5935285018676355
4.871620786473892 -49.84517938057955 2.895345122025187
4.871309251076764 -50.1302516156197 3.1922566903637755
4.867570407894336 -50.41028747675017 3.483572237135182
4.860087451427217 -50.685267806713696 3.76972183608969
4.849033888445015 -50.9552653307863 4.05007748343954
4.8353694786016135 -51.2201293926714 4.325006758750633
4.820263813014253 -51.47974414210427 4.594484902114203
4.806400780364148 -51.73385076096253 4.85826295372263
4.791588754450058 -51.98263372567155 5.116785379176202
4.777552329771403 -52.22594898088507 5.369756194653539
4.763402010962572 -52.463970792076466 5.616952401305457
4.753102302112774 -52.69616757968349 5.858569161602316
4.7445255453144055 -52.92279939949023 6.094572338759561
4.737509434107342 -53.143885259039656 6.324955890475929
4.731880348787335 -53.359445407995985 6.549716110864532
4.725601718880079 -53.569438435819016 6.769874454352547
4.721362915827309 -53.77408706867824 6.983334022040078
4.717737467773973 -53.973282926921044 7.191177854195284
4.715132317986393 -54.166892253857085 7.394042643419772
4.713807170844958 -54.355041442115564 7.590905827474552
4.713423272566681 -54.53771229256976 7.782151596129915
4.714011801082015 -54.714903839052646 7.967775379842969
4.71562567191843 -54.88661331294701 8.14777145741699
4.718337724263584 -55.05283638237557 8.322132914511908
4.722238736747105 -55.213567387001035 8.49085162225455
4.726466585387236 -55.36848711010975 8.65514165419857
4.733117716477728 -55.51821492950436 8.812569507383408
4.741301788327467 -55.662431984202556 8.9643093371162
4.751100167398767 -55.80113413921988 9.110352648507334
4.762586470356948 -55.93431795836965 9.250690665709156
4.776954039908659 -56.06222498710316 9.384082592314057
4.792244523598629 -56.18432579904963 9.51300237327022
4.8094110296161485 -56.30089804371581 9.636196248767298
4.828383876163226 -56.41194964728451 9.75365984767188
4.84902785225722 -56.517493511738 9.865392416104632
4.871142435431294 -56.617547420511414 9.971397128610342
4.894467453176887 -56.71213353022841 10.071681098765175
4.9186935620274275 -56.80127750305741 10.166255090845594
4.943476269647551 -56.88500738273564 10.255132975007895
4.968451845823444 -56.96335234450123 10.338330998215872
4.993253394694794 -57.03634145262917 10.415866957829449
5.017525557324368 -57.104002542101426 10.487759364300889
5.0414664555890205 -57.16645865338857 10.55352156019612
5.063630810298434 -57.22354261375812 10.61418468871592
5.084381756705614 -57.27536613799362 10.669257550266703
5.103499682422042 -57.32194574698004 10.718754816652549
5.120805039104952 -57.363294755510424 10.762689387672005
5.136155728811635 -57.39942352378124 10.801072317248671
5.149443000285349 -57.43033981930911 10.833912839658629

VECTORS L float
0.05773515880777015 0.0 0.0
0.10439414648011487 0.0 0.0
0.15500349656237092 0.0 0.0
0.21126632367180367 0.0 0.0
0.27366828705896956 0.0 0.0
0.3423657412573224 0.0 0.0
0.41737915026336175 0.0 0.0
0.49865142568677917 0.0 0.0
0.5860585938128481 0.0 0.0
0.6794355407278585 0.0 0.0
0.7785716173219694 0.0 0.0
0.8832120503823979 0.0 0.0
0.9930628984700514 0.0 0.0
1.1077907893796188 0.0 0.0
1.2270744896318466 0.0 0.0
1.350520873758989 0.0 0.0
1.4777440478363604 0.0 0.0
1.608358009349825 0.0 0.0
1.7420353724234952 0.0 0.0
1.878429885713109 0.0 0.0
2.017223808602784 0.0 0.0
2.158164070107161 0.0 0.0
2.300907849725179 0.0 0.0
2.445212672849121 0.0 0.0
2.5908442847556614 0.0 0.0
2.7376907783034845 0.0 0.0
2.885559497352628 0.0 0.0
3.0342691117420215 0.0 0.0
3.1836712572270143 0.0 0.0
3.333625588792272 0.0 0.0
3.483991996095137 0.0 0.0
3.634603519756372 0.0 0.0
3.7851580078469684 0.0 0.0
3.9357259909237485 0.0 0.0
4.086043767559036 0.0 0.0
4.235810842793039 0.0 0.0
4.384271560618484 0.0 0.0
4.531206568026973 0.0 0.0
4.676005911251307 0.0 0.0
4.817888649626972 0.0 0.0
4.955833322534435 0.0 0.0
5.088703619132765 0.0 0.0
5.215079438523713 0.0 0.0
5.333355840269535 0.0 0.0
5.441873623398926 0.0 0.0
5.539255998781218 0.0 0.0
5.624842671122922 0.0 0.0
5.6996159559259745 0.0 0.0
5.769269768950808 0.0 0.0
5.8579440722409695 0.0 0.0
6.108280608911875 0.0 0.0
6.136956933240786 0.0 0.0
6.181843562383644 0.0 0.0
6.218234840018148 0.0 0.0
6.2398535622039395 0.0 0.0
6.2446461588398785 0.0 0.0
6.232559792733604 0.0 0.0
6.204472613097738 0.0 0.0
6.161699327468881 0.0 0.0
6.105352864789483 0.0 0.0
6.036733999572735 0.0 0.0
5.956930692260057 0.0 0.0
5.8671309530628415 0.0 0.0
5.768015599670332 0.0 0.0
5.660197885883907 0.0 0.0
5.544147771634476 0.0 0.0
5.420243534108751 0.0 0.0
5.288999752005822 0.0 0.0
5.150734640205961 0.0 0.0
5.0058219132212605 0.0 0.0
4.85452815905609 0.0 0.0
4.697210820309463 0.0 0.0
4.5341688996409095 0.0 0.0
4.365739378718564 0.0 0.0
4.192282501743978 0.0 0.0
4.014193558577852 0.0 0.0
3.8318895809709246 0.0 0.0
3.645910762340324 0.0 0.0
3.456767862106574 0.0 0.0
3.265033961544324 0.0 0.0
3.0713559094226808 0.0 0.0
2.8764546796565176 0.0 0.0
2.6810533776522734 0.0 0.0
2.4859948425245735 0.0 0.0
2.292178240811331 0.0 0.0
2.1004712962855097 0.0 0.0
1.9118320062148757 0.0 0.0
1.7272416478905366 0.0 0.0
1.5476394311851867 0.0 0.0
1.3739412369443949 0.0 0.0
1.2070161537005724 0.0 0.0
1.047674145160648 0.0 0.0
0.8966501507028469 0.0 0.0
0.7545966105405055 0.0 0.0
0.6220610082608278 0.0 0.0
0.49948092430779595 0.0 0.0
0.38712800838624234 0.0 0.0
0.2849956842195963 0.0 0.0
0.19243407868002033 0.0 0.0
0.1064697394167934 0.0 0.0
0.05773515880777015 0.0 0.0
0.10439414648011487 0.0 0.0
0.15500349656237092 0.0 0.0
0.21126632367180367 0.0 0.0
0.27366828705896956 0.0 0.0
0.3423657412573224 0.0 0.0
0.41737915026336175 0.0 0.0
0.49865142568677917 0.0 0.0
0.5860585938128481 0.0 0.0
0.6794355407278585 0.0 0.0
0.7785716173219694 0.0 0.0
0.8832120503823979 0.0 0.0
0.9930628984700514 0.0 0.0
1.1077907893796188 0.0 0.0
1.2270744896318466 0.0 0.0
1.350520873758989 0.0 0.0
1.4777440478363604 0.0 0.0
1.608358009349825 0.0 0.0
1.7420353724234952 0.0 0.0
1.878429885713109 0.0 0.0
2.017223808602784 0.0 0.0
2.158164070107161 0.0 0.0
2.300907849725179 0.0 0.0
2.445212672849121 0.0 0.0
2.5908442847556614 0.0 0.0
2.7376907783034845 0.0 0.0
2.885559497352628 0.0 0.0
3.0342691117420215 0.0 0.0
3.1836712572270143 0.0 0.0
3.333625588792272 0.0 0.0
3.483991996095137 0.0 0.0
3.634603519756372 0.0 0.0
3.7851580078469684 0.0 0.0
3.9357259909237485 0.0 0.0
4.086043767559036 0.0 0.0
4.235810842793039 0.0 0.0
4.384271560618484 0.0 0.0
4.531206568026973 0.0 0.0
4.676005911251307 0.0 0.0
4.817888649626972 0.0 0.0
4.955833322534435 0.0 0.0
5.088703619132765 0.0 0.0
5.215079438523713 0.0 0.0
5.333355840269535 0.0 0.0
5.441873623398926 0.0 0.0
5.539255998781218 0.0 0.0
5.624842671122922 0.0 0.0
5.6996159559259745 0.0 0.0
5.769269768950808 0.0 0.0
5.8579440722409695 0.0 0.0
6.108280608911875 0.0 0.0
6.136956933240786 0.0 0.0
6.181843562383644 0.0 0.0
6.218234840018148 0.0 0.0
6.2398535622039395 0.0 0.0
6.2446461588398785 0.0 0.0
6.232559792733604 0.0 0.0
6.204472613097738 0.0 0.0
6.161699327468881 0.0 0.0
6.105352864789483 0.0 0.0
6.036733999572735 0.0 0.0
5.956930692260057 0.0 0.0
5.8671309530628415 0.0 0.0
5.768015599670332 0.0 0.0
5.660197885883907 0.0 0.0
5.544147771634476 0.0 0.0
5.420243534108751 0.0 0.0
5.288999752005822 0.0 0.0
5.150734640205961 0.0 0.0
5.0058219132212605 0.0 0.0
4.85452815905609 0.0 0.0
4.697210820309463 0.0 0.0
4.5341688996409095 0.0 0.0
4.365739378718564 0.0 0.0
4.192282501743978 0.0 0.0
4.014193558577852 0.0 0.0
3.8318895809709246 0.0 0.0
3.645910762340324 0.0 0.0
3.456767862106574 0.0 0.0
3.265033961544324 0.0 0.0
3.0713559094226808 0.0 0.0
2.8764546796565176 0.0 0.0
2.6810533776522734 0.0 0.0
2.4859948425245735 0.0 0.0
2.292178240811331 0.0 0.0
2.1004712962855097 0.0 0.0
1.9118320062148757 0.0 0.0
1.7272416478905366 0.0 0.0
1.5476394311851867 0.0 0.0
1.3739412369443949 0.0 0.0
1.2070161537005724 0.0 0.0
1.047674145160648 0.0 0.0
0.8966501507028469 0.0 0.0
0.7545966105405055 0.0 0.0
0.6220610082608278 0.0 0.0
0.49948092430779595 0.0 0.0
0.38712800838624234 0.0 0.0
0.2849956842195963 0.0 0.0
0.19243407868002033 0.0 0.0
0.1064697394167934 0.0 0.0

SCALARS Gamma float
LOOKUP_TABLE default
0.4175809407408455
0.6418335822204333
0.8253710716374086
0.9905178080155135
1.1447741997553975
1.2914335195299322
1.4321202535170423
1.5676577986168958
1.6984076833037247
1.8245039512636896
1.9459222395271152
2.062537222801874
2.174167904258585
2.280598994721709
2.381689065411123
2.4772083555402618
2.5669982544444148
2.65094734692894
2.7290705279611327
2.801371293346815
2.867911367680753
2.9288099929146845
2.9841733780544026
3.034148676741614
3.078913251980934
3.118767513063204
3.153872717256413
3.1844406483575467
3.2106842916518508
3.2328103674539355
3.251012375139909
3.2654481002427445
3.2761793215778092
3.283518234570241
3.28753123101366
3.2880920808962104
3.2852504732246923
3.2789591314462694
3.2690833623665747
3.255405570090525
3.2375963390505507
3.215312212084299
3.1880998105983105
3.1554741702610354
3.1170005917303243
3.072470279020747
3.022083893905461
2.9668881224177204
2.909601196183722
2.8572649817425284
2.851531750939201
2.8918815343936832
2.93669116434007
2.9792691850231843
3.0170927020096467
3.0491949600059014
3.0754475708041396
3.0961313763561202
3.1117287597822396
3.122620742192075
3.129283524691624
3.132091628153796
3.131477460103407
3.127614328146302
3.120635417430409
3.110597238640848
3.0974821965350716
3.0813493735886945
3.0621357259898603
3.0397789715319217
3.014186311997949
2.9852535904442674
2.9528357603827544
2.9167882304252086
2.876957125149207
2.8331859912584694
2.7853058757348252
2.733208026252161
2.6767378795715757
2.6157589878147567
2.550166244675177
2.4798925182966456
2.4048533347248027
2.3250516741759424
2.240538178701816
2.1513349731650413
2.057558102703516
1.9593705212188812
1.8569198687738353
1.7503587144041055
1.6398170870866173
1.5253786314878537
1.4070398519909453
1.2846620412770022
1.157867840968572
1.0259069432009282
0.887309185526796
0.7391087287152565
0.5745780266908047
0.3737272835459168
0.4175809407408455
0.6418335822204333
0.8253710716374086
0.9905178080155135
1.1447741997553975
1.2914335195299322
1.4321202535170423
1.5676577986168958
1.6984076833037247
1.8245039512636896
1.9459222395271152
2.062537222801874
2.174167904258585
2.280598994721709
2.381689065411123
2.4772083555402618
2.5669982544444148
2.65094734692894
2.7290705279611327
2.801371293346815
2.867911367680753
2.9288099929146845
2.9841733780544026
3.034148676741614
3.078913251980934
3.118767513063204
3.153872717256413
3.1844406483575467
3.2106842916518508
3.2328103674539355
3.251012375139909
3.2654481002427445
3.2761793215778092
3.283518234570241
3.28753123101366
3.2880920808962104
3.2852504732246923
3.2789591314462694
3.2690833623665747
3.255405570090525
3.2375963390505507
3.215312212084299
3.1880998105983105
3.1554741702610354
3.1170005917303243
3.072470279020747
3.022083893905461
2.9668881224177204
2.909601196183722
2.8572649817425284
2.851531750939201
2.8918815343936832
2.93669116434007
2.9792691850231843
3.0170927020096467
3.0491949600059014
3.0754475708041396
3.0961313763561202
3.1117287597822396
3.122620742192075
3.129283524691624
3.132091628153796
3.131477460103407
3.127614328146302
3.120635417430409
3.110597238640848
3.0974821965350716
3.0813493735886945
3.0621357259898603
3.0397789715319217
3.014186311997949
2.9852535904442674
2.9528357603827544
2.9167882304252086
2.876957125149207
2.8331859912584694
2.7853058757348252
2.733208026252161
2.6767378795715757
2.6157589878147567
2.550166244675177
2.4798925182966456
2.4048533347248027
2.3250516741759424
2.240538178701816
2.1513349731650413
2.057558102703516
1.9593705212188812