# vtk DataFile Version 4.0
 
ASCII
DATASET UNSTRUCTURED_GRID
POINTS 152 float
0.0 -0.4136027383815113 -2.283619042973555
0.0 -2.3232431187895544 -3.4487521526488627
0.0 -4.165812669408906 -4.647903213643283
0.0 -5.96910365083289 -5.832934618551989
0.0 -7.733364897166284 -7.003415374062845
0.0 -9.476730620340412 -8.127936103755578
0.0 -11.214681824295793 -9.179682922253035
0.0 -12.95114115951201 -10.151861599624246
0.0 -14.661906086758675 -11.08639216348842
0.0 -16.33718527875354 -12.000233690171942
0.0 -17.97707021488568 -12.893227732725105
0.0 -19.58175911799916 -13.765030959110742
0.0 -21.151457022326667 -14.615288239620561
0.0 -22.687821956047795 -15.441127785207133
0.0 -24.189754613995063 -16.24445364827354
0.0 -25.654847376311142 -17.02943594873801
0.0 -27.082742516543586 -17.79669428699137
0.0 -28.47402507584372 -18.54521534203501
0.0 -29.829116610884974 -19.274268956292296
0.0 -31.148017247656192 -19.983854911544142
0.0 -32.43072710878153 -20.673972995399264
0.0 -33.67724631352046 -21.344623001294195
0.0 -34.8875749777678 -21.995804728493265
0.0 -36.06171321405362 -22.62751798208863
0.0 -37.19966113154334 -23.23976257300024
0.0 -38.30141883603769 -23.83253831797587
0.0 -39.36698642997271 -24.405845039591092
0.0 -40.39636401241976 -24.959682566249295
0.0 -41.38955153056091 -25.494050989433784
0.0 -42.34654703667328 -26.00895368269957
0.0 -43.26735021772328 -26.50439118823672
0.0 -44.151961469098346 -26.980362821214104
0.0 -45.00038117064666 -27.436867923715393
0.0 -45.812609686677156 -27.873905864738976
0.0 -46.588647365959524 -28.291476040198045
0.0 -47.32849454172423 -28.68957787292051
0.0 -48.0323592806286 -29.067850980884508
0.0 -48.70090149051883 -29.425152370172103
0.0 -49.33513105952535 -29.759732863231473
0.0 -49.93557484179681 -30.070679921908958
0.0 -50.501931393569784 -30.358515662118403
0.0 -51.03435747222165 -30.62296857211777
0.0 -51.53879424840994 -30.85374824247173
0.0 -52.01510858407469 -31.051085275064636
0.0 -52.458816174092846 -31.222746714206156
0.0 -52.8668589515411 -31.374029287180495
0.0 -53.2384570990408 -31.5062836773081
0.0 -53.57434134618479 -31.618244223807515
0.0 -53.87385841329381 -31.711042440274767
0.0 -54.13572114199024 -31.78690775041738
0.0 -54.35881527576798 -31.84777010311648
-0.8152906132198464 -2.1369919477238946 0.7013786288234123
-0.840508508580286 -4.099766353430994 -0.37172364942328073
-0.8937965186637556 -6.055510150844666 -1.3748511648615975
-0.9506477078574832 -7.979809380123455 -2.3502901363508952
-1.02068187720969 -9.87216019556497 -3.298913250246879
-1.0489549773990687 -11.717095312717257 -4.2475106290754585
-0.9930987765435385 -13.503722850656175 -5.214947563987238
-0.9074282632533693 -15.222355108054902 -6.218003645888825
-0.8389431825969345 -16.89339065406199 -7.221347516613223
-0.7804380392478915 -18.526543938414104 -8.20815325564895
-0.7250391551382538 -20.123811024953774 -9.17496357900559
-0.6716005320172311 -21.68504093709985 -10.12203998579245
-0.6190912009116674 -23.209870176924483 -11.050012072889007
-0.5668551203522249 -24.69653392564983 -11.961936596084648
-0.5160737545271722 -26.146073472441252 -12.856009989639599
-0.46824322159258325 -27.560989295575123 -13.727901298135937
-0.42447592168765613 -28.941638939467094 -14.5769912364798
-0.38457409080794247 -30.287440732488513 -15.40428728948535
-0.3477110964547294 -31.598018802585887 -16.210440486646377
-0.31305686768839563 -32.87343525868166 -16.995343252153578
-0.2804728235147938 -34.113710851595776 -17.758959644532545
-0.25028172479702737 -35.31884691450691 -18.501287354650056
-0.22269967179246206 -36.48885304901754 -19.222309752042808
-0.19756508903559172 -37.62375330646509 -19.921985178572374
-0.17527331282134875 -38.72355320257499 -20.60030408072205
-0.15618952887337012 -39.78826250221934 -21.25724954523728
-0.1399679949396797 -40.81790968871185 -21.892772237571492
-0.12575834684106657 -41.81252926974722 -22.50681238864427
-0.11252036551220733 -42.772151719920636 -23.099317214908382
-0.1000861977220127 -43.69678195700765 -23.670278198526717
-0.08845640514293837 -44.58642219917449 -24.219691497522675
-0.07764813403821604 -45.441075033489156 -24.747552630963003
-0.06766754153320646 -46.26074333598574 -25.25385661741059
-0.05846867713071907 -47.045430638635565 -25.738597339311585
-0.05000632361005495 -47.795140163090366 -26.201769216601537
-0.04224556628624775 -48.509874748589944 -26.643367331572858
-0.03513713503931205 -49.189484176269744 -27.063651870931203
-0.02861025434192226 -49.833483474090976 -27.463462830888012
-0.022599563624171346 -50.440371248453474 -27.845400701440944
-0.017476911002667815 -51.00937018892049 -28.210811823759666
-0.0133557109559299 -51.54188610240624 -28.55726126884317
-0.010110762084749267 -52.03787984003593 -28.884816844531617
-0.007505342360414162 -52.490094393870294 -29.206048057286733
-0.005475063785658977 -52.89846580805716 -29.52106568189398
-0.0039854477514337135 -53.268459024220704 -29.820404161799843
-0.0029419419370200197 -53.603667465283046 -30.097839505930146
-0.0022286575278371427 -53.90466500227786 -30.352377740497555
-0.0017402354220080998 -54.169975888683304 -30.58657493345702
-0.0014049497010025483 -54.40009558193477 -30.79957292735744
-0.0011720086804935075 -54.596448798755695 -30.98890404044745
-0.0010052173229957839 -54.76026885706885 -31.1524321034229
-0.6209246706750498 -2.6808900950794663 -0.5929257821777527
-0.6503643852165156 -4.619360662628179 -1.6670474761433478
-0.6916665849454646 -6.530109364143269 -2.7070327169790938
-0.73924859440019 -8.407297159383056 -3.7229950190510195
-0.7761138204782846 -10.247232755294172 -4.72132788947318
-0.7657701577284777 -12.044233366844564 -5.711874200649588
-0.7126976399238405 -13.79300710749263 -6.703799768938183
-0.6548892921938638 -15.49503556657767 -7.694538406327351
-0.6072679581918097 -17.15736189286756 -8.67189102130586
-0.5645539478948045 -18.783165047967856 -9.630351490857583
-0.5237398826833068 -20.373173152380712 -10.568658673278744
-0.4840093998483369 -21.927243685299853 -11.48705942184696
-0.4447298704739596 -23.444811410762174 -12.38653275396858
-0.40609832807977386 -24.925674845539515 -13.267427648831678
-0.3691188660449083 -26.370723786794414 -14.128202932542269
-0.3347696787300898 -27.78068432474767 -14.967600979947076
-0.3033937546858495 -29.155500826031766 -15.785718150865227
-0.27460694522350193 -30.494940036493986 -16.58295845334031
-0.24778798655367185 -31.798937005292977 -17.35943438552954
-0.22257363420119602 -33.06752283590876 -18.115092074625224
-0.19903295561693296 -34.30070584007626 -18.849917124280157
-0.17736802372105853 -35.49849014773271 -19.56390238123326
-0.15759928531052017 -36.660888407283664 -20.25702593780343
-0.1398144006963527 -37.78791173408965 -20.929268541621518
-0.12429856563551955 -38.879565885245505 -21.580620221106766
-0.11105907142989367 -39.93586522985049 -22.211056088249162
-0.09964737816777985 -40.95683341472121 -22.82053518556096
-0.08935451713247772 -41.94249481399803 -23.409015295792628
-0.07972746121283251 -42.89286244975238 -23.97647386405483
-0.07070347607435665 -43.80793871536787 -24.522906744885557
-0.06228920219293291 -44.68772542310157 -25.04831079936348
-0.05449337833928344 -45.532224718521206 -25.552682311256284
-0.04730108199897208 -46.34143909764846 -26.03601695732761
-0.04067812527779026 -47.11537118222681 -26.498310196584548
-0.03459445871111351 -47.85402333034058 -26.939557944705218
-0.029018512997084925 -48.55736632461648 -27.35981080766465
-0.023905271017962866 -49.22527046527869 -27.759293432064286
-0.0192036817372851 -49.857199589709694 -28.138934478798806
-0.015028677985064689 -50.452491276680504 -28.49988129509278
-0.011562233234474143 -51.01140938866835 -28.841676857729478
-0.008799927390254687 -51.53444833663974 -29.16346482179507
-0.006606039166936287 -52.01963430279378 -29.468663940005573
-0.004867652304777427 -52.46494792978337 -29.760771841884814
-0.003547691826409759 -52.87183740687515 -30.03728019004403
-0.00259777113317015 -53.24275682426815 -30.293938375572075
-0.001938974799321436 -53.57878918165808 -30.528870587971465
-0.0014883348561919659 -53.879590139763636 -30.742673240372422
-0.001179444421128993 -54.1448017714166 -30.935966280815705
-0.000966359393061021 -54.374901587169425 -31.107922636763348
-0.0008164597513084843 -54.57058617315398 -31.25733578564311

CELLS 100 350
4 0 51 52 1
4 1 52 53 2
4 2 53 54 3
4 3 54 55 4
4 4 55 56 5
4 5 56 57 6
4 6 57 58 7
4 7 58 59 8
4 8 59 60 9
4 9 60 61 10
4 10 61 62 11
4 11 62 63 12
4 12 63 64 13
4 13 64 65 14
4 14 65 66 15
4 15 66 67 16
4 16 67 68 17
4 17 68 69 18
4 18 69 70 19
4 19 70 71 20
4 20 71 72 21
4 21 72 73 22
4 22 73 74 23
4 23 74 75 24
4 24 75 76 25
4 25 76 77 26
4 26 77 78 27
4 27 78 79 28
4 28 79 80 29
4 29 80 81 30
4 30 81 82 31
4 31 82 83 32
4 32 83 84 33
4 33 84 85 34
4 34 85 86 35
4 35 86 87 36
4 36 87 88 37
4 37 88 89 38
4 38 89 90 39
4 39 90 91 40
4 40 91 92 41
4 41 92 93 42
4 42 93 94 43
4 43 94 95 44
4 44 95 96 45
4 45 96 97 46
4 46 97 98 47
4 47 98 99 48
4 48 99 100 49
4 49 100 101 50
1 102
1 103
1 104
1 105
1 106
1 107
1 108
1 109
1 110
1 111
1 112
1 113
1 114
1 115
1 116
1 117
1 118
1 119
1 120
1 121
1 122
1 123
1 124
1 125
1 126
1 127
1 128
1 129
1 130
1 131
1 132
1 133
1 134
1 135
1 136
1 137
1 138
1 139
1 140
1 141
1 142
1 143
1 144
1 145
1 146
1 147
1 148
1 149
1 150
1 151

CELL_TYPES 100
7
7
7
7
7
7
7
7
7
7
7
7
7
7
7
7
7
7
7
7
7
7
7
7
7
7
7
7
7
7
7
7
7
7
7
7
7
7
7
7
7
7
7
7
7
7
7
7
7
7
7
7
7
7
7
7
7
7
7
7
7
7
7
7
7
7
7
7
7
7
7
7
7
7
7
7
7
7
7
7
7
7
7
7
7
7
7
7
7
7
7
7
7
7
7
7
7
7
7
7

POINT_DATA 152

VECTORS centroid-point-cyl-mean float
2.3207721039835367 -4.54778857215541e-18 0.0
4.158286906816708 2.700542492331462e-17 0.0
6.241554251947468 3.600723323108616e-17 0.0
8.345856736051077 -5.101024707737206e-17 0.0
10.433252586532348 -5.251054846200065e-17 0.0
12.484861575413303 -8.401687753920104e-17 0.0
14.492607321434448 -2.400482215405744e-17 0.0
16.45576954358357 5.401084984662924e-17 0.0
18.381501062198094 -1.0802169969325848e-16 0.0
20.270896167931518 -9.601928861622976e-17 0.0
22.122621338323437 -4.800964430811488e-17 0.0
23.93577589009018 -3.600723323108616e-17 0.0
25.70974104293012 4.800964430811488e-17 0.0
27.44386438511208 2.400482215405744e-17 0.0
29.138059348834567 7.801567200068668e-17 0.0
30.792415992156126 4.200843876960052e-17 0.0
32.4067472875948 1.8603737169394515e-16 0.0
33.98080511262546 6.601326092365796e-17 0.0
35.514414560643864 3.9007836000343344e-16 0.0
37.00747810356629 4.380880043115483e-16 0.0
38.45991705943683 1.9203857723245952e-16 0.0
39.87166726296896 1.0202049415474412e-16 0.0
41.242675876855785 1.1402290523177283e-16 0.0
42.57289900820004 -3.00060276925718e-17 0.0
43.862299902662265 3.1806389354126107e-16 0.0
45.11084755944381 9.601928861622976e-17 0.0
46.31851565706954 -4.800964430811488e-16 0.0
47.48528171161941 -1.5603134400137336e-16 0.0
48.611126419296404 -3.8407715446491904e-16 0.0
49.69603321793403 -6.601326092365796e-17 0.0
50.739987653942215 -2.520506326176031e-16 0.0
51.74297710349791 -1.4402893292434464e-16 0.0
52.70499053189274 6.00120553851436e-17 0.0
53.6260182603572 2.880578658486893e-16 0.0
54.50605177338418 -6.241253760054934e-16 0.0
55.34508355863598 1.0802169969325848e-16 0.0
56.143098406752635 -4.740952375426344e-16 0.0
56.900065008724546 3.3606751015680416e-16 0.0
57.61594273073603 6.241253760054934e-16 0.0
58.290714747261426 4.200843876960052e-17 0.0
58.92439688013726 4.320867987730339e-16 0.0
59.51698788389266 3.420687156953185e-16 0.0
60.06830356510639 1.050210969240013e-16 0.0
60.57839068324964 -2.370476187713172e-16 0.0
61.04741851025934 5.821169372358929e-16 0.0
61.475478762796286 -3.3606751015680416e-16 0.0
61.862583404198645 -1.9203857723245952e-16 0.0
62.208708542083315 -2.4304882430983155e-16 0.0
62.51386112682967 -1.4402893292434464e-16 0.0
62.778051960035285 9.601928861622976e-17 0.0
63.001279818159595 -1.9353887861708812e-16 0.0
2.24914796436495 1.050210969240013e-17 0.8152906132198466
4.116583853666226 -6.00120553851436e-18 0.8405085085802856
6.209623089407617 5.701145261588641e-17 0.8937965186637558
8.318727154326842 4.200843876960052e-17 0.9506477078574839
10.408764362764304 6.751356230828655e-17 1.0206818772096897
12.463212632038745 4.800964430811488e-17 1.0489549773990696
14.475710998858421 -1.5603134400137336e-16 0.9930987765435381
16.4433471159619 -3.00060276925718e-18 0.9074282632533692
18.372112228767982 4.200843876960052e-17 0.838943182596935
20.263430365320925 1.50030138462859e-16 0.7804380392478912
22.116684354670614 -1.6803375507840208e-16 0.725039155138254
23.931082171888498 7.201446646217232e-17 0.6716005320172309
25.706046768040466 1.200241107702872e-16 0.6190912009116676
27.44096782312033 1.0802169969325848e-16 0.5668551203522251
29.135788145852736 9.601928861622976e-17 0.5160737545271722
30.790638268833796 1.9203857723245952e-16 0.4682432215925835
32.405356625269405 1.6803375507840208e-16 0.4244759216876558
33.97971649412352 1.4402893292434464e-16 0.3845740908079427
35.5135632261771 2.3404701600206e-16 0.34771109645472914
37.006816101432726 -3.120626880027467e-16 0.3130568676883955
38.45940607604885 1.0202049415474412e-16 0.2804728235147938
39.87127513824599 -1.9803978277097387e-16 0.2502817247970272
41.242376132277855 -1.9203857723245952e-16 0.22269967179246203
42.57267088545193 2.4604942707908875e-16 0.19756508903559158
43.86212604116309 7.801567200068668e-17 0.17527331282134884
45.11071370721161 -1.1402290523177283e-16 0.15618952887337026
46.31841132424583 5.161036763122349e-16 0.13996799493967957
47.485199881974886 2.1604339938651696e-16 0.12575834684106643
48.61106271772796 1.9803978277097387e-16 0.11252036551220722
49.6959839765139 -3.9007836000343344e-16 0.10008619772201267
50.73994975123861 1.1402290523177283e-16 0.08845640514293832
51.74294793903306 1.200241107702872e-16 0.07764813403821604
52.704967963662526 -7.801567200068668e-17 0.06766754153320644
53.6260005684733 3.8407715446491904e-16 0.05846867713071903
54.506037585661225 -2.520506326176031e-16 0.05000632361005496
55.345071785020025 1.9203857723245952e-16 0.04224556628624775
56.14309045749498 1.9203857723245952e-16 0.03513713503931207
56.90006911969505 -4.2608559323451947e-16 0.028610254341922235
57.615947374886 1.800361661554308e-16 0.02259956362417136
58.29070038030011 3.420687156953185e-16 0.017476911002667805
58.924385394931335 -4.200843876960052e-17 0.013355710955929908
59.517002464742525 -2.0404098830948824e-16 0.010110762084749264
60.06832153974313 9.301868584697257e-17 0.007505342360414166
60.57838726675464 3.3606751015680416e-16 0.005475063785658978
61.04740151053263 6.661338147750939e-16 0.003985447751433713
61.47546753505326 -2.9105846861794643e-16 0.00294194193702002
61.862587591448744 6.00120553851436e-18 0.0022286575278371436
62.20872007958791 9.601928861622976e-17 0.0017402354220081
62.51387119536962 1.4102833015508744e-16 0.0014049497010025485
62.7780566365607 -1.9353887861708812e-16 0.0011720086804935083
63.00127833033911 9.301868584697257e-17 0.001005217322995785
2.745675269413029 6.75135623082866e-18 0.6209246706750495
4.910961231689027 9.095577144310829e-18 0.6503643852165159
7.0689712432904255 1.050210969240013e-17 0.6916665849454648
9.194745099134034 -8.101627476994385e-17 0.7392485944001903
11.282584640989468 -3.300663046182898e-17 0.7761138204782841
13.330006162003786 0.0 0.7657701577284781
15.335839605621814 0.0 0.7126976399238398
17.300348218921904 0.0 0.6548892921938642
19.224379340000297 6.00120553851436e-18 0.6072679581918091
21.1080780521739 -1.7403496061691643e-16 0.5645539478948045
22.951312172709383 9.601928861622976e-17 0.5237398826833071
24.753919887475746 -3.00060276925718e-17 0.4840093998483365
26.51575712197077 -9.601928861622976e-17 0.44472987047395984
28.23674738567719 -3.120626880027467e-16 0.4060983280797737
29.9169047720934 1.1402290523177283e-16 0.36911886604490846
31.55622760480404 -2.1304279661725974e-16 0.3347696787300899
33.15466974583367 2.520506326176031e-16 0.30339375468584956
34.71218631683371 5.401084984662924e-17 0.27460694522350176
36.228750418032654 4.110825793882337e-16 0.2477879865536716
37.704344940278446 -3.600723323108616e-16 0.22257363420119608
39.138954977358274 -3.900783600034334e-17 0.199032955616933
40.53256812923536 1.7403496061691643e-16 0.17736802372105845
41.88517444939385 -2.220446049250313e-16 0.15759928531052028
43.19676556075309 -7.201446646217232e-17 0.1398144006963528
44.4673342190961 3.060614824642323e-16 0.12429856563551943
45.696874556277244 7.951597338531526e-16 0.11105907142989362
46.88538183183171 -3.1506329077200387e-16 0.09964737816777981
48.03285196967709 -1.200241107702872e-16 0.08935451713247776
49.13928111080879 -5.731151289281214e-16 0.07972746121283249
50.20466561693035 -2.1604339938651696e-16 0.07070347607435665
51.229002307209136 2.850572630794321e-16 0.0622892021929329
52.21228841104278 -1.9203857723245952e-16 0.054493378339283416
53.15452150704891 -1.0202049415474412e-16 0.04730108199897209
54.055699467433016 -1.4402893292434464e-16 0.040678125277790286
54.915820408666605 1.9203857723245952e-16 0.03459445871111353
55.73488200233509 1.8903797446320232e-16 0.029018512997084918
56.51288016220108 4.740952375426344e-16 0.023905271017962883
57.24980335800548 1.8903797446320232e-16 0.01920368173728511
57.9456392652451 -9.301868584697257e-17 0.01502867798506469
58.60039429717197 -1.4102833015508744e-16 0.011562233234474141
59.214078104568 -9.901989138548693e-17 0.008799927390254685
59.78665827260625 4.950994569274347e-17 0.006606039166936283
60.31810923677584 2.400482215405744e-16 0.0048676523047774265
60.80846480543865 -4.3358710015766247e-16 0.003547691826409763
61.25776568363495 0.0 0.0025977711331701507
61.66602459660977 4.3358710015766247e-16 0.0019389747993214372
62.033234573035436 -1.4702953569360181e-16 0.0014883348561919656
62.35939038022888 -9.451898723160116e-17 0.0011794444211289939
62.64449515631223 -5.281060873892637e-16 0.000966359393061021
62.88855154714634 2.25045207694288e-18 0.0008164597513084836

VECTORS centroid-point-mean float
0.0 -0.01117845238868798 -0.06171943359387747
0.0 -0.06279035456187688 -0.09320951763915562
0.0 -0.11258953160564202 -0.12561900577413979
0.0 -0.16132712569818194 -0.15764688158248288
0.0 -0.20900986208556932 -0.18928149659628948
0.0 -0.2561278546037882 -0.2196739487501465
0.0 -0.3030995087647433 -0.24809953843926694
0.0 -0.35003084214896296 -0.27437463782767824
0.0 -0.396267732074548 -0.2996322206348173
0.0 -0.44154554807440893 -0.3243306402749132
0.0 -0.4858667625644654 -0.3484656143979717
0.0 -0.5292367329188843 -0.37202786375974556
0.0 -0.5716610006034106 -0.3950077902600094
0.0 -0.6131843771904699 -0.4173277779785679
0.0 -0.6537771517295821 -0.4390392877911741
0.0 -0.6933742534137974 -0.4602550256415598
0.0 -0.7319660139606202 -0.48099173748624696
0.0 -0.7695682452930576 -0.5012220362712114
0.0 -0.8061923408347098 -0.5209261880078947
0.0 -0.8418383039906887 -0.5401041867984857
0.0 -0.8765061380751551 -0.5587560269026781
0.0 -0.9101958463113456 -0.5768817027376758
0.0 -0.9429074318315407 -0.5944812088781907
0.0 -0.9746408976771009 -0.6115545400564412
0.0 -1.0053962467984465 -0.6281016911621593
0.0 -1.035173482055052 -0.6441226572425856
0.0 -1.0639726062154549 -0.6596174335024554
0.0 -1.091793621957267 -0.674586015304028
0.0 -1.1186365278529724 -0.6890284051198303
0.0 -1.1445012712614133 -0.7029446941270084
0.0 -1.1693878437222278 -0.7163348969793683
0.0 -1.193296255921554 -0.7291989951679394
0.0 -1.2162265181255583 -0.7415369709112192
0.0 -1.2381786401804349 -0.7533488071551016
0.0 -1.259152631512391 -0.7646344875729131
0.0 -1.2791485011276527 -0.7753939965654087
0.0 -1.2981718724493951 -0.7856175940779562
0.0 -1.316240580824804 -0.7952743883830224
0.0 -1.3333819205276836 -0.8043171044116487
0.0 -1.3496101308593424 -0.8127210789705069
0.0 -1.3649170646910462 -0.8205004233004951
0.0 -1.379306958708664 -0.8276477992464171
0.0 -1.3929403850921303 -0.8338850876343717
0.0 -1.405813745515504 -0.8392185209476823
0.0 -1.4178058425430173 -0.8438580193028623
0.0 -1.4288340257172947 -0.8479467374913561
0.0 -1.4388772188929626 -0.8515211804677768
0.0 -1.4479551715184755 -0.8545471411839817
0.0 -1.4560502273862916 -0.8570552010884983
0.0 -1.463127598432137 -0.859105614876136
0.0 -1.469157169615324 -0.8607505433274613
-0.8152906132198466 -0.057756539127672764 0.018956179157387794
-0.8405085085802856 -0.11080449603867455 -0.010046585119549705
-0.8937965186637558 -0.16366243650931275 -0.03715813959085547
-0.9506477078574839 -0.2156705237871173 -0.06352135503651248
-1.0206818772096897 -0.26681514042067067 -0.08915981757424193
-1.0489549773990696 -0.3166782516950561 -0.11479758456960701
-0.9930987765435381 -0.36496548245016064 -0.14094452875641317
-0.9074282632533692 -0.4114150029203952 -0.16805415259159134
-0.838943182596935 -0.45657812578545137 -0.19517155450305976
-0.7804380392478912 -0.5007174037409123 -0.2218419798824054
-0.725039155138254 -0.5438867844582008 -0.24797198862177314
-0.6716005320172309 -0.5860821874891731 -0.2735686482646611
-0.6190912009116676 -0.6272937885655133 -0.29864897494294607
-0.5668551203522251 -0.6674738898824156 -0.32329558367796396
-0.5160737545271722 -0.7066506343902896 -0.3474597294497153
-0.4682432215925835 -0.7448916025830977 -0.37102435940907885
-0.4244759216876558 -0.7822064578234188 -0.39397273612107175
-0.3845740908079427 -0.8185794792564298 -0.41633208890500784
-0.34771109645472914 -0.8540005081779826 -0.4381200131526023
-0.3130568676883955 -0.8884712232075942 -0.45933360140955704
-0.2804728235147938 -0.921992185178247 -0.479971882284661
-0.2502817247970272 -0.9545634301217878 -0.5000347933689165
-0.22269967179246203 -0.986185217540994 -0.5195218851903439
-0.19756508903559158 -1.0168581974720088 -0.5384320318533073
-0.17527331282134884 -1.046582518988493 -0.5567649751546487
-0.15618952887337026 -1.0753584460059071 -0.5745202579793806
-0.13996799493967957 -1.10318674834354 -0.5916965469613873
-0.12575834684106643 -1.130068358641793 -0.6082922267201106
-0.11252036551220722 -1.1560041005383734 -0.6243058706731943
-0.10008619772201267 -1.1809941069461283 -0.6397372486088254
-0.08845640514293832 -1.205038437815503 -0.6545862566898045
-0.07764813403821604 -1.2281371630672486 -0.6688527738098078
-0.06766754153320644 -1.2502903604320226 -0.6825366653354149
-0.05846867713071903 -1.2714981253685005 -0.695637765927341
-0.05000632361005496 -1.2917605449483587 -0.7081559247730148
-0.04224556628624775 -1.3110776959078094 -0.7200910089614249
-0.03513713503931207 -1.3294455182775338 -0.7314500505656978
-0.028610254341922235 -1.3468509047051276 -0.7422557521861654
-0.02259956362417136 -1.3632532769852017 -0.7525783973362333
-0.017476911002667805 -1.3786316267275518 -0.7624543736151214
-0.013355710955929908 -1.3930239487136546 -0.7718178721308927
-0.010110762084749264 -1.4064291848658033 -0.7806707255278763
-0.007505342360414166 -1.418651199834304 -0.7893526501969312
-0.005475063785658978 -1.4296882650825982 -0.7978666400511788
-0.003985447751433713 -1.4396880817356679 -0.805956869237823
-0.00294194193702002 -1.4487477693319428 -0.8134551217818918
-0.0022286575278371436 -1.4568828378993706 -0.8203345335269521
-0.0017402354220081 -1.4640534023968153 -0.8266641873907258
-0.0014049497010025485 -1.4702728535657725 -0.8324208899285668
-0.0011720086804935083 -1.47557969726364 -0.8375379470391173
-0.001005217322995785 -1.4800072664072306 -0.8419576244168294
-0.6209246706750495 -0.07245648905620085 -0.016025021139939928
-0.6503643852165159 -0.12484758547643544 -0.04505533719306369
-0.6916665849454648 -0.1764894422741392 -0.07316304640484048
-0.7392485944001903 -0.22722424755088938 -0.10062148700137928
-0.7761138204782841 -0.27695223662956714 -0.12760345647224855
-0.7657701577284781 -0.32551982072552155 -0.15437497839593542
-0.7126976399238398 -0.3727839758781718 -0.1811837775388686
-0.6548892921938642 -0.4187847450426327 -0.20796049746830744
-0.6072679581918091 -0.46371248359100503 -0.234375433008266
-0.5645539478948045 -0.5076531094045255 -0.260279770023176
-0.5237398826833071 -0.5506263014156839 -0.2856394236021288
-0.4840093998483365 -0.5926282077107942 -0.3104610654553223
-0.44472987047395984 -0.6336435516422084 -0.3347711555126628
-0.4060983280797737 -0.6736668877172697 -0.3585791256440993
-0.36911886604490846 -0.7127222645079413 -0.3818433225011392
-0.3347696787300899 -0.7508293060742462 -0.4045297562147836
-0.30339375468584956 -0.7879865088116536 -0.4266410311044604
-0.27460694522350176 -0.8241875685538762 -0.4481880663064915
-0.2477879865536716 -0.859430729872767 -0.4691739023116075
-0.22257363420119608 -0.8937168334029193 -0.4895970830979742
-0.199032955616933 -0.9270461037858253 -0.5094572195751352
-0.17736802372105845 -0.9594186526414039 -0.5287541184117077
-0.15759928531052028 -0.9908348218184552 -0.5474871875081988
-0.1398144006963528 -1.0212949117321302 -0.5656559065303061
-0.12429856563551943 -1.0507990779795866 -0.5832600059758547
-0.11105907142989362 -1.0793477089148555 -0.600298813195918
-0.09964737816777981 -1.1069414436410883 -0.6167712212313714
-0.08935451713247776 -1.1335809409188393 -0.6326760890754709
-0.07972746121283249 -1.1592665526959856 -0.6480128071366139
-0.07070347607435665 -1.183998343658567 -0.6627812633752778
-0.0622892021929329 -1.2077763627865028 -0.676981372955763
-0.054493378339283416 -1.2306006680681183 -0.6906130354393551
-0.04730108199897209 -1.2524713269634442 -0.703676133981819
-0.040678125277790286 -1.273388410330428 -0.7161705458536296
-0.03459445871111353 -1.2933519819010697 -0.7280961606677068
-0.029018512997084918 -1.3123612520166332 -0.7394543461530911
-0.023905271017962883 -1.3304127152777774 -0.7502511738395733
-0.01920368173728511 -1.3474918808029337 -0.7605117426702283
-0.01502867798506469 -1.3635808453156604 -0.7702670620295283
-0.011562233234474141 -1.3786867402342495 -0.7795047799386302
-0.008799927390254685 -1.3928229280172622 -0.7882017519404042
-0.006606039166936283 -1.4059360622376411 -0.7964503767569012
-0.0048676523047774265 -1.417971565669791 -0.8043451849157908
-0.003547691826409763 -1.4289685785641633 -0.8118183835147029
-0.0025977711331701507 -1.4389934276828904 -0.8187550912316744
-0.0019389747993214372 -1.4480753832880247 -0.8251046104857085
-0.0014883348561919656 -1.4562051389124955 -0.8308830605505989
-0.0011794444211289939 -1.4633730208490667 -0.8361071967788031
-0.000966359393061021 -1.4695919347883326 -0.8407546658584656
-0.0008164597513084836 -1.4748807073825123 -0.8447928590714346

VECTORS centroid-point-cyl-variance float
1.199e-29 0.0 0.0
2.3539999999999997e-29 1.9999999999999998e-32 0.0
4.644e-29 3.9999999999999997e-32 0.0
8.877999999999999e-29 3.9999999999999997e-32 0.0
1.1991e-28 1.7999999999999998e-31 0.0
1.6818e-28 2.4e-31 0.0
2.0536e-28 2.6e-31 0.0
2.9234999999999997e-28 2.2e-31 0.0
3.8002e-28 4.6e-31 0.0
4.2402e-28 3.3e-31 0.0
4.8543e-28 4.7e-31 0.0
5.290899999999999e-28 5.8999999999999994e-31 0.0
6.1608e-28 8.6e-31 0.0
7.614e-28 5.8999999999999994e-31 0.0
9.991699999999999e-28 6.799999999999999e-31 0.0
9.162699999999999e-28 9.9e-31 0.0
9.2787e-28 6.8999999999999995e-31 0.0
1.17621e-27 1.77e-30 0.0
1.44639e-27 1.5999999999999998e-30 0.0
1.5187099999999999e-27 3.26e-30 0.0
1.43547e-27 2.04e-30 0.0
1.35496e-27 1.1799999999999999e-30 0.0
1.71383e-27 1.1799999999999999e-30 0.0
1.6073999999999998e-27 1.4299999999999999e-30 0.0
1.7110999999999998e-27 2.8199999999999997e-30 0.0
1.93761e-27 3.23e-30 0.0
1.8762099999999998e-27 1.69e-30 0.0
3.12747e-27 2.2e-30 0.0
2.37153e-27 3.56e-30 0.0
2.32786e-27 2.1099999999999998e-30 0.0
2.3305899999999998e-27 2.5199999999999997e-30 0.0
2.75905e-27 1.39e-30 0.0
2.7262999999999997e-27 2.5099999999999998e-30 0.0
2.6458e-27 1.62e-30 0.0
3.00739e-27 3.4499999999999996e-30 0.0
3.6568999999999995e-27 2.2099999999999998e-30 0.0
3.1793199999999998e-27 4.38e-30 0.0
3.64462e-27 3.04e-30 0.0
3.04424e-27 3.11e-30 0.0
3.25164e-27 2.4699999999999997e-30 0.0
3.1916e-27 2.63e-30 0.0
4.5847699999999994e-27 3.38e-30 0.0
3.51226e-27 2.55e-30 0.0
3.62143e-27 4.81e-30 0.0
4.3787299999999995e-27 2.9e-30 0.0
3.60915e-27 2.7e-30 0.0
3.50681e-27 4.06e-30 0.0
5.99159e-27 3.27e-30 0.0
5.5494899999999995e-27 3.6499999999999996e-30 0.0
4.10037e-27 3.74e-30 0.0
3.9093399999999995e-27 4.06e-30 0.0
6.43e-30 0.0 4.999999999999999e-32
1.473e-29 3.0e-32 3.1e-31
3.6139999999999996e-29 3.0e-32 9.999999999999999e-33
6.447e-29 6.0e-32 4.4e-31
9.995e-29 8.999999999999999e-32 4.999999999999999e-32
1.501e-28 1.9e-31 7.9e-31
2.3085999999999997e-28 1.5e-31 1.9999999999999997e-31
3.1213e-28 3.3e-31 4.999999999999999e-32
2.9609999999999998e-28 3.5e-31 3.1e-31
3.6296e-28 7.5e-31 4.999999999999999e-32
4.5814e-28 6.0e-31 4.999999999999999e-32
5.069199999999999e-28 7.4e-31 4.999999999999999e-32
6.2903999999999995e-28 5.6e-31 4.999999999999999e-32
7.4195999999999995e-28 9.999999999999999e-31 4.999999999999999e-32
7.914199999999999e-28 6.7e-31 0.0
8.2314e-28 1.02e-30 4.999999999999999e-32
1.3413199999999998e-27 1.2299999999999999e-30 1.5e-31
1.85984e-27 1.4299999999999999e-30 4.999999999999999e-32
1.42183e-27 5.8999999999999994e-31 7.999999999999999e-32
1.49824e-27 1.59e-30 9.999999999999999e-33
1.51052e-27 1.2299999999999999e-30 0.0
1.89668e-27 9.4e-31 3.0e-32
1.61013e-27 2.39e-30 0.0
1.72202e-27 1.27e-30 1.9999999999999998e-32
1.84483e-27 2.04e-30 9.999999999999999e-33
2.12455e-27 1.63e-30 1.9999999999999998e-32
2.06315e-27 2.74e-30 1.9999999999999998e-32
2.14093e-27 2.58e-30 1.9999999999999998e-32
2.14093e-27 1.88e-30 9.999999999999999e-33
2.28284e-27 2.79e-30 0.0
2.5502799999999997e-27 2.7e-30 0.0
2.61714e-27 2.5099999999999998e-30 0.0
2.86412e-27 2.9e-30 0.0
2.55437e-27 2.75e-30 0.0
3.14248e-27 3.09e-30 0.0
2.77133e-27 3.0299999999999997e-30 0.0
3.3649e-27 2.69e-30 0.0
3.92708e-27 1.9499999999999998e-30 0.0
3.30895e-27 3.04e-30 0.0
3.27347e-27 3.7199999999999995e-30 0.0
3.49453e-27 4.18e-30 0.0
3.1997899999999997e-27 3.1999999999999996e-30 0.0
3.4317599999999995e-27 3.06e-30 0.0
4.57659e-27 3.8999999999999996e-30 0.0
3.41402e-27 3.14e-30 0.0
3.4126499999999995e-27 2.13e-30 0.0
3.7879e-27 4.09e-30 0.0