# vtk DataFile Version 4.0
 
ASCII
DATASET UNSTRUCTURED_GRID
POINTS 152 float
0.0 2.1844734729717565 0.7836190429735802
0.0 4.148328534944952 -0.287611483714709
0.0 6.108108592050856 -1.2837479922935324
0.0 8.036021383696147 -2.2529280901677207
0.0 9.931818075776043 -3.195582770649406
0.0 11.777364456359225 -4.143121410158861
0.0 13.557179521505173 -5.122357894073243
0.0 15.267340620734302 -6.140086452323519
0.0 16.932050293277 -7.15438705729048
0.0 18.56109986641552 -8.14830063264774
0.0 20.154397860760785 -9.121985625345008
0.0 21.71174605346872 -10.075785367419451
0.0 23.23293941030665 -11.010054988579355
0.0 24.716319903094977 -11.927666277872163
0.0 26.16298683700118 -12.826715182894773
0.0 27.575347831882596 -13.703031583728981
0.0 28.95376061419166 -14.555995879983932
0.0 30.29764014277705 -15.386621392658263
0.0 31.606564860965335 -16.1956382793286
0.0 32.88053464276769 -16.983046758214016
0.0 34.119549365559934 -17.748847041705805
0.0 35.3236089100826 -18.49303933636744
0.0 36.492713160440886 -19.215623842934576
0.0 37.6268620041047 -19.916600756315066
0.0 38.726055331908626 -20.595970265588956
0.0 39.79029303805194 -21.25373255400848
0.0 40.819575020098604 -21.889887798998057
0.0 41.81390117897727 -22.50443617215431
0.0 42.77327156750585 -23.09737758199392
0.0 43.697688133407226 -23.668708654961883
0.0 44.58715118971499 -24.218428848868136
0.0 45.441660341041704 -24.74653884854379
0.0 46.26121520753919 -25.253039311905194
0.0 47.04581542489851 -25.737930869953942
0.0 47.79546064434997 -26.201214126776865
0.0 48.51015053266311 -26.642889659546036
0.0 49.189677023180614 -27.06331785028332
0.0 49.83338020805627 -27.463641692906652
0.0 50.44025019915966 -27.845610364967868
0.0 51.00976014234213 -28.21013640462062
0.0 51.542211481367104 -28.556697695951048
0.0 52.0374474588572 -28.885565750701215
0.0 52.489526904154886 -29.207030978306424
0.0 52.898582955320144 -29.520862776882343
0.0 53.26909991747599 -29.819294102119283
0.0 53.60413585754576 -30.09702822673307
0.0 53.90447059290812 -30.352714467403228
0.0 54.1693733939702 -30.587618484911232
0.0 54.399497540411254 -30.800608765661035
0.0 54.59613019060894 -30.98945588594514
0.0 54.76038560106932 -31.1522298968824
-0.8152906132198464 0.46108426362937655 -2.2013786288233845
-0.840508508580286 2.3718053003035164 -3.3646399869402885
-0.8937965186637556 4.218411110615099 -4.556800041075215
-0.9506477078574832 6.025315654405586 -5.735572572368811
-1.02068187720969 7.793022777377361 -6.900084894465369
-1.0489549773990687 9.536999763982383 -8.023546884838979
-0.9930987765435385 11.268138495144795 -9.087093252339038
-0.9074282632533693 12.996126672191414 -10.073944406058937
-0.8389431825969345 14.700565725973693 -11.019431704165672
-0.7804380392478915 16.371741206754965 -11.94038106717073
-0.7250391551382538 18.007657050692693 -12.840249779064521
-0.6716005320172311 19.608464234368036 -13.71877634073774
-0.6190912009116674 21.174526255708837 -14.575331155310904
-0.5668551203522249 22.70760793349294 -15.406857466994644
-0.5160737545271722 24.206667978555 -16.215158841528716
-0.46824322159258325 25.66920591261862 -17.004566234331048
-0.42447592168765613 27.094864191268144 -17.7756989304955
-0.38457409080794247 28.48422448613226 -18.527549445207924
-0.3477110964547294 29.83766266926443 -19.259466748974518
-0.31305686768839563 31.15511663174222 -19.971558417604577
-0.2804728235147938 32.43656562274569 -20.66386039257252
-0.25028172479702737 33.68200830909615 -21.336374983011574
-0.22269967179246206 34.89143508919114 -21.98911881938503
-0.19756508903559172 36.06482191169323 -22.62213355983132
-0.17527331282134875 37.20216326087697 -23.235428757867144
-0.15618952887337012 38.30344937187029 -23.82902132674707
-0.1399679949396797 39.368651761359466 -24.402960601017654
-0.12575834684106657 40.397735921649804 -24.95730634975933
-0.11252036551220733 41.39067137814612 -25.492111356519324
-0.1000861977220127 42.34745321307286 -26.007384139134736
-0.08845640514293837 43.268079208263785 -26.503128539582175
-0.07764813403821604 44.152546776650894 -26.979349038794886
-0.06766754153320646 45.00085304220012 -27.43605061821
-0.05846867713071907 45.812994472940105 -27.873239395381336
-0.05000632361005495 46.58896784721913 -28.29092095037337
-0.04224556628624775 47.3287703257974 -28.689100200893684
-0.03513713503931205 48.032552127539475 -29.067516960236624
-0.02861025434192226 48.700798224484124 -29.425331232190743
-0.022599563624171346 49.335010010231535 -29.759942526758394
-0.017476911002667815 49.935964795218446 -30.07000450276991
-0.0133557109559299 50.50225677253065 -30.357952089226288
-0.010110762084749267 51.03392509104293 -30.623717478287357
-0.007505342360414162 51.538226758694535 -30.85473116349142
-0.005475063785658977 52.015225731337665 -31.050882370052992
-0.0039854477514337135 52.45945706734813 -31.221636654525604
-0.0029419419370200197 52.86732734380383 -31.373218007983418
-0.0022286575278371427 53.23826268967105 -31.506620404213766
-0.0017402354220080998 53.573738851471674 -31.61928777526172
-0.0014049497010025483 53.87326037177029 -31.71207827857836
-0.0011720086804935075 54.13540253384348 -31.78745959591506
-0.0010052173229957839 54.35893201976845 -31.84756789657598
-0.6209246706750498 1.853933837464423 -2.0252560360040186
-0.6503643852165156 3.7533857949689566 -3.166959945006844
-0.6916665849454646 5.609413783851132 -4.301724240349167
-0.73924859440019 7.427856844352629 -5.419435407664959
-0.7761138204782846 9.212406269526813 -6.513699939840165
-0.7657701577284777 10.968744844405743 -7.574674964470769
-0.7126976399238405 12.70216445553101 -8.593194665198835
-0.6548892921938638 14.411183513563328 -9.571825230035978
-0.6072679581918097 16.08875886973481 -10.522765750493427
-0.5645539478948045 17.73171156243991 -11.45152234958731
-0.5237398826833068 19.33931347117646 -12.359356169021403
-0.4840093998483369 20.911707116750748 -13.246020355518091
-0.4447298704739596 22.44945773512587 -14.110535891671018
-0.40609832807977386 23.95276680953 -14.952553798292124
-0.3691188660449083 25.420744542800573 -15.773615249275377
-0.3347696787300898 26.852664844716816 -16.57497786977407
-0.3033937546858495 28.24858334864624 -17.35654529996906
-0.27460694522350193 29.60873330874156 -18.11791353181677
-0.24778798655367185 30.933179675844126 -18.858970067159987
-0.22257363420119602 32.22189134647392 -19.57976877880639
-0.19903295561693296 33.47486000889601 -20.280324063103194
-0.17736802372105853 34.692081533173166 -20.960643073311477
-0.15759928531052017 35.87354327089984 -21.620747717112337
-0.1398144006963527 37.01923410671549 -22.260657246874928
-0.12429856563551955 38.129148283525296 -22.88038163418001
-0.11105907142989367 39.20327143222998 -23.47994576703759
-0.09964737816777985 40.24157990601296 -24.059390602935416
-0.08935451713247772 41.244049330733866 -24.61875835912302
-0.07972746121283251 42.21066668432125 -25.158071590489744
-0.07070347607435665 43.14142957339152 -25.677334442497592
-0.06228920219293291 44.03633618568759 -26.17655005406789
-0.05449337833928344 44.89538437564174 -26.655722141432957
-0.04730108199897208 45.71857164723229 -27.114855027829137
-0.04067812527779026 46.50589537871577 -27.553953254249368
-0.03459445871111351 47.257353212007835 -27.973020905015506
-0.029018512997084925 47.97297436448179 -28.372007374152528
-0.023905271017962866 48.652888535913455 -28.750688015059005
-0.0192036817372851 49.29763188892037 -29.10813416684024
-0.015028677985064689 49.90786684473147 -29.44319848227168
-0.011562233234474143 50.48332954086956 -29.756337984570035
-0.008799927390254687 51.02352556636813 -30.048409018649146
-0.006606039166936287 51.53042873902805 -30.315992831792993
-0.004867652304777427 52.00605841619645 -30.55559179447775
-0.003547691826409759 52.44896640860668 -30.769714244092185
-0.00259777113317015 52.8566986260597 -30.96261078954743
-0.001938974799321436 53.22817206885981 -31.136157241340978
-0.0014883348561919659 53.56373107628832 -31.289757186342612
-0.001179444421128993 53.86373357551342 -31.422790676511564
-0.000966359393061021 54.12770205598269 -31.536084784385803
-0.0008164597513084843 54.35493993156427 -31.630846032537583

CELLS 100 350
4 0 51 52 1
4 1 52 53 2
4 2 53 54 3
4 3 54 55 4
4 4 55 56 5
4 5 56 57 6
4 6 57 58 7
4 7 58 59 8
4 8 59 60 9
4 9 60 61 10
4 10 61 62 11
4 11 62 63 12
4 12 63 64 13
4 13 64 65 14
4 14 65 66 15
4 15 66 67 16
4 16 67 68 17
4 17 68 69 18
4 18 69 70 19
4 19 70 71 20
4 20 71 72 21
4 21 72 73 22
4 22 73 74 23
4 23 74 75 24
4 24 75 76 25
4 25 76 77 26
4 26 77 78 27
4 27 78 79 28
4 28 79 80 29
4 29 80 81 30
4 30 81 82 31
4 31 82 83 32
4 32 83 84 33
4 33 84 85 34
4 34 85 86 35
4 35 86 87 36
4 36 87 88 37
4 37 88 89 38
4 38 89 90 39
4 39 90 91 40
4 40 91 92 41
4 41 92 93 42
4 42 93 94 43
4 43 94 95 44
4 44 95 96 45
4 45 96 97 46
4 46 97 98 47
4 47 98 99 48
4 48 99 100 49
4 49 100 101 50
1 102
1 103
1 104
1 105
1 106
1 107
1 108
1 109
1 110
1 111
1 112
1 113
1 114
1 115
1 116
1 117
1 118
1 119
1 120
1 121
1 122
1 123
1 124
1 125
1 126
1 127
1 128
1 129
1 130
1 131
1 132
1 133
1 134
1 135
1 136
1 137
1 138
1 139
1 140
1 141
1 142
1 143
1 144
1 145
1 146
1 147
1 148
1 149
1 150
1 151

CELL_TYPES 100
7
7
7
7
7
7
7
7
7
7
7
7
7
7
7
7
7
7
7
7
7
7
7
7
7
7
7
7
7
7
7
7
7
7
7
7
7
7
7
7
7
7
7
7
7
7
7
7
7
7
7
7
7
7
7
7
7
7
7
7
7
7
7
7
7
7
7
7
7
7
7
7
7
7
7
7
7
7
7
7
7
7
7
7
7
7
7
7
7
7
7
7
7
7
7
7
7
7
7
7

POINT_DATA 152

VECTORS centroid-point-cyl-mean float
2.3207721039835305 -4.45401973561613e-18 0.0
4.158286906816699 -4.50090415388577e-18 0.0
6.241554251947449 1.650331523091449e-17 0.0
8.345856736051049 -9.00180830777154e-17 0.0
10.43325258653233 -7.201446646217232e-17 0.0
12.484861575413285 2.400482215405744e-17 0.0
14.492607321434422 -1.4402893292434464e-16 0.0
16.45576954358354 -1.50030138462859e-17 0.0
18.38150106219807 5.401084984662924e-17 0.0
20.270896167931493 -1.200241107702872e-16 0.0
22.1226213383234 1.4402893292434464e-16 0.0
23.935775890090135 -7.201446646217232e-17 0.0
25.709741042930073 2.400482215405744e-17 0.0
27.443864385112022 9.601928861622976e-17 0.0
29.138059348834542 -1.800361661554308e-16 0.0
30.792415992156084 6.601326092365796e-17 0.0
32.40674728759475 1.6803375507840208e-16 0.0
33.980805112625404 -1.3202652184731592e-16 0.0
35.51441456064378 -1.0802169969325848e-16 0.0
37.00747810356624 6.00120553851436e-18 0.0
38.45991705943678 -1.7403496061691643e-16 0.0
39.87166726296892 -4.50090415388577e-16 0.0
41.242675876855714 1.800361661554308e-17 0.0
42.57289900819998 -2.520506326176031e-16 0.0
43.862299902662194 1.1402290523177283e-16 0.0
45.11084755944377 2.700542492331462e-16 0.0
46.318515657069455 6.00120553851436e-17 0.0
47.48528171161938 -5.041012652352062e-16 0.0
48.61112641929632 -2.6405304369463184e-16 0.0
49.69603321793397 1.6803375507840208e-16 0.0
50.739987653942144 1.8603737169394515e-16 0.0
51.74297710349783 -9.601928861622976e-17 0.0
52.70499053189265 2.0404098830948824e-16 0.0
53.62601826035716 9.601928861622976e-17 0.0
54.50605177338414 1.4402893292434464e-16 0.0
55.34508355863594 -1.9203857723245952e-16 0.0
56.14309840675251 -2.400482215405744e-16 0.0
56.900065008724404 9.601928861622976e-17 0.0
57.615942730735945 -3.9007836000343344e-16 0.0
58.29071474726133 2.400482215405744e-16 0.0
58.92439688013718 4.800964430811488e-16 0.0
59.516987883892604 -9.00180830777154e-16 0.0
60.068303565106326 6.00120553851436e-18 0.0
60.578390683249566 -1.3802772738583027e-16 0.0
61.04741851025918 1.0202049415474412e-16 0.0
61.4754787627962 -4.2608559323451947e-16 0.0
61.862583404198574 -2.880578658486893e-16 0.0
62.208708542083265 5.791163344666357e-16 0.0
62.51386112682962 5.731151289281214e-16 0.0
62.77805196003517 2.41548522925203e-16 0.0
63.00127981815947 1.4402893292434464e-16 0.0
2.2491479643649495 -8.251657615457239e-18 0.8152906132198466
4.116583853666224 -1.50030138462859e-18 0.8405085085802856
6.209623089407616 1.800361661554308e-17 0.8937965186637558
8.31872715432684 2.400482215405744e-17 0.9506477078574839
10.40876436276429 7.351476784680091e-17 1.0206818772096897
12.463212632038742 -1.200241107702872e-17 1.0489549773990696
14.475710998858416 -1.350271246165731e-17 0.9930987765435381
16.44334711596189 -8.401687753920104e-17 0.9074282632533692
18.372112228767964 -4.800964430811488e-17 0.838943182596935
20.263430365320914 -4.200843876960052e-17 0.7804380392478912
22.11668435467058 -6.00120553851436e-17 0.725039155138254
23.931082171888455 -6.00120553851436e-17 0.6716005320172309
25.706046768040444 -4.6809403200412e-16 0.6190912009116676
27.440967823120296 4.200843876960052e-17 0.5668551203522251
29.135788145852672 -6.00120553851436e-18 0.5160737545271722
30.79063826883375 7.801567200068668e-17 0.4682432215925835
32.40535662526933 -1.4402893292434464e-16 0.4244759216876558
33.97971649412342 -1.4402893292434464e-16 0.3845740908079427
35.51356322617708 1.3802772738583027e-16 0.34771109645472914
37.00681610143269 -2.400482215405744e-17 0.3130568676883955
38.4594060760488 9.00180830777154e-17 0.2804728235147938
39.87127513824596 -8.401687753920104e-17 0.2502817247970272
41.24237613227781 2.400482215405744e-17 0.22269967179246203
42.57267088545185 1.800361661554308e-17 0.19756508903559158
43.86212604116303 -2.6405304369463184e-16 0.17527331282134884
45.110713707211566 -2.1604339938651696e-16 0.15618952887337026
46.31841132424579 1.200241107702872e-16 0.13996799493967957
47.48519988197479 1.6803375507840208e-16 0.12575834684106643
48.61106271772789 0.0 0.11252036551220722
49.69598397651387 -1.7403496061691643e-16 0.10008619772201267
50.739949751238576 1.800361661554308e-17 0.08845640514293832
51.74294793903299 4.380880043115483e-16 0.07764813403821604
52.70496796366244 -6.00120553851436e-18 0.06766754153320644
53.626000568473216 9.601928861622976e-17 0.05846867713071903
54.50603758566111 9.00180830777154e-17 0.05000632361005496
55.34507178501991 1.200241107702872e-17 0.04224556628624775
56.14309045749487 4.800964430811488e-17 0.03513713503931207
56.90006911969501 2.4604942707908875e-16 0.028610254341922235
57.61594737488592 4.740952375426344e-16 0.02259956362417136
58.29070038030004 4.800964430811488e-17 0.017476911002667805
58.92438539493126 -1.3802772738583027e-16 0.013355710955929908
59.51700246474245 -1.0202049415474412e-16 0.010110762084749264
60.06832153974306 1.8903797446320232e-16 0.007505342360414166
60.57838726675458 -2.880578658486893e-16 0.005475063785658978
61.047401510532566 -4.800964430811488e-17 0.003985447751433713
61.47546753505319 -4.350874015422911e-16 0.00294194193702002
61.86258759144862 -4.50090415388577e-17 0.0022286575278371436
62.20872007958786 -1.4402893292434464e-16 0.0017402354220081
62.51387119536955 3.900783600034334e-17 0.0014049497010025485
62.77805663656064 3.3606751015680416e-16 0.0011720086804935083
63.001278330338934 -3.8707775723417624e-16 0.001005217322995785
2.7456752694130286 1.950391800017167e-17 0.6209246706750495
4.910961231689025 -2.981849001949322e-17 0.6503643852165159
7.068971243290416 7.50150692314295e-18 0.6916665849454648
9.19474509913403 1.50030138462859e-17 0.7392485944001903
11.28258464098946 2.400482215405744e-17 0.7761138204782841
13.330006162003773 -7.201446646217232e-17 0.7657701577284781
15.335839605621796 -1.800361661554308e-17 0.7126976399238398
17.30034821892189 -9.00180830777154e-17 0.6548892921938642
19.224379340000283 1.1402290523177283e-16 0.6072679581918091
21.108078052173866 1.6803375507840208e-16 0.5645539478948045
22.951312172709358 -6.00120553851436e-17 0.5237398826833071
24.75391988747573 8.401687753920104e-17 0.4840093998483365
26.515757121970726 9.00180830777154e-17 0.44472987047395984
28.236747385677152 -3.0306087969497517e-16 0.4060983280797737
29.91690477209333 1.4102833015508744e-16 0.36911886604490846
31.556227604804015 -9.00180830777154e-18 0.3347696787300899
33.154669745833644 5.701145261588641e-17 0.30339375468584956
34.71218631683369 1.050210969240013e-16 0.27460694522350176
36.22875041803263 3.630729350801188e-16 0.2477879865536716
37.7043449402784 7.50150692314295e-17 0.22257363420119608
39.138954977358225 2.400482215405744e-16 0.199032955616933
40.53256812923529 1.4402893292434464e-16 0.17736802372105845
41.88517444939375 -2.67053646463889e-16 0.15759928531052028
43.196765560753036 -3.600723323108616e-16 0.1398144006963528
44.467334219096045 4.560916209270913e-16 0.12429856563551943
45.69687455627721 -3.120626880027467e-16 0.11105907142989362
46.88538183183168 3.570717295416044e-16 0.09964737816777981
48.032851969677054 -2.1604339938651696e-16 0.08935451713247776
49.13928111080876 3.3606751015680416e-16 0.07972746121283249
50.20466561693029 -5.521109095433211e-16 0.07070347607435665
51.22900230720901 9.601928861622976e-17 0.0622892021929329
52.21228841104272 -1.4402893292434464e-16 0.054493378339283416
53.15452150704879 9.301868584697257e-17 0.04730108199897209
54.05569946743292 1.9203857723245952e-16 0.040678125277790286
54.91582040866653 6.211247732362362e-16 0.03459445871111353
55.734882002334984 -1.9503918000171672e-16 0.029018512997084918
56.51288016220096 2.400482215405744e-16 0.023905271017962883
57.249803358005394 8.611729947768106e-16 0.01920368173728511
57.94563926524502 -4.800964430811488e-16 0.01502867798506469
58.600394297171825 2.880578658486893e-16 0.011562233234474141
59.21407810456794 -2.370476187713172e-16 0.008799927390254685
59.78665827260616 -2.385479201559458e-16 0.006606039166936283
60.31810923677566 -3.8107655169566184e-16 0.0048676523047774265
60.80846480543849 -3.3606751015680416e-16 0.003547691826409763
61.25776568363488 -9.601928861622976e-17 0.0025977711331701507
61.66602459660972 9.601928861622976e-17 0.0019389747993214372
62.033234573035365 -7.696546103144666e-16 0.0014883348561919656
62.35939038022873 4.950994569274347e-17 0.0011794444211289939
62.64449515631217 3.3681766084911844e-16 0.000966359393061021
62.888551547146264 -5.731151289281214e-16 0.0008164597513084836

VECTORS centroid-point-mean float
0.0 0.05903982359383074 0.021178893053341263
0.0 0.11211698743094424 -0.007773283343636848
0.0 0.1650840160013744 -0.034695891683603514
0.0 0.21718976712692273 -0.06088994838290375
0.0 0.2684275155615147 -0.08636710190943414
0.0 0.3183071474691675 -0.11197625432860595
0.0 0.3664102573379776 -0.13844210524520892
0.0 0.4126308275874129 -0.1659482824952142
0.0 0.457622980899378 -0.1933618123591862
0.0 0.5016513477409594 -0.22022434142289224
0.0 0.5447134556962374 -0.24654015203633073
0.0 0.5868039473910454 -0.2723185234437465
0.0 0.627917281359638 -0.2975690537453661
0.0 0.6680086460295932 -0.3223693588613833
0.0 0.7071077523513833 -0.3466679779160443
0.0 0.7452796711319603 -0.37035220496561916
0.0 0.7825340706538276 -0.3934052940535882
0.0 0.8188551389939761 -0.4158546322339745
0.0 0.8542314827287905 -0.4377199534953332
0.0 0.8886630984531784 -0.4590012637354786
0.0 0.9221499828529709 -0.4796985686947135
0.0 0.9546921327049355 -0.4998118739558411
0.0 0.9862895448767798 -0.5193411849441357
0.0 1.016942216327155 -0.5382865069273928
0.0 1.046650144105638 -0.5566478450158738
0.0 1.075413325352756 -0.5744252041623493
0.0 1.103231757299961 -0.5916185891620656
0.0 1.1301054372696577 -0.608228004652776
0.0 1.1560343666893473 -0.6242534481619553
0.0 1.181018598200196 -0.6396948285124329
0.0 1.2050581402625669 -0.6545521310504416
0.0 1.2281529821903188 -0.6688253742849195
0.0 1.2503031137172786 -0.6825145759973896
0.0 1.2715085249972642 -0.6956197532419529
0.0 1.291769206604055 -0.7081409223452728
0.0 1.3110851495314404 -0.7200780989066
0.0 1.3294507303562328 -0.7314410229805788
0.0 1.3468481137312494 -0.7422605862947202
0.0 1.3632500053826975 -0.752584063917994
0.0 1.3786421660092523 -0.7624361190437465
0.0 1.3930327427396503 -0.7718026404310554
0.0 1.406417498888036 -0.780690966235114
0.0 1.4186358622744586 -0.789379215629848
0.0 1.4296914312248685 -0.7978611561319017
0.0 1.4397054031750265 -0.8059268676247822
0.0 1.4487604285823223 -0.8134331953170489
0.0 1.4568775835921104 -0.8203436342540839
0.0 1.464037118755955 -0.8266923914840336
0.0 1.470256690281385 -0.8324488855583477
0.0 1.4755710862326772 -0.8375528617822426
0.0 1.4800104216505225 -0.8419521593751443
-0.8152906132198466 0.0124617368548486 -0.05949671969792784
-0.8405085085802856 0.06410284595415 -0.09093621586324752
-0.8937965186637558 0.11401111109770648 -0.1231567578668917
-0.9506477078574839 0.16284636903799002 -0.15501547492887932
-1.0206818772096897 0.2106222372264167 -0.18648878093148685
-1.0489549773990696 0.2577567503779033 -0.2168526185091504
-0.9930987765435381 0.3045442836525633 -0.24559711492806907
-0.9074282632533692 0.3512466668159864 -0.2722687677313069
-0.838943182596935 0.3973125871884803 -0.2978224784909461
-0.7804380392478912 0.44247949207445864 -0.3227130018154056
-0.725039155138254 0.48669343380250696 -0.34703377781253486
-0.6716005320172309 0.529958492820758 -0.37077773893883353
-0.6190912009116676 0.5722844933975387 -0.39392786906243077
-0.5668551203522251 0.6137191333376478 -0.4164015531619912
-0.5160737545271722 0.6542342696906769 -0.438247536257504
-0.4682432215925835 0.6937623219626692 -0.4595828711981074
-0.4244759216876558 0.7322936267910337 -0.4804242954187682
-0.3845740908079427 0.7698439050306032 -0.5007445796001835
-0.34771109645472914 0.8064233153855287 -0.5205261283506285
-0.3130568676883955 0.8420301792362779 -0.5397718491244137
-0.2804728235147938 0.876663935749886 -0.5584827133127346
-0.2502817247970272 0.9103245488944934 -0.5766587833245969
-0.22269967179246203 0.9430117591673312 -0.5943005086319878
-0.19756508903559158 0.9747249165322502 -0.6114090151305372
-0.17527331282134884 1.005463871915594 -0.6279845610233937
-0.15618952887337026 1.0352283614019027 -0.6440276034255501
-0.13996799493967957 1.0640176151718823 -0.6595394757031375
-0.12575834684106643 1.0918307005851327 -0.6745217932366995
-0.11252036551220722 1.1186667940039499 -0.6889759826085848
-0.10008619772201267 1.144525762515487 -0.7029022740306263
-0.08845640514293832 1.169407546169294 -0.7163007713400106
-0.07764813403821604 1.193312075044622 -0.7291715956430562
-0.06766754153320644 1.2162392714108143 -0.7415148815731895
-0.05846867713071903 1.2381890398091948 -0.7533307944697168
-0.05000632361005496 1.259161293168087 -0.7646194851451713
-0.04224556628624775 1.2791559547512814 -0.7753810865105908
-0.03513713503931207 1.2981770845280969 -0.785608566492824
-0.028610254341922235 1.3162377898509257 -0.7952792224915892
-0.02259956362417136 1.3333786489251784 -0.804322770993421
-0.017476911002667805 1.3496206701410394 -0.8127028243991307
-0.013355710955929908 1.3649258587170519 -0.8204851916006579
-0.010110762084749264 1.3792952727308938 -0.8276680399536585
-0.007505342360414166 1.3929250475322863 -0.8339116530672781
-0.005475063785658978 1.4058169116577757 -0.839213037028409
-0.003985447751433713 1.4178231639823857 -0.843828017689823
-0.00294194193702002 1.428846684967673 -0.8479248110265177
-0.0022286575278371436 1.4388719645857053 -0.8515302811949079
-0.0017402354220081 1.447938887877612 -0.8545753452772821
-0.0014049497010025485 1.4560340641019032 -0.857083196718278
-0.0011720086804935083 1.4631189874011763 -0.8591205296192647
-0.001005217322995785 1.4691603248586047 -0.8607450782857733
-0.6209246706750495 0.05010631993147116 -0.05473664962172776
-0.6503643852165159 0.1014428593234857 -0.08559351202720769
-0.6916665849454648 0.15160577794192345 -0.11626281730672698
-0.7392485944001903 0.2007528876852063 -0.1464712272341795
-0.7761138204782841 0.24898395323045538 -0.1760459443199938
-0.7657701577284781 0.29645256336231773 -0.20472094498568574
-0.7126976399238398 0.3433017420413794 -0.23224850446481946
-0.6548892921938642 0.38949144631252414 -0.25869797919014464
-0.6072679581918091 0.43483132080364706 -0.284399074337644
-0.5645539478948045 0.4792354476335122 -0.3095006040428805
-0.5237398826833071 0.5226841478696347 -0.3340366532167746
-0.4840093998483365 0.565181273425696 -0.35800055014911486
-0.44472987047395984 0.6067421009493503 -0.3813658349100016
-0.4060983280797737 0.6473720759332435 -0.4041230756294919
-0.36911886604490846 0.6870471498054225 -0.426313925656062
-0.3347696787300899 0.7257476985058606 -0.44797237485872643
-0.30339375468584956 0.7634752256390895 -0.46909581891805285
-0.27460694522350176 0.8002360353713942 -0.489673338697718
-0.2477879865536716 0.8360318831309239 -0.5097018937069924
-0.22257363420119608 0.8708619282830817 -0.5291829399677034
-0.199032955616933 0.9047259461863794 -0.548116866570319
-0.17736802372105845 0.9376238252208973 -0.5665038668462199
-0.15759928531052028 0.9695552235378344 -0.5843445328948887
-0.1398144006963528 1.00051984072204 -0.6016393850506349
-0.12429856563551943 1.03051752117636 -0.6183886928156339
-0.11105907142989362 1.0595478765467585 -0.6345931288388131
-0.09964737816777981 1.0876102677300814 -0.6502538000792899
-0.08935451713247776 1.1147040359657816 -0.6653718475438196
-0.07972746121283249 1.140828829305984 -0.6799478808240016
-0.07070347607435665 1.1659845830646365 -0.6939820119593488
-0.0622892021929329 1.1901712482618279 -0.7074743257855713
-0.054493378339283416 1.2133887669092405 -0.7204249227413796
-0.04730108199897209 1.235637071546821 -0.7328339196710059
-0.040678125277790286 1.2569160913166435 -0.7447014393039815
-0.03459445871111353 1.2772257624867043 -0.7560275920273956
-0.029018512997084918 1.2965668747157277 -0.7668110101121817
-0.023905271017962883 1.3149429334030664 -0.7770456220285653
-0.01920368173728511 1.3323684294302773 -0.7867063288334615
-0.01502867798506469 1.3488612660738217 -0.7957621211424207
-0.011562233234474141 1.3644143119153944 -0.8042253509342702
-0.008799927390254685 1.3790142044964404 -0.8121191626661354
-0.006606039166936283 1.3927142902440028 -0.8193511576159694
-0.0048676523047774265 1.4055691463836932 -0.8258268052561024
-0.003547691826409763 1.4175396326650485 -0.8316138984889212
-0.0025977711331701507 1.4285594223259437 -0.8368273186363577
-0.0019389747993214372 1.4385992451043235 -0.8415177632794243
-0.0014883348561919656 1.4476684074672532 -0.8456691131443338
-0.0011794444211289939 1.4557765831219858 -0.8492646128786272
-0.000966359393061021 1.4629108663779102 -0.8523266157941521
-0.0008164597513084836 1.4690524305828228 -0.8548877306090681

VECTORS centroid-point-cyl-variance float
9.579999999999999e-30 0.0 0.0
3.991e-29 1.9999999999999998e-32 0.0
6.440999999999999e-29 4.999999999999999e-32 0.0
1.437e-28 8.999999999999999e-32 0.0
1.8488999999999998e-28 1.3e-31 0.0
2.8186e-28 1.6999999999999998e-31 0.0
3.5546e-28 2.1e-31 0.0
4.3665e-28 3.1e-31 0.0
5.2466e-28 3.8e-31 0.0
7.354699999999999e-28 3.9999999999999995e-31 0.0
7.293299999999999e-28 5.3e-31 0.0
9.3879e-28 6.0e-31 0.0
9.9848e-28 5.2e-31 0.0
1.15916e-27 5.5e-31 0.0
1.3379099999999999e-27 2.6999999999999997e-31 0.0
1.34712e-27 1.15e-30 0.0
1.59648e-27 1.14e-30 0.0
1.7506699999999997e-27 1.71e-30 0.0
2.00584e-27 8.7e-31 0.0
2.0522299999999998e-27 1.1599999999999999e-30 0.0
2.36334e-27 2.04e-30 0.0
2.6417e-27 1.87e-30 0.0
2.83137e-27 2.0099999999999997e-30 0.0
2.7262999999999997e-27 2.45e-30 0.0
3.01149e-27 1.0299999999999999e-30 0.0
3.39901e-27 1.42e-30 0.0
3.6350699999999996e-27 1.64e-30 0.0
3.50271e-27 1.5599999999999999e-30 0.0
3.48361e-27 3.28e-30 0.0
4.0062199999999996e-27 2.59e-30 0.0
3.81519e-27 2.8099999999999998e-30 0.0
4.05944e-27 1.57e-30 0.0
4.19452e-27 1.97e-30 0.0
4.61616e-27 2.2099999999999998e-30 0.0
4.9067999999999994e-27 3.1299999999999997e-30 0.0
5.02415e-27 2.69e-30 0.0
4.84267e-27 1.8999999999999998e-30 0.0
5.30251e-27 3.23e-30 0.0
4.6216199999999995e-27 2.75e-30 0.0
5.07736e-27 4.1199999999999995e-30 0.0
4.97639e-27 2.1599999999999998e-30 0.0
5.3543599999999995e-27 3.71e-30 0.0
5.49491e-27 3.9199999999999995e-30 0.0
5.15105e-27 2.63e-30 0.0
7.35201e-27 4.08e-30 0.0
6.0966599999999994e-27 2.12e-30 0.0
7.536219999999999e-27 1.45e-30 0.0
6.0461699999999996e-27 4.44e-30 0.0
5.62999e-27 2.0599999999999998e-30 0.0
6.04208e-27 2.07e-30 0.0
5.7105e-27 2.79e-30 0.0
6.08e-30 9.999999999999999e-33 4.999999999999999e-32
1.9759999999999998e-29 3.0e-32 3.1e-31
5.816e-29 3.9999999999999997e-32 9.999999999999999e-33
1.0507e-28 7.0e-32 4.4e-31
1.5863e-28 7.999999999999999e-32 4.999999999999999e-32
2.3059999999999997e-28 2.8999999999999996e-31 7.9e-31
2.8372999999999997e-28 1.4e-31 1.9999999999999997e-31
3.6125999999999996e-28 3.1999999999999997e-31 4.999999999999999e-32
4.8884e-28 2.8e-31 3.1e-31
7.017e-28 4.7e-31 4.999999999999999e-32
6.8328e-28 5.2e-31 4.999999999999999e-32
9.6164e-28 4.4e-31 4.999999999999999e-32
9.8859e-28 7.5e-31 4.999999999999999e-32
1.0820599999999999e-27 6.7e-31 4.999999999999999e-32
1.5146099999999999e-27 5.3e-31 0.0
1.41807e-27 9.499999999999999e-31 4.999999999999999e-32
1.80935e-27 8.8e-31 1.5e-31
2.34287e-27 1.64e-30 4.999999999999999e-32
1.98264e-27 9.6e-31 7.999999999999999e-32
1.97173e-27 1.8499999999999998e-30 9.999999999999999e-33
2.29512e-27 1.02e-30 0.0
2.3401499999999997e-27 2.15e-30 3.0e-32
2.46022e-27 7.9e-31 0.0
3.25301e-27 2.07e-30 1.9999999999999998e-32
2.95691e-27 3.11e-30 9.999999999999999e-33
2.88868e-27 1.68e-30 1.9999999999999998e-32
3.2448199999999996e-27 1.63e-30 1.9999999999999998e-32
3.74833e-27 3.15e-30 1.9999999999999998e-32
3.39492e-27 1.9999999999999998e-30 9.999999999999999e-33
4.28867e-27 1.4399999999999998e-30 0.0
4.28731e-27 3.01e-30 0.0
3.83838e-27 1.0499999999999999e-30 0.0
3.8806799999999995e-27 2.6e-30 0.0
4.1726899999999996e-27 3.23e-30 0.0
5.0527999999999994e-27 2.2099999999999998e-30 0.0
5.0705399999999996e-27 2.9e-30 0.0
4.40329e-27 2.3e-30 0.0
5.04598e-27 2.07e-30 0.0
5.00505e-27 4.21e-30 0.0
5.0132299999999995e-27 3.84e-30 0.0
5.4239499999999994e-27 5.7e-30 0.0
5.1701499999999994e-27 3.06e-30 0.0
5.5795099999999994e-27 4.23e-30 0.0
5.27931e-27 4.18e-30 0.0
5.37619e-27 2.4699999999999997e-30 0.0
5.7105e-27 3.48e-30 0.0
5.61089e-27 2.8099999999999998e-30 0.0
6.224919999999999e-27 2.79e-30 0.0
6.54558e-27 3.15e-30 0.0
5.68048e-27 6.62e-30 0.0
8.5255e-27 2.58e-30 0.0
9.829999999999999e-30 0.0 4.999999999999999e-32
3.264e-29 4.999999999999999e-32 4.999999999999999e-32
7.466e-29 3.9999999999999997e-32 4.999999999999999e-32