# vtk DataFile Version 4.0
 
ASCII
DATASET UNSTRUCTURED_GRID
POINTS 152 float
0.0 -1.7708707345902657 1.4999999999999762
0.0 -1.8250854161554255 3.7363636363635804
0.0 -1.9422959226419867 5.9316512059368325
0.0 -2.066917732863302 8.085862708719732
0.0 -2.1984531786098147 10.19899814471228
0.0 -2.300633836018876 12.271057513914478
0.0 -2.3424976972094487 14.302040816326326
0.0 -2.3161994612223675 16.291948051947816
0.0 -2.2701442065184088 18.240779220778958
0.0 -2.2239145876620663 20.148534322819746
0.0 -2.1773276458752022 22.015213358070184
0.0 -2.1299869354696592 23.84081632653027
0.0 -2.081482387980085 25.6253432282
0.0 -2.02849794704729 27.36879406307938
0.0 -1.9732322230062316 29.071168831168418
0.0 -1.9205004555715726 30.73246753246709
0.0 -1.8710180976482003 32.352690166975414
0.0 -1.8236150669334537 33.93183673469339
0.0 -1.7774482500805018 35.469907235621015
0.0 -1.7325173951116433 36.966901669758286
0.0 -1.6888222567785522 38.422820037105204
0.0 -1.6463625965622766 39.83766233766177
0.0 -1.6051381826732405 41.21142857142799
0.0 -1.5651487900512397 42.544118738403846
0.0 -1.526394200365449 43.83573283858935
0.0 -1.4888742020144157 45.08627087198451
0.0 -1.4525885901260613 46.29573283858931
0.0 -1.4175371665576837 47.46411873840377
0.0 -1.383720036945111 48.591428571427876
0.0 -1.3511410967341266 49.67766233766163
0.0 -1.319800971991887 50.72282003710503
0.0 -1.2896988719435396 51.72690166975808
0.0 -1.2608340368927187 52.68990723562078
0.0 -1.2332057382215478 53.611836734693114
0.0 -1.2068132783906371 54.49269016697511
0.0 -1.1816559909390842 55.33246753246674
0.0 -1.1573177425522183 56.131168831168026
0.0 -1.1324787175376356 56.888794063078954
0.0 -1.105119139634513 57.605343228199544
0.0 -1.0741853005455337 58.280816326529774
0.0 -1.040280087797529 58.91521335806966
0.0 -1.0030899866357659 59.50853432281919
0.0 -0.9507326557451464 60.060779220778365
0.0 -0.8834743712456716 60.57194805194719
0.0 -0.8102837433833435 61.04204081632565
0.0 -0.7372769060048652 61.47105751391378
0.0 -0.6660134938675435 61.85899814471155
0.0 -0.5950320477856312 62.20586270871896
0.0 -0.5256391271176438 62.51165120593602
0.0 -0.4604090486189223 62.77636363636273
0.0 -0.4015703253015557 62.99999999999909
-0.8152906132198464 1.6759076840945273 1.499999999999981
-0.840508508580286 1.7279610531274792 3.736363636363585
-0.8937965186637556 1.8370990402295628 5.931651205936838
-0.9506477078574832 1.9544937257178565 8.08586270871974
-1.02068187720969 2.0791374181875906 10.198998144712288
-1.0489549773990687 2.18009554873485 12.271057513914485
-0.9930987765435385 2.235584355511352 14.30204081632633
-0.9074282632533693 2.226228435863453 16.291948051947823
-0.8389431825969345 2.192824928088254 18.240779220778965
-0.7804380392478915 2.154802731659089 20.148534322819753
-0.7250391551382538 2.1161539742610236 22.01521335807019
-0.6716005320172311 2.0765767027317517 23.840816326530277
-0.6190912009116674 2.035343921215578 25.625343228200006
-0.5668551203522249 1.9889259921568154 27.368794063079395
-0.5160737545271722 1.939405493886171 29.07116883116842
-0.46824322159258325 1.8917833829564183 30.732467532467094
-0.42447592168765613 1.846774748198855 32.352690166975414
-0.38457409080794247 1.8032162463561578 33.93183673469339
-0.3477110964547294 1.760356133321345 35.469907235621015
-0.31305686768839563 1.7183186269393333 36.966901669758286
-0.2804728235147938 1.6771452288499749 38.422820037105204
-0.25028172479702737 1.6368386054106476 39.83766233766177
-0.22269967179246206 1.5974179598262734 41.21142857142799
-0.19756508903559172 1.558931394771728 42.544118738403846
-0.17527331282134875 1.5213899416978844 43.83573283858935
-0.15618952887337012 1.4848131303488994 45.08627087198451
-0.1399679949396797 1.4492579273522432 46.29573283858931
-0.12575834684106657 1.4147933480972654 47.46411873840377
-0.11252036551220733 1.3814803417743666 48.591428571427876
-0.1000861977220127 1.349328743934639 49.67766233766163
-0.08845640514293837 1.3183429909105417 50.72282003710503
-0.07764813403821604 1.2885282568381045 51.72690166975808
-0.06766754153320646 1.259890293785448 52.68990723562078
-0.05846867713071907 1.2324361656952902 53.611836734693114
-0.05000632361005495 1.2061723158710644 54.49269016697511
-0.04224556628624775 1.1811044227923606 55.33246753246674
-0.03513713503931205 1.1569320487300931 56.131168831168026
-0.02861025434192226 1.1326852496066666 56.888794063078954
-0.022599563624171346 1.1053612382217417 57.605343228199544
-0.017476911002667815 1.0734053937018597 58.280816326529774
-0.0133557109559299 1.0396293298753951 58.91521335806966
-0.010110762084749267 1.0039547489927971 59.50853432281919
-0.007505342360414162 0.9518676351755693 60.060779220778365
-0.005475063785658977 0.8832400767192999 60.57194805194719
-0.0039854477514337135 0.8090019568723784 61.04204081632565
-0.0029419419370200197 0.736340121479024 61.47105751391378
-0.0022286575278371427 0.6664023126066094 61.85899814471155
-0.0017402354220080998 0.5962370372114337 62.20586270871896
-0.0014049497010025483 0.526835210164278 62.51165120593602
-0.0011720086804935075 0.46104626491199574 62.77636363636273
-0.0010052173229957839 0.4013368373001792 62.99999999999909
-0.6209246706750498 0.8269562576150412 2.618181818181782
-0.6503643852165156 0.8659748676592143 4.83400742115021
-0.6916665849454646 0.9206955802921215 7.008756957328288
-0.73924859440019 0.9794403150304035 9.142430426716013
-0.7761138204782846 1.0348264857673293 11.235027829313385
-0.7657701577284777 1.0754885224387856 13.286549165120409
-0.7126976399238405 1.090842651961575 15.296994434137074
-0.6548892921938638 1.083852053014293 17.26636363636339
-0.6072679581918097 1.0686030231326944 19.194656771799355
-0.5645539478948045 1.0514534855278839 21.08187384044497
-0.5237398826833068 1.0338596812041831 22.92801484230023
-0.4840093998483369 1.015536568549031 24.733079777365138
-0.4447298704739596 0.9953536756362259 26.497068645639693
-0.40609832807977386 0.9729080360094297 28.219981447123907
-0.3691188660449083 0.9499792439937456 29.90181818181775
-0.3347696787300898 0.9280194800307557 31.542578849721256
-0.3033937546858495 0.9069174773854232 33.142263450834406
-0.27460694522350193 0.8862067277523191 34.70087198515721
-0.24778798655367185 0.8657573294487365 36.218404452689654
-0.22257363420119602 0.845631489434716 37.69486085343175
-0.19903295561693296 0.8258458311801298 39.13024118738349
-0.17736802372105853 0.8064086145594058 40.52454545454488
-0.15759928531052017 0.7873451363836906 41.87777365491591
-0.1398144006963527 0.7686776273740186 43.1899257884966
-0.12429856563551955 0.750417601720061 44.46100185528693
-0.11105907142989367 0.732593797620369 45.69100185528691
-0.09964737816777985 0.7152535087080976 46.879925788496536
-0.08935451713247772 0.6984454832640128 48.02777365491582
-0.07972746121283251 0.6821957654309725 49.13454545454475
-0.07070347607435665 0.666509141976191 50.20024118738333
-0.06228920219293291 0.6513892374138142 51.22486085343155
-0.05449337833928344 0.6368403428792998 52.20840445268943
-0.04730108199897208 0.6228674504159933 53.15087198515693
-0.04067812527779026 0.6094758035108597 54.0522634508341
-0.03459445871111351 0.5966701183325691 54.91257884972092
-0.029018512997084925 0.5843919601345072 55.731818181817374
-0.023905271017962866 0.572381929365053 56.50998144712349
-0.0192036817372851 0.5595677007891343 57.24706864563925
-0.015028677985064689 0.5446244319488448 57.94307977736466
-0.011562233234474143 0.5280798477985876 58.59801484229971
-0.008799927390254687 0.5109227702714104 59.211873840444426
-0.006606039166936287 0.4892055637655233 59.78465677179878
-0.004867652304777427 0.4588895135867238 60.31636363636277
-0.003547691826409759 0.42287099826825253 60.80699443413642
-0.00259777113317015 0.3860581982082498 61.256549165119715
-0.001938974799321436 0.3506171127980614 61.66502782931267
-0.0014883348561919659 0.31585906347511944 62.03243042671525
-0.001179444421128993 0.2810681959029825 62.358756957327486
-0.000966359393061021 0.24719953118653185 62.64400742114937
-0.0008164597513084843 0.21564624158950582 62.88818181818091

CELLS 100 350
4 0 51 52 1
4 1 52 53 2
4 2 53 54 3
4 3 54 55 4
4 4 55 56 5
4 5 56 57 6
4 6 57 58 7
4 7 58 59 8
4 8 59 60 9
4 9 60 61 10
4 10 61 62 11
4 11 62 63 12
4 12 63 64 13
4 13 64 65 14
4 14 65 66 15
4 15 66 67 16
4 16 67 68 17
4 17 68 69 18
4 18 69 70 19
4 19 70 71 20
4 20 71 72 21
4 21 72 73 22
4 22 73 74 23
4 23 74 75 24
4 24 75 76 25
4 25 76 77 26
4 26 77 78 27
4 27 78 79 28
4 28 79 80 29
4 29 80 81 30
4 30 81 82 31
4 31 82 83 32
4 32 83 84 33
4 33 84 85 34
4 34 85 86 35
4 35 86 87 36
4 36 87 88 37
4 37 88 89 38
4 38 89 90 39
4 39 90 91 40
4 40 91 92 41
4 41 92 93 42
4 42 93 94 43
4 43 94 95 44
4 44 95 96 45
4 45 96 97 46
4 46 97 98 47
4 47 98 99 48
4 48 99 100 49
4 49 100 101 50
1 102
1 103
1 104
1 105
1 106
1 107
1 108
1 109
1 110
1 111
1 112
1 113
1 114
1 115
1 116
1 117
1 118
1 119
1 120
1 121
1 122
1 123
1 124
1 125
1 126
1 127
1 128
1 129
1 130
1 131
1 132
1 133
1 134
1 135
1 136
1 137
1 138
1 139
1 140
1 141
1 142
1 143
1 144
1 145
1 146
1 147
1 148
1 149
1 150
1 151

CELL_TYPES 100
7
7
7
7
7
7
7
7
7
7
7
7
7
7
7
7
7
7
7
7
7
7
7
7
7
7
7
7
7
7
7
7
7
7
7
7
7
7
7
7
7
7
7
7
7
7
7
7
7
7
7
7
7
7
7
7
7
7
7
7
7
7
7
7
7
7
7
7
7
7
7
7
7
7
7
7
7
7
7
7
7
7
7
7
7
7
7
7
7
7
7
7
7
7
7
7
7
7
7
7

POINT_DATA 152

VECTORS centroid-point-cyl-mean float
2.320772103983549 7.50150692314295e-18 0.0
4.158286906816727 0.0 0.0
6.241554251947494 3.07561783848861e-17 0.0
8.345856736051106 4.200843876960052e-17 0.0
10.433252586532394 -8.101627476994385e-17 0.0
12.484861575413362 -2.475497284637174e-17 0.0
14.492607321434505 -6.00120553851436e-17 0.0
16.45576954358364 -3.00060276925718e-18 0.0
18.38150106219818 1.3202652184731592e-16 0.0
20.270896167931614 -9.601928861622976e-17 0.0
22.12262133832353 6.00120553851436e-17 0.0
23.93577589009029 7.201446646217232e-17 0.0
25.709741042930226 8.401687753920104e-17 0.0
27.44386438511219 4.800964430811488e-17 0.0
29.13805934883471 2.100421938480026e-16 0.0
30.792415992156258 9.601928861622976e-17 0.0
32.40674728759493 -3.600723323108616e-17 0.0
33.98080511262561 -7.201446646217232e-17 0.0
35.51441456064399 1.200241107702872e-16 0.0
37.007478103566484 -1.6803375507840208e-16 0.0
38.459917059437025 -8.401687753920104e-17 0.0
39.87166726296913 -2.820566603101749e-16 0.0
41.24267587685597 1.3802772738583027e-16 0.0
42.57289900820022 2.2804581046354566e-16 0.0
43.86229990266245 0.0 0.0
45.110847559444025 -3.8407715446491904e-16 0.0
46.31851565706975 -1.620325495398877e-16 0.0
47.485281711619635 -1.9203857723245952e-16 0.0
48.61112641929659 -2.1604339938651696e-16 0.0
49.69603321793425 2.4604942707908875e-16 0.0
50.73998765394245 -2.880578658486893e-16 0.0
51.74297710349812 -2.220446049250313e-16 0.0
52.70499053189295 9.601928861622976e-17 0.0
53.626018260357476 -1.4402893292434464e-16 0.0
54.50605177338447 1.4402893292434464e-16 0.0
55.34508355863626 -7.801567200068668e-17 0.0
56.143098406752856 -3.3006630461828976e-16 0.0
56.90006500872475 -4.800964430811488e-17 0.0
57.61594273073631 9.00180830777154e-17 0.0
58.29071474726167 -3.8407715446491904e-16 0.0
58.924396880137515 -1.9203857723245952e-16 0.0
59.51698788389299 6.00120553851436e-17 0.0
60.06830356510668 3.420687156953185e-16 0.0
60.57839068324996 3.00060276925718e-18 0.0
61.04741851025958 4.380880043115483e-16 0.0
61.47547876279656 1.9503918000171672e-16 0.0
61.86258340419888 1.4702953569360181e-16 0.0
62.20870854208365 1.3802772738583027e-16 0.0
62.51386112683 4.350874015422911e-16 0.0
62.77805196003553 4.950994569274347e-17 0.0
63.001279818159844 -1.50030138462859e-18 0.0
2.249147964364961 1.012703434624298e-17 0.8152906132198466
4.1165838536662465 3.450693184645757e-17 0.8405085085802856
6.209623089407646 2.100421938480026e-17 0.8937965186637558
8.31872715432688 -7.50150692314295e-17 0.9506477078574839
10.408764362764346 3.750753461571475e-17 1.0206818772096897
12.463212632038802 -3.600723323108616e-17 1.0489549773990696
14.475710998858496 1.200241107702872e-17 0.9930987765435381
16.44334711596199 -7.201446646217232e-17 0.9074282632533692
18.37211222876807 -3.600723323108616e-17 0.838943182596935
20.263430365321014 1.50030138462859e-16 0.7804380392478912
22.1166843546707 1.50030138462859e-16 0.725039155138254
23.931082171888608 -3.8407715446491904e-16 0.6716005320172309
25.706046768040572 -1.0802169969325848e-16 0.6190912009116676
27.44096782312044 1.800361661554308e-17 0.5668551203522251
29.135788145852857 -4.200843876960052e-17 0.5160737545271722
30.79063826883392 0.0 0.4682432215925835
32.40535662526952 -1.4402893292434464e-16 0.4244759216876558
33.979716494123636 1.3802772738583027e-16 0.3845740908079427
35.51356322617728 2.5805183815611744e-16 0.34771109645472914
37.00681610143291 -1.8603737169394515e-16 0.3130568676883955
38.45940607604902 1.200241107702872e-16 0.2804728235147938
39.87127513824619 -5.401084984662924e-17 0.2502817247970272
41.24237613227804 2.220446049250313e-16 0.22269967179246203
42.57267088545211 1.200241107702872e-16 0.19756508903559158
43.86212604116327 -2.1604339938651696e-16 0.17527331282134884
45.110713707211815 -1.9803978277097387e-16 0.15618952887337026
46.318411324246036 -2.5805183815611744e-16 0.13996799493967957
47.4851998819751 2.400482215405744e-17 0.12575834684106643
48.61106271772817 -4.560916209270913e-16 0.11252036551220722
49.69598397651413 -9.601928861622976e-17 0.10008619772201267
50.739949751238846 -2.9405907138720363e-16 0.08845640514293832
51.74294793903327 -5.401084984662924e-17 0.07764813403821604
52.70496796366273 3.240650990797754e-16 0.06766754153320644
53.626000568473515 1.800361661554308e-17 0.05846867713071903
54.50603758566143 -2.820566603101749e-16 0.05000632361005496
55.345071785020245 4.800964430811488e-17 0.04224556628624775
56.143090457495184 -1.9203857723245952e-16 0.03513713503931207
56.900069119695345 -2.400482215405744e-16 0.028610254341922235
57.61594737488622 7.801567200068668e-17 0.02259956362417136
58.29070038030037 -4.800964430811488e-17 0.017476911002667805
58.92438539493164 -9.061820363156682e-16 0.013355710955929908
59.517002464742774 5.641133206203498e-16 0.010110762084749264
60.06832153974338 1.4102833015508744e-16 0.007505342360414166
60.57838726675495 0.0 0.005475063785658978
61.047401510532936 9.00180830777154e-17 0.003985447751433713
61.47546753505355 -9.601928861622976e-17 0.00294194193702002
61.86258759144901 5.101024707737206e-17 0.0022286575278371436
62.2087200795882 -1.9203857723245952e-16 0.0017402354220081
62.513871195369894 -2.9405907138720363e-16 0.0014049497010025485
62.77805663656103 2.385479201559458e-16 0.0011720086804935083
63.00127833033933 3.285660032336612e-16 0.001005217322995785
2.745675269413043 -2.62552742310003e-18 0.6209246706750495
4.910961231689052 -1.7956732197273438e-17 0.6503643852165159
7.0689712432904575 3.150632907720039e-17 0.6916665849454648
9.194745099134074 2.400482215405744e-17 0.7392485944001903
11.282584640989521 -5.101024707737206e-17 0.7761138204782841
13.330006162003842 -9.601928861622976e-17 0.7657701577284781
15.335839605621883 -6.00120553851436e-18 0.7126976399238398
17.300348218921993 3.00060276925718e-17 0.6548892921938642
19.224379340000393 -1.4402893292434464e-16 0.6072679581918091
21.108078052173994 2.2804581046354566e-16 0.5645539478948045
22.951312172709493 4.200843876960052e-17 0.5237398826833071
24.753919887475856 1.1402290523177283e-16 0.4840093998483365
26.515757121970875 7.801567200068668e-17 0.44472987047395984
28.2367473856773 8.101627476994385e-17 0.4060983280797737
29.916904772093506 1.8603737169394515e-16 0.36911886604490846
31.556227604804178 -2.700542492331462e-17 0.3347696787300899
33.15466974583381 3.750753461571475e-16 0.30339375468584956
34.71218631683389 3.4506931846457566e-16 0.27460694522350176
36.22875041803281 -1.83036768924688e-16 0.2477879865536716
37.70434494027864 -4.50090415388577e-17 0.22257363420119608
39.13895497735843 -2.6105244092537464e-16 0.199032955616933
40.53256812923553 1.8903797446320232e-16 0.17736802372105845
41.885174449394 -5.101024707737206e-17 0.15759928531052028
43.196765560753285 3.1506329077200387e-16 0.1398144006963528
44.46733421909629 3.00060276925718e-17 0.12429856563551943
45.696874556277464 1.8903797446320232e-16 0.11105907142989362
46.88538183183193 4.140831821574909e-16 0.09964737816777981
48.03285196967731 -2.400482215405744e-17 0.08935451713247776
49.13928111080901 1.4102833015508744e-16 0.07972746121283249
50.2046656169306 3.120626880027467e-16 0.07070347607435665
51.22900230720933 2.3404701600206e-16 0.0622892021929329
52.21228841104303 -9.601928861622976e-17 0.054493378339283416
53.154521507049104 -5.701145261588641e-17 0.04730108199897209
54.05569946743322 4.50090415388577e-17 0.040678125277790286
54.915820408666825 -2.9105846861794643e-16 0.03459445871111353
55.73488200233531 1.3802772738583027e-16 0.029018512997084918
56.512880162201306 -3.00060276925718e-18 0.023905271017962883
57.24980335800569 -5.791163344666357e-16 0.01920368173728511
57.94563926524532 -1.8903797446320232e-16 0.01502867798506469
58.600394297172194 -9.601928861622976e-17 0.011562233234474141
59.21407810456827 4.770958403118916e-16 0.008799927390254685
59.7866582726065 2.41548522925203e-16 0.006606039166936283
60.31810923677605 0.0 0.0048676523047774265
60.80846480543887 1.4252863153971604e-16 0.003547691826409763
61.25776568363522 -2.400482215405744e-16 0.0025977711331701507
61.6660245966101 -1.4402893292434464e-16 0.0019389747993214372
62.033234573035685 -4.800964430811488e-17 0.0014883348561919656
62.359390380229115 4.950994569274347e-17 0.0011794444211289939
62.64449515631249 -2.880578658486893e-16 0.000966359393061021
62.88855154714663 2.8955816723331783e-16 0.0008164597513084836

VECTORS centroid-point-mean float
0.0 -0.04786137120514313 0.0405405405405379
0.0 -0.049326632869067584 0.10098280098279605
0.0 -0.05249448439573257 0.16031489745774713
0.0 -0.055862641428742275 0.2185368299653915
0.0 -0.05941765347594653 0.2756485985057302
0.0 -0.0621792928653811 0.33165020307876075
0.0 -0.06331074857323596 0.38654164368448485
0.0 -0.06259998543845195 0.4403229203229031
0.0 -0.06135524882483339 0.492994032994013
0.0 -0.06010579966655405 0.5445549816978169
0.0 -0.05884669313177631 0.5950057664343148
0.0 -0.057567214472167894 0.6443463872035047
0.0 -0.056256280756232666 0.692576844005388
0.0 -0.05482426883913286 0.7396971368399653
0.0 -0.05333060062180718 0.7857072657072366
0.0 -0.05190541771816787 0.8306072306071987
0.0 -0.0505680566932119 0.8743970315398524
0.0 -0.04928689370092379 0.9170766685052054
0.0 -0.048039141894087686 0.9586461415032483
0.0 -0.04682479446249734 0.9991054505339846
0.0 -0.045643844777824155 1.038454595597414
0.0 -0.044496286393597845 1.0766935766935377
0.0 -0.0433821130452449 1.1138223938223517
0.0 -0.042301318650056624 1.1498410469838618
0.0 -0.04125389730720075 1.1847495361780613
0.0 -0.04023984329771298 1.2185478614049567
0.0 -0.0392591510845177 1.2512360226645456
0.0 -0.03831181531239523 1.2828140199568279
0.0 -0.03739783883638126 1.3132818532818038
0.0 -0.03651732693878776 1.3426395226394716
0.0 -0.03567029654034885 1.3708870280298344
0.0 -0.0348567262687707 1.3980243694528904
0.0 -0.034076595591723616 1.4240515469086372
0.0 -0.03332988481682442 1.4489685603970777
0.0 -0.03261657509167163 1.4727754099182087
0.0 -0.03193664840378914 1.495472095472038
0.0 -0.03127885790684821 1.517058617058562
0.0 -0.030607532906455275 1.5375349746777778
0.0 -0.02986808485502203 1.556901168329679
0.0 -0.029032035149910828 1.5751571980142813
0.0 -0.028115678048614992 1.5923030637315774
0.0 -0.02711054017937402 1.6083387654815626
0.0 -0.025695477182331308 1.6232643032642444
0.0 -0.023877685709369267 1.63707967707962
0.0 -0.021899560632011206 1.6497848869276839
0.0 -0.019926402865026553 1.6613799328084429
0.0 -0.01800036469915429 1.6718648147218964
0.0 -0.016081947237483674 1.681239532668041
0.0 -0.014206462895109625 1.6895040866468813
0.0 -0.012443487800546028 1.6966584766584127
0.0 -0.010853252035215925 1.7027027027026413
-0.8152906132198466 0.045294802272824244 0.04054054054054027
-0.8405085085802856 0.046701650084524496 0.1009828009827984
-0.8937965186637558 0.04965132541160604 0.16031489745775027
-0.9506477078574839 0.052824154749126676 0.2185368299653947
-1.0206818772096897 0.056192903194254316 0.2756485985057326
-1.0489549773990696 0.05892150131715206 0.3316502030787641
-0.9930987765435381 0.060421198797595846 0.38654164368448923
-0.9074282632533692 0.06016833610440889 0.440322920322906
-0.838943182596935 0.059265538596970264 0.4929940329940166
-0.7804380392478912 0.05823791166645164 0.544554981697821
-0.725039155138254 0.05719335065569105 0.5950057664343185
-0.6716005320172309 0.056123694668410065 0.644346387203507
-0.6190912009116676 0.05500929516797395 0.6925768440053922
-0.5668551203522251 0.05375475654476551 0.7396971368399692
-0.5160737545271722 0.05241636469961064 0.7857072657072376
-0.4682432215925835 0.051129280620424225 0.830607230607201
-0.4244759216876558 0.049912831032382664 0.8743970315398581
-0.3845740908079427 0.04873557422582211 0.9170766685052055
-0.34771109645472914 0.047577192792447064 0.9586461415032499
-0.3130568676883955 0.0464410439713124 0.9991054505339875
-0.2804728235147938 0.045328249428354464 1.038454595597416
-0.2502817247970272 0.04423888122729041 1.0766935766935364
-0.22269967179246203 0.043173458373660885 1.1138223938223528
-0.19756508903559158 0.04213328093974974 1.149841046983866
-0.17527331282134884 0.04111864707289112 1.184749536178066
-0.15618952887337026 0.040130084604002414 1.2185478614049607
-0.13996799493967957 0.03916913317165853 1.2512360226645498
-0.12575834684106643 0.03823765805665774 1.2828140199568299
-0.11252036551220722 0.037337306534417136 1.313281853281807
-0.10008619772201267 0.03646834443063582 1.3426395226394738
-0.08845640514293832 0.03563089164619226 1.3708870280298315
-0.07764813403821604 0.03482508802262396 1.398024369452892
-0.06766754153320644 0.0340510890212 1.4240515469086392
-0.05846867713071903 0.03330908555930096 1.448968560397077
-0.05000632361005496 0.032599251780269414 1.4727754099182153
-0.04224556628624775 0.031921741156518024 1.4954720954720422
-0.03513713503931207 0.031268433749433125 1.5170586170585636
-0.028610254341922235 0.03061311485420519 1.5375349746777787
-0.02259956362417136 0.029874628060011694 1.5569011683296872
-0.017476911002667805 0.0290109565865079 1.5751571980142873
-0.013355710955929908 0.028098089996603303 1.5923030637315794
-0.010110762084749264 0.027133912134908247 1.6083387654815628
-0.007505342360414166 0.02572615230201404 1.6232643032642464
-0.005475063785658978 0.02387135342481296 1.6370796770796154
-0.003985447751433713 0.021864917753272047 1.6497848869276845
-0.00294194193702002 0.019901084364258095 1.661379932808441
-0.0022286575278371436 0.018010873313661132 1.6718648147218977
-0.0017402354220081 0.016114514519189674 1.6812395326680414
-0.0014049497010025485 0.014238789463863494 1.6895040866468816
-0.0011720086804935083 0.012460709862454396 1.6966584766584145
-0.001005217322995785 0.01084694154862099 1.7027027027026396
-0.6209246706750495 0.02235016912472946 0.07076167076166896
-0.6503643852165159 0.023404726152948765 0.13064884922027376
-0.6916665849454648 0.024883664332215612 0.18942586371157186
-0.7392485944001903 0.026471359865681516 0.2470927142355632
-0.7761138204782841 0.02796828339911037 0.3036494007922478
-0.7657701577284781 0.0290672573632025 0.35909592338162655
-0.7126976399238398 0.02948223383679201 0.41343228200369636
-0.6548892921938642 0.02929329873010549 0.4666584766584607
-0.6072679581918091 0.02888116278735788 0.5187745073459186
-0.5645539478948045 0.028417661771013805 0.5697803740660702
-0.5237398826833071 0.027942153546049 0.6196760768189107
-0.4840093998483365 0.02744693428509591 0.6684616156044492
-0.44472987047395984 0.026901450692858993 0.7161369904226799
-0.4060983280797737 0.026294811784020232 0.7627022012736041
-0.36911886604490846 0.025675114702518542 0.8081572481572176
-0.3347696787300899 0.02508160756838157 0.8525021310735298
-0.30339375468584956 0.024511283172557664 0.8957368500225337
-0.27460694522350176 0.023951533182476725 0.9378614050042291
-0.2477879865536716 0.023398846741831986 0.9788757960186166
-0.22257363420119608 0.022854905119836687 1.0187800230657007
-0.199032955616933 0.022320157599439516 1.0575740861454779
-0.17736802372105845 0.021794827420498004 1.095257985257947
-0.15759928531052028 0.021279598280616426 1.131831720403109
-0.1398144006963528 0.020775071010084366 1.1672952915809636
-0.12429856563551943 0.020281556803222568 1.2016486987915165
-0.11105907142989362 0.019799832368093982 1.2348919420347573
-0.09964737816777981 0.01933117591100158 1.2670250213106946
-0.08935451713247776 0.01887690495305233 1.298047936619315
-0.07972746121283249 0.018437723389996278 1.3279606879606398
-0.07070347607435665 0.018013760593931283 1.3567632753346548
-0.0622892021929329 0.017605114524668203 1.3844556987413605
-0.054493378339283416 0.01721190115886831 1.4110379581807626
-0.04730108199897209 0.01683425541661779 1.4365100536528603
-0.040678125277790286 0.01647231901377927 1.4608719851576475
-0.03459445871111353 0.01612621941436241 1.4841237526951294
-0.029018512997084918 0.015794377300901757 1.5062653562652994
-0.023905271017962883 0.015469781874695923 1.5272967958681716
-0.01920368173728511 0.015123451372642772 1.5472180715037311
-0.01502867798506469 0.014719579241831142 1.566029183171982
-0.011562233234474141 0.0142724283188433 1.5837301308729317
-0.008799927390254685 0.01380872352081945 1.600320914606569
-0.006606039166936283 0.013221771993627167 1.6158015343729046
-0.0048676523047774265 0.012402419286092335 1.6301719901719296
-0.003547691826409763 0.011428945899105186 1.6434322820036507
-0.0025977711331701507 0.010434005356939686 1.6555824098680647
-0.0019389747993214372 0.009476138183696727 1.6666223737651702
-0.0014883348561919656 0.008536731445240564 1.6765521736949673
-0.0011794444211289939 0.0075964377270754686 1.6853718096574606
-0.000966359393061021 0.006681068410414737 1.6930812816526482
-0.0008164597513084836 0.005828276799678158 1.6996805896805258

VECTORS centroid-point-cyl-variance float
1.077e-29 9.999999999999999e-33 0.0
3.6759999999999996e-29 9.999999999999999e-33 0.0
8.599e-29 3.0e-32 0.0
1.6596e-28 7.0e-32 0.0
2.3656999999999998e-28 1.1e-31 0.0
3.4309e-28 1.5999999999999999e-31 0.0
4.5643e-28 9.999999999999999e-32 0.0
5.8333e-28 1.2e-31 0.0
7.6174e-28 5.6e-31 0.0
9.4288e-28 4.2e-31 0.0
1.0578399999999999e-27 5.799999999999999e-31 0.0
1.2457999999999999e-27 4.9999999999999995e-31 0.0
1.4484299999999999e-27 3.9999999999999995e-31 0.0
1.65141e-27 7.999999999999999e-31 0.0
1.7690999999999998e-27 8.3e-31 0.0
2.1433099999999997e-27 7.299999999999999e-31 0.0
2.34697e-27 9.799999999999999e-31 0.0
2.66899e-27 1.8099999999999997e-30 0.0
2.78225e-27 1.4099999999999999e-30 0.0
3.12747e-27 1.2299999999999999e-30 0.0
3.45905e-27 2.4e-30 0.0
3.47406e-27 1.7999999999999998e-30 0.0
3.59277e-27 7.5e-31 0.0
4.08809e-27 2.7599999999999998e-30 0.0
4.13994e-27 8.499999999999999e-31 0.0
4.38283e-27 1.4299999999999999e-30 0.0
4.8467599999999995e-27 1.53e-30 0.0
4.82084e-27 2.9099999999999998e-30 0.0
5.15651e-27 2.45e-30 0.0
5.3557299999999994e-27 2.9299999999999997e-30 0.0
5.53448e-27 2.1599999999999998e-30 0.0
5.5904199999999994e-27 2.4e-30 0.0
5.75962e-27 3.17e-30 0.0
6.2617599999999995e-27 1.5999999999999998e-30 0.0
7.105039999999999e-27 2.79e-30 0.0
7.18554e-27 2.9e-30 0.0
6.522389999999999e-27 4.9199999999999996e-30 0.0
7.069559999999999e-27 3.84e-30 0.0
7.16098e-27 4.26e-30 0.0
7.195089999999999e-27 3.09e-30 0.0
7.43934e-27 4.5699999999999995e-30 0.0
8.10659e-27 2.8099999999999998e-30 0.0
8.3331e-27 3.7199999999999995e-30 0.0
9.05629e-27 3.9199999999999995e-30 0.0
7.810489999999999e-27 3.99e-30 0.0
8.47092e-27 2.0099999999999997e-30 0.0
8.50776e-27 3.1299999999999997e-30 0.0
8.618279999999999e-27 2.8e-30 0.0
8.45727e-27 4.16e-30 0.0
8.65786e-27 1.79e-30 0.0
8.39996e-27 3.9199999999999995e-30 0.0
6.59e-30 9.999999999999999e-33 4.999999999999999e-32
2.8799999999999997e-29 1.9999999999999998e-32 3.1e-31
6.75e-29 1.9999999999999998e-32 9.999999999999999e-33
1.3320999999999999e-28 8.999999999999999e-32 4.4e-31
2.1252e-28 3.9999999999999997e-32 4.999999999999999e-32
2.967e-28 1.9999999999999997e-31 7.9e-31
4.0688e-28 1.2e-31 1.9999999999999997e-31
6.2427e-28 2.4e-31 4.999999999999999e-32
7.214899999999999e-28 1.5e-31 3.1e-31
8.1735e-28 4.6e-31 4.999999999999999e-32
1.065e-27 3.8999999999999997e-31 4.999999999999999e-32
1.17417e-27 5.6e-31 4.999999999999999e-32
1.36861e-27 6.2e-31 4.999999999999999e-32
1.5340599999999998e-27 8.6e-31 4.999999999999999e-32
1.8025299999999998e-27 5.799999999999999e-31 0.0
1.99492e-27 9.9e-31 4.999999999999999e-32
2.23508e-27 1.4299999999999999e-30 1.5e-31
2.38245e-27 1.4299999999999999e-30 4.999999999999999e-32
2.68127e-27 1.45e-30 7.999999999999999e-32
2.72357e-27 2.48e-30 9.999999999999999e-33
3.24073e-27 1.0299999999999999e-30 0.0
3.3717199999999996e-27 9.4e-31 3.0e-32
3.68965e-27 2.45e-30 0.0
3.66918e-27 2.34e-30 1.9999999999999998e-32
4.0457899999999996e-27 2.5199999999999997e-30 9.999999999999999e-33
4.3105099999999994e-27 2.03e-30 1.9999999999999998e-32
4.8153799999999996e-27 2.17e-30 1.9999999999999998e-32
4.6120599999999996e-27 2.75e-30 1.9999999999999998e-32
4.91226e-27 2.9699999999999998e-30 9.999999999999999e-33
5.26976e-27 1.74e-30 0.0
5.5222e-27 2.2599999999999998e-30 0.0
5.5603999999999994e-27 2.54e-30 0.0
5.6559199999999995e-27 2.8199999999999997e-30 0.0
6.0079599999999995e-27 1.88e-30 0.0
6.52785e-27 2.8199999999999997e-30 0.0
6.36547e-27 2.3e-30 0.0
6.8103e-27 2.8599999999999998e-30 0.0
7.30698e-27 2.24e-30 0.0
7.38749e-27 2.9e-30 0.0
6.9563e-27 3.49e-30 0.0
8.04928e-27 3.0199999999999998e-30 0.0
7.215559999999999e-27 1.73e-30 0.0
7.8446e-27 3.14e-30 0.0
8.18437e-27 2.9e-30 0.0
8.40815e-27 3.06e-30 0.0
8.41088e-27 3.57e-30 0.0
8.17482e-27 3.66e-30 0.0
8.14889e-27 4.7399999999999994e-30 0.0
8.04928e-27 4.6899999999999994e-30 0.0