# vtk DataFile Version 4.0
[MyVLM domain - lattices] 
ASCII
DATASET UNSTRUCTURED_GRID
POINTS 62 float
0.00022673658128986117 -0.013455529609587394 0.0012057383729370775
-0.003724999406033424 -0.021353414516904843 -0.0046108446341818175
-0.00549739299719125 -0.02922992204449156 -0.009811686706424117
-0.005451904080891177 -0.037065600669715704 -0.014419969265767735
-0.004354059046121628 -0.04430456052278455 -0.019098176061624898
-0.0029556321221654493 -0.050639892641675836 -0.02421206695208497
-0.0016722727371407085 -0.05625606211197553 -0.029541805008692707
-0.0006485493516483927 -0.06145990971169276 -0.0347217116319013
0.0001374053121431227 -0.06630246397342038 -0.039690973384668427
0.0007511984436382017 -0.07076314007259818 -0.04447412230561662
0.0012455433643025467 -0.07486751420024089 -0.0490406778772192
0.0016598526811940704 -0.07866777437719197 -0.05332844483814562
0.002022453218220871 -0.08222281596423583 -0.05726723443059387
0.002352563731918074 -0.08556806061293076 -0.06081483277406378
0.002662053738196183 -0.08866893031219561 -0.0640124483374861
0.002957000443680671 -0.09144983302180383 -0.06695016820637228
0.0032390594424296184 -0.09383765685642584 -0.06971512373272523
0.0035066635059833096 -0.09578680597819975 -0.07236165392012418
0.0037560624618667195 -0.09728951296258684 -0.07489901562466836
0.003982215822832984 -0.09837537004060173 -0.07729194219873327
0.004179548496302947 -0.09910357106015484 -0.07946988916141207
0.008285994416043337 -0.0036244614173345014 -0.01051047246421901
0.007508437091591354 -0.012249525791729695 -0.015460436728987262
0.00973309288421085 -0.019886324149426 -0.02094695306562424
0.010440442308044806 -0.02431554205173961 -0.029614897429527564
0.01004693542569484 -0.029782699009560994 -0.036404656691164716
0.0094954698488839 -0.03571121863968277 -0.04200336782662806
0.009038213335578684 -0.041603227626443896 -0.047004373148513426
0.008539133039147835 -0.047380549179922044 -0.051500840127068244
0.008012046218423283 -0.05301251350188534 -0.05552931960451947
0.007469873605570215 -0.05843933883094282 -0.059161056709776436
0.0069256484677951155 -0.06361212222755315 -0.06245433169672589
0.0064559301991455546 -0.06850591886125018 -0.06543887265669257
0.006108090109537901 -0.07309731303492495 -0.06814258533082915
0.005835591307912621 -0.07735119070181722 -0.07060731701051265
0.005646315885461864 -0.08124156490048776 -0.07286403775039893
0.005556570152728891 -0.084745200107357 -0.07494043856918971
0.005484703593381549 -0.0878314568582549 -0.07687303415838481
0.005393245002100456 -0.09048933583815996 -0.07867493299117717
0.005297730961761147 -0.09272783565359587 -0.08033541094591384
0.00521698140800628 -0.0945660338909237 -0.08183173224051106
0.005155604557614359 -0.09602806026086173 -0.08313514020553193
0.005485628962270063 -0.010303863219210604 -0.010164729230107944
0.005312774690522743 -0.018373860798107936 -0.015455587590555054
0.006196413562335568 -0.02486264016471301 -0.021989650932205906
0.006457021259275767 -0.030458110547050263 -0.028947100961183688
0.006414690581931144 -0.036428275764023965 -0.03481678957088603
0.006371643086760199 -0.042354911694003926 -0.04009713686077527
0.006301402129423808 -0.048083412780345766 -0.04497239455841738
0.00614279921665101 -0.05361769521631691 -0.04943789552641661
0.005916795403470228 -0.05892764513056288 -0.0535295280791466
0.005647913503504593 -0.06397312968104088 -0.05729512067529284
0.005381266505789829 -0.06873617648048037 -0.060756091971952524
0.005171795853183163 -0.07321253575374415 -0.06391750665391308
0.005025757650311314 -0.07739204847342415 -0.06679147177858538
0.004932542381279714 -0.08125190721650516 -0.06940516817428558
0.00490346403705614 -0.08475988229469172 -0.07179700568782804
0.004914985140555201 -0.08787718259688317 -0.07401321376522763
0.0049224460918573685 -0.09057335511548378 -0.07609008488769192
0.004916956732429355 -0.09284097917700676 -0.0780364626695082
0.004910301924250248 -0.0946933114545934 -0.07983654842283454
0.004909940276999731 -0.09615765294451412 -0.08145780608728428

CELLS 40 140
4 0 21 22 1
4 1 22 23 2
4 2 23 24 3
4 3 24 25 4
4 4 25 26 5
4 5 26 27 6
4 6 27 28 7
4 7 28 29 8
4 8 29 30 9
4 9 30 31 10
4 10 31 32 11
4 11 32 33 12
4 12 33 34 13
4 13 34 35 14
4 14 35 36 15
4 15 36 37 16
4 16 37 38 17
4 17 38 39 18
4 18 39 40 19
4 19 40 41 20
1 42
1 43
1 44
1 45
1 46
1 47
1 48
1 49
1 50
1 51
1 52
1 53
1 54
1 55
1 56
1 57
1 58
1 59
1 60
1 61

CELL_TYPES 40
9
9
9
9
9
9
9
9
9
9
9
9
9
9
9
9
9
9
9
9
1
1
1
1
1
1
1
1
1
1
1
1
1
1
1
1
1
1
1
1

CELL_DATA 40

VECTORS S float
-4.67796094788362e-18 1.4026969195171622e-16 1.7206492024074502e-16
-4.62879037245025e-18 1.3967998795744053e-16 1.7254530373270208e-16
1.486564480538013e-17 -5.557219999530266e-16 -6.926853373601467e-16
2.4944364748007617e-17 -1.1083445933165467e-15 -1.3879458426096256e-15
0.0 -0.0 -0.0
1.9392647396674108e-17 -1.1052893837465988e-15 -1.3904685988141044e-15
0.0 -0.0 -0.0
-1.594269402363118e-17 1.1045750232046687e-15 1.3910799651722836e-15
0.0 -0.0 -0.0
1.2911861029884959e-17 -1.1055999014651591e-15 -1.3902970051787575e-15
0.0 -0.0 -0.0
2.146273509167836e-17 -2.213861558992091e-15 -2.7785123415518024e-15
0.0 -0.0 -0.0
9.050157757664879e-18 -1.1090020126992685e-15 -1.3876153110129549e-15
-4.1888641112777e-18 5.550883611798562e-16 6.933399382129451e-16
7.694818670184349e-18 -1.11134673553927e-15 -1.3857463130226572e-15
7.737405938004169e-18 -1.1125449065736927e-15 -1.3847843096635416e-15
3.9232714104246e-18 -5.568213783905812e-16 -6.919504792466475e-16
0.0 -0.0 -0.0
0.0 -0.0 -0.0
-4.67796094788362e-18 1.4026969195171622e-16 1.7206492024074502e-16
-4.62879037245025e-18 1.3967998795744053e-16 1.7254530373270208e-16
1.486564480538013e-17 -5.557219999530266e-16 -6.926853373601467e-16
2.4944364748007617e-17 -1.1083445933165467e-15 -1.3879458426096256e-15
0.0 -0.0 -0.0
1.9392647396674108e-17 -1.1052893837465988e-15 -1.3904685988141044e-15
0.0 -0.0 -0.0
-1.594269402363118e-17 1.1045750232046687e-15 1.3910799651722836e-15
0.0 -0.0 -0.0
1.2911861029884959e-17 -1.1055999014651591e-15 -1.3902970051787575e-15
0.0 -0.0 -0.0
2.146273509167836e-17 -2.213861558992091e-15 -2.7785123415518024e-15
0.0 -0.0 -0.0
9.050157757664879e-18 -1.1090020126992685e-15 -1.3876153110129549e-15
-4.1888641112777e-18 5.550883611798562e-16 6.933399382129451e-16
7.694818670184349e-18 -1.11134673553927e-15 -1.3857463130226572e-15
7.737405938004169e-18 -1.1125449065736927e-15 -1.3847843096635416e-15
3.9232714104246e-18 -5.568213783905812e-16 -6.919504792466475e-16
0.0 -0.0 -0.0
0.0 -0.0 -0.0

SCALARS Gamma float
LOOKUP_TABLE default
0.11360322742551873
0.07764435380353484
0.48571666052641865
0.6450461728520904
0.7664102412426357
0.810557485135422
0.8308007202319377
0.8332340059381989
0.8210713484999447
0.7933917486386114
0.7570868347276256
0.7162501719766327
0.6764348187892277
0.6223058063365552
0.581772148102691
0.5421415568747087
0.43116491036596133
0.3342259095264393
0.23942704352374033
0.18159988398699548
0.11360322742551873
0.07764435380353484
0.48571666052641865
0.6450461728520904
0.7664102412426357
0.810557485135422
0.8308007202319377
0.8332340059381989
0.8210713484999447
0.7933917486386114
0.7570868347276256
0.7162501719766327
0.6764348187892277
0.6223058063365552
0.581772148102691
0.5421415568747087
0.43116491036596133
0.3342259095264393
0.23942704352374033
0.18159988398699548

VECTORS Ftot float
-1.8803685828422687 2.1402588357388037 -1.7958903996923516
-1.8690151021778778 1.6954274143154207 -1.4226325180399242
-17.623362696001557 10.269797555062986 -8.617383340718716
-30.34480758005975 13.449334906115304 -11.285331959301113
-43.698269044654616 15.909592230306824 -13.349732972631427
-53.7884512806217 16.97414726913157 -14.243000713077189
-62.48229459149378 17.571735717771087 -14.74443695992641
-69.6739521394447 17.721705189588246 -14.870276288416042
-75.25110148799737 17.33006935360364 -14.541654802885553
-78.60559365748142 16.639033781015414 -13.961807108796387
-80.34579045583033 15.741664961660932 -13.208825263446052
-80.71686580210408 14.732945906819674 -12.362409476567255
-80.30258351029963 13.908503476181163 -11.670620137091577
-77.3570669311939 12.649517568646603 -10.614205526421928
-75.25674989626341 11.809882047736702 -9.909667670503085
-72.628685543844 10.865984204471218 -9.117643338349984
-59.37509732676209 9.294683669609057 -7.799165639078477
-47.10852246653651 7.767479794167346 -6.517689430462819
-34.38585250044271 6.088199761029296 -5.108606174013306
-26.503318630961644 4.886330541520643 -4.100118155200266
-1.8803685828422687 2.1402588357388037 -1.7958903996923516
-1.8690151021778778 1.6954274143154207 -1.4226325180399242
-17.623362696001557 10.269797555062986 -8.617383340718716
-30.34480758005975 13.449334906115304 -11.285331959301113
-43.698269044654616 15.909592230306824 -13.349732972631427
-53.7884512806217 16.97414726913157 -14.243000713077189
-62.48229459149378 17.571735717771087 -14.74443695992641
-69.6739521394447 17.721705189588246 -14.870276288416042
-75.25110148799737 17.33006935360364 -14.541654802885553
-78.60559365748142 16.639033781015414 -13.961807108796387
-80.34579045583033 15.741664961660932 -13.208825263446052
-80.71686580210408 14.732945906819674 -12.362409476567255
-80.30258351029963 13.908503476181163 -11.670620137091577
-77.3570669311939 12.649517568646603 -10.614205526421928
-75.25674989626341 11.809882047736702 -9.909667670503085
-72.628685543844 10.865984204471218 -9.117643338349984
-59.37509732676209 9.294683669609057 -7.799165639078477
-47.10852246653651 7.767479794167346 -6.517689430462819
-34.38585250044271 6.088199761029296 -5.108606174013306
-26.503318630961644 4.886330541520643 -4.100118155200266

VECTORS D float
-0.02199030157254244 -0.011577248403067626 0.008840077878919493
0.2523056574121996 0.21823897433489026 -0.1699017398608061
0.7603910090146112 0.8973736288941323 -0.7036190010292227
0.5765088498326566 0.8510437849715095 -0.6692401837320077
0.45089918317812405 0.791899378896831 -0.6235269405951178
0.4227587783842264 0.8547707397418542 -0.6735647342555037
0.4391293293608346 1.0019786560873272 -0.7903110406355511
0.45264224964077243 1.1502937153932429 -0.908193203924131
0.40409256483150974 1.133007583105667 -0.8955138010037351
0.3792611899712488 1.1606095290998764 -0.9194242729948602
0.3715684629573858 1.2392700385079933 -0.983147228141467
0.3594374958165845 1.2987892516648682 -1.0320721066643375
0.38844153837794637 1.5120653629882705 -1.2037528370893127
0.3627124385909545 1.5122056660370522 -1.2062107625769685
0.3696464258313496 1.6403743130439308 -1.3110513911040256
0.3399215880592828 1.5951594358707766 -1.277405236515691
0.422221581546307 2.081279034645273 -1.669754252157005
0.444174294724241 2.2846219484329184 -1.8359460166848507
0.41799911784099075 2.228868139438929 -1.7937596778100853
0.3641485071566649 2.000392072442788 -1.6118780564168902
-0.02199030157254244 -0.011577248403067626 0.008840077878919493
0.2523056574121996 0.21823897433489026 -0.1699017398608061
0.7603910090146112 0.8973736288941323 -0.7036190010292227
0.5765088498326566 0.8510437849715095 -0.6692401837320077
0.45089918317812405 0.791899378896831 -0.6235269405951178
0.4227587783842264 0.8547707397418542 -0.6735647342555037
0.4391293293608346 1.0019786560873272 -0.7903110406355511
0.45264224964077243 1.1502937153932429 -0.908193203924131
0.40409256483150974 1.133007583105667 -0.8955138010037351
0.3792611899712488 1.1606095290998764 -0.9194242729948602
0.3715684629573858 1.2392700385079933 -0.983147228141467
0.3594374958165845 1.2987892516648682 -1.0320721066643375
0.38844153837794637 1.5120653629882705 -1.2037528370893127
0.3627124385909545 1.5122056660370522 -1.2062107625769685
0.3696464258313496 1.6403743130439308 -1.3110513911040256
0.3399215880592828 1.5951594358707766 -1.277405236515691
0.422221581546307 2.081279034645273 -1.669754252157005
0.444174294724241 2.2846219484329184 -1.8359460166848507
0.41799911784099075 2.228868139438929 -1.7937596778100853
0.3641485071566649 2.000392072442788 -1.6118780564168902

VECTORS L float
-1.8583782812697263 2.1518360841418716 -1.8047304775712716
-2.121320759590078 1.4771884399805304 -1.2527307781791186
-18.38375370501617 9.372423926168855 -7.913764339689493
-30.92131642989241 12.598291121143795 -10.616091775569105
-44.149168227832746 15.117692851409991 -12.726206032036309
-54.21121005900594 16.11937652938972 -13.569435978821687
-62.92142392085463 16.56975706168376 -13.95412591929086
-70.1265943890855 16.57141147419501 -13.962083084491917
-75.65519405282889 16.197061770497974 -13.646141001881823
-78.98485484745267 15.47842425191554 -13.04238283580153
-80.71735891878771 14.50239492315294 -12.225678035304583
-81.07630329792067 13.434156655154807 -11.330337369902919
-80.69102504867759 12.396438113192897 -10.466867300002265
-77.71977936978486 11.137311902609552 -9.40799476384496
-75.62639632209479 10.169507734692775 -8.598616279399062
-72.9686071319033 9.270824768600445 -7.8402381018342915
-59.797318908308384 7.213404634963784 -6.129411386921472
-47.552696761260755 5.4828578457344275 -4.681743413777968
-34.80385161828371 3.8593316215903672 -3.3148464962032214
-26.867467138118318 2.885938469077855 -2.488240098783376
-1.8583782812697263 2.1518360841418716 -1.8047304775712716
-2.121320759590078 1.4771884399805304 -1.2527307781791186
-18.38375370501617 9.372423926168855 -7.913764339689493
-30.92131642989241 12.598291121143795 -10.616091775569105
-44.149168227832746 15.117692851409991 -12.726206032036309
-54.21121005900594 16.11937652938972 -13.569435978821687
-62.92142392085463 16.56975706168376 -13.95412591929086
-70.1265943890855 16.57141147419501 -13.962083084491917
-75.65519405282889 16.197061770497974 -13.646141001881823
-78.98485484745267 15.47842425191554 -13.04238283580153
-80.71735891878771 14.50239492315294 -12.225678035304583
-81.07630329792067 13.434156655154807 -11.330337369902919
-80.69102504867759 12.396438113192897 -10.466867300002265
-77.71977936978486 11.137311902609552 -9.40799476384496
-75.62639632209479 10.169507734692775 -8.598616279399062
-72.9686071319033 9.270824768600445 -7.8402381018342915
-59.797318908308384 7.213404634963784 -6.129411386921472
-47.552696761260755 5.4828578457344275 -4.681743413777968
-34.80385161828371 3.8593316215903672 -3.3148464962032214
-26.867467138118318 2.885938469077855 -2.488240098783376

SCALARS mu float
LOOKUP_TABLE default
-0.049742132287548674
0.5357069987134803
1.2811433672946073
0.854988385857007
0.6551348854471891
0.6302295257267609
0.6879190748350908
0.7582045266903594
0.7377336678787616
0.7675635435450073
0.8495090621034666
0.9373854932076505
1.1577998630226651
1.2310582189611907
1.4241098565024288
1.4896636139504627
2.125178393239002
2.6131958079777684
2.945440221764349
3.1634552092102064
-0.049742132287548674
0.5357069987134803
1.2811433672946073
0.854988385857007
0.6551348854471891
0.6302295257267609
0.6879190748350908
0.7582045266903594
0.7377336678787616
0.7675635435450073
0.8495090621034666
0.9373854932076505
1.1577998630226651
1.2310582189611907
1.4241098565024288
1.4896636139504627
2.125178393239002
2.6131958079777684
2.945440221764349
3.1634552092102064