# vtk DataFile Version 4.0
[MyVLM domain - lattices] 
ASCII
DATASET UNSTRUCTURED_GRID
POINTS 62 float
0.00022673658128986117 0.009572696895256999 0.009532499999999838
-0.003724999406033424 0.010193598365867284 0.019321458333333024
-0.00549739299719125 0.011272443643222194 0.028698249999999554
-0.005451904080891177 0.01277897153009467 0.03766287499999941
-0.004354059046121628 0.013848370910937815 0.04621533333333262
-0.0029556321221654493 0.014003176200856607 0.054355624999999165
-0.0016722727371407085 0.013530364128720955 0.06208374999999905
-0.0006485493516483927 0.012907294203932104 0.06939970833333228
0.0001374053121431227 0.012213352730494429 0.07630349999999884
0.0007511984436382017 0.011416515406367896 0.08279512499999875
0.0012455433643025467 0.010556571721314465 0.08887458333333201
0.0016598526811940704 0.009714711822836949 0.0945418749999986
0.002022453218220871 0.008982560626999276 0.09979699999999851
0.002352563731918074 0.008415224441117357 0.10463995833333176
0.002662053738196183 0.007958909429466785 0.10907074999999838
0.002957000443680671 0.007496015253946196 0.11308937499999831
0.0032390594424296184 0.006912800012521627 0.11669583333333157
0.0035066635059833096 0.006138329173825713 0.1198901249999982
0.0037560624618667195 0.005160518770430174 0.12267224999999816
0.003982215822832984 0.004025406141214419 0.1250422083333315
0.004179548496302947 0.002825080565776312 0.12699999999999811
0.008285994416043337 -0.0057217301349205265 0.009532499999999867
0.007508437091591354 -0.003969538240973726 0.019321458333333052
0.00973309288421085 -0.003263614230734268 0.02869824999999958
0.010440442308044806 -0.007056598455757913 0.03766287499999945
0.01004693542569484 -0.00874363505555154 0.046215333333332664
0.0094954698488839 -0.009221717647475876 0.05435562499999921
0.009038213335578684 -0.009265399611462806 0.062083749999999105
0.008539133039147835 -0.00899630244230195 0.06939970833333232
0.008012046218423283 -0.008462139875867641 0.07630349999999889
0.007469873605570215 -0.007755915822767515 0.08279512499999879
0.0069256484677951155 -0.0069537097512494634 0.08887458333333204
0.0064559301991455546 -0.0060943289284267725 0.09454187499999862
0.006108090109537901 -0.005214201712214332 0.09979699999999854
0.005835591307912621 -0.004367955861814542 0.10463995833333181
0.005646315885461864 -0.003596019912326151 0.1090707499999984
0.005556570152728891 -0.0029345419214114148 0.11308937499999831
0.005484703593381549 -0.002431188433521969 0.1166958333333316
0.005393245002100456 -0.00210307134511584 0.11989012499999822
0.005297730961761147 -0.0019361913096156336 0.12267224999999816
0.00521698140800628 -0.0019008688713604543 0.1250422083333315
0.005155604557614359 -0.001959564864450562 0.12699999999999811
0.005485628962270063 -0.0011634387333198089 0.014426979166666453
0.005312774690522743 -2.917692575431224e-5 0.02400985416666631
0.006196413562335568 -0.0008636528607699593 0.033180562499999504
0.006457021259275767 -0.002596669761611983 0.041939104166666054
0.006414690581931144 -0.003255563874660977 0.05028547916666593
0.006371643086760199 -0.003490976430904808 0.058219687499999145
0.006301402129423808 -0.003543430978580148 0.06574172916666571
0.00614279921665101 -0.0034068350025102797 0.07285160416666558
0.005916795403470228 -0.003128037369880394 0.07954931249999883
0.005647913503504593 -0.002769473699296074 0.08583485416666539
0.005381266505789829 -0.0023591040618596614 0.09170822916666532
0.005171795853183163 -0.0019035399340108852 0.09716943749999857
0.005025757650311314 -0.001418585956746249 0.10221847916666515
0.004932542381279714 -0.0009397241814797429 0.10685535416666507
0.00490346403705614 -0.0005170951022249636 0.11108006249999834
0.004914985140555201 -0.00021104697479154037 0.11489260416666494
0.0049224460918573685 -6.895626869576157e-5 0.11829297916666491
0.004916956732429355 -0.00010236750249231716 0.1212811874999982
0.004910301924250248 -0.00029065695391045917 0.12385722916666482
0.004909940276999731 -0.0005913518125552897 0.1260211041666648

CELLS 40 140
4 0 21 22 1
4 1 22 23 2
4 2 23 24 3
4 3 24 25 4
4 4 25 26 5
4 5 26 27 6
4 6 27 28 7
4 7 28 29 8
4 8 29 30 9
4 9 30 31 10
4 10 31 32 11
4 11 32 33 12
4 12 33 34 13
4 13 34 35 14
4 14 35 36 15
4 15 36 37 16
4 16 37 38 17
4 17 38 39 18
4 18 39 40 19
4 19 40 41 20
1 42
1 43
1 44
1 45
1 46
1 47
1 48
1 49
1 50
1 51
1 52
1 53
1 54
1 55
1 56
1 57
1 58
1 59
1 60
1 61

CELL_TYPES 40
9
9
9
9
9
9
9
9
9
9
9
9
9
9
9
9
9
9
9
9
1
1
1
1
1
1
1
1
1
1
1
1
1
1
1
1
1
1
1
1

CELL_DATA 40

VECTORS S float
0.0 -0.0 0.0
0.0 -0.0 0.0
-7.450040499196179e-18 8.674068424304123e-17 -4.3547190138843893e-16
2.490874134104298e-17 -3.507688403310806e-16 1.741201997512535e-15
0.0 -0.0 0.0
9.72009207198523e-18 -1.774080216656489e-16 8.702257286933113e-16
0.0 -0.0 0.0
0.0 -0.0 0.0
7.16524424669061e-18 -1.7764875360179465e-16 8.702014047561781e-16
-6.512383800232059e-18 1.7747813553855156e-16 -8.7024134898544665e-16
0.0 -0.0 0.0
0.0 -0.0 0.0
0.0 -0.0 0.0
2.2732257049802098e-18 -8.7591830085903e-17 4.3535931143407223e-16
2.09888381848836e-18 -8.719571597865316e-17 4.3543969514381604e-16
1.9224470286527797e-18 -8.680166414792364e-17 4.355192321859346e-16
-3.87983411713156e-18 1.72903096449788e-16 -8.711775773895418e-16
0.0 -0.0 0.0
1.01764524838898e-18 -4.2889852178108655e-17 2.1786057824811187e-16
-1.0272544996330499e-18 4.275896473017978e-17 -2.1788625991491404e-16
0.0 -0.0 0.0
0.0 -0.0 0.0
-7.450040499196179e-18 8.674068424304123e-17 -4.3547190138843893e-16
2.490874134104298e-17 -3.507688403310806e-16 1.741201997512535e-15
0.0 -0.0 0.0
9.72009207198523e-18 -1.774080216656489e-16 8.702257286933113e-16
0.0 -0.0 0.0
0.0 -0.0 0.0
7.16524424669061e-18 -1.7764875360179465e-16 8.702014047561781e-16
-6.512383800232059e-18 1.7747813553855156e-16 -8.7024134898544665e-16
0.0 -0.0 0.0
0.0 -0.0 0.0
0.0 -0.0 0.0
2.2732257049802098e-18 -8.7591830085903e-17 4.3535931143407223e-16
2.09888381848836e-18 -8.719571597865316e-17 4.3543969514381604e-16
1.9224470286527797e-18 -8.680166414792364e-17 4.355192321859346e-16
-3.87983411713156e-18 1.72903096449788e-16 -8.711775773895418e-16
0.0 -0.0 0.0
1.01764524838898e-18 -4.2889852178108655e-17 2.1786057824811187e-16
-1.0272544996330499e-18 4.275896473017978e-17 -2.1788625991491404e-16

SCALARS Gamma float
LOOKUP_TABLE default
0.11465350828821197
0.0789810358141811
0.4873122579104803
0.6462781268607722
0.7656884396818151
0.8107682444873078
0.8221539922023199
0.835130939705911
0.8213037240481921
0.7992101236382899
0.7610191849447144
0.7187620501675406
0.6781668107276746
0.6236344925115027
0.5829141631337658
0.5432038463941697
0.43165830751674633
0.3348134433490261
0.23993763190180953
0.18205542803120936
0.11465350828821197
0.0789810358141811
0.4873122579104803
0.6462781268607722
0.7656884396818151
0.8107682444873078
0.8221539922023199
0.835130939705911
0.8213037240481921
0.7992101236382899
0.7610191849447144
0.7187620501675406
0.6781668107276746
0.6236344925115027
0.5829141631337658
0.5432038463941697
0.43165830751674633
0.3348134433490261
0.23993763190180953
0.18205542803120936

VECTORS Ftot float
-1.8991753951248729 -2.77665863942429 -0.4895998343477537
-1.9059688278948963 -2.210463969935992 -0.3897644377836561
-17.67830994968314 -13.229630068367724 -2.3327407258451776
-30.41468793338165 -17.317191016188584 -3.0534880062362526
-43.654378533507234 -20.44236344028014 -3.604540223969665
-53.79937075317785 -21.82191501353312 -3.8477923876129716
-61.82810975612366 -22.351323123055703 -3.941141321127665
-69.84178120362954 -22.80480221508336 -4.021101920239317
-75.25926218798224 -22.275029078466897 -3.9276886225992835
-79.26667542739808 -21.481117568585983 -3.787700603112285
-80.83401655491808 -20.303267966238966 -3.580013939001772
-81.06009310110399 -18.9826815136534 -3.3471589170528597
-80.55924318722701 -17.912284433093948 -3.158419031678658
-77.56504909325109 -16.286624846407445 -2.8717713850984588
-75.44154266690832 -15.201978167735666 -2.6805189111128023
-72.80309212794016 -13.98499856972588 -2.4659325730119375
-59.465681309495324 -11.9598343118493 -2.108841473981865
-47.20954328143463 -9.998563301376848 -1.763016478354221
-34.472696924976994 -7.839054176756118 -1.382236754597472
-26.580584090650824 -6.29185960293057 -1.109424606826296
-1.8991753951248729 -2.77665863942429 -0.4895998343477537
-1.9059688278948963 -2.210463969935992 -0.3897644377836561
-17.67830994968314 -13.229630068367724 -2.3327407258451776
-30.41468793338165 -17.317191016188584 -3.0534880062362526
-43.654378533507234 -20.44236344028014 -3.604540223969665
-53.79937075317785 -21.82191501353312 -3.8477923876129716
-61.82810975612366 -22.351323123055703 -3.941141321127665
-69.84178120362954 -22.80480221508336 -4.021101920239317
-75.25926218798224 -22.275029078466897 -3.9276886225992835
-79.26667542739808 -21.481117568585983 -3.787700603112285
-80.83401655491808 -20.303267966238966 -3.580013939001772
-81.06009310110399 -18.9826815136534 -3.3471589170528597
-80.55924318722701 -17.912284433093948 -3.158419031678658
-77.56504909325109 -16.286624846407445 -2.8717713850984588
-75.44154266690832 -15.201978167735666 -2.6805189111128023
-72.80309212794016 -13.98499856972588 -2.4659325730119375
-59.465681309495324 -11.9598343118493 -2.108841473981865
-47.20954328143463 -9.998563301376848 -1.763016478354221
-34.472696924976994 -7.839054176756118 -1.382236754597472
-26.580584090650824 -6.29185960293057 -1.109424606826296

VECTORS D float
-0.02188004016659982 0.014160777289476392 0.003155976089754194
0.25249976945471225 -0.2711009538379585 -0.05802674937589319
0.7658423242065057 -1.1259307712101367 -0.23737366637622437
0.5777763842037282 -1.0629269267373296 -0.22239425897088574
0.45082706759510804 -0.9860267242354177 -0.2057661165396665
0.42270714266689396 -1.0654696469519742 -0.22193277926492957
0.4385599737667105 -1.2487707572704745 -0.2595095911816532
0.4517374191229544 -1.43408147826382 -0.2972333406030722
0.4038025923570502 -1.4136952018433937 -0.29192613732125544
0.3775273336623388 -1.4490167264648834 -0.29833952405471387
0.3710688707699972 -1.551569071111997 -0.318272741572988
0.3589073565785667 -1.6259159417824167 -0.33207589328670345
0.38835109821547303 -1.8960403131292123 -0.38536694973725194
0.3626473914426405 -1.8976798714188323 -0.38369601347581206
0.36946020941829977 -2.0598076182101694 -0.41425220556354475
0.3397690484834702 -2.0053458590540516 -0.401177566553781
0.4223922801195585 -2.6196677516884557 -0.5218080558018579
0.44444514638142274 -2.8793992330262874 -0.5710433112468981
0.41834335126023914 -2.8124819863660306 -0.5556428002985284
0.36430016755898337 -2.5252399084233645 -0.4972818075273347
-0.02188004016659982 0.014160777289476392 0.003155976089754194
0.25249976945471225 -0.2711009538379585 -0.05802674937589319
0.7658423242065057 -1.1259307712101367 -0.23737366637622437
0.5777763842037282 -1.0629269267373296 -0.22239425897088574
0.45082706759510804 -0.9860267242354177 -0.2057661165396665
0.42270714266689396 -1.0654696469519742 -0.22193277926492957
0.4385599737667105 -1.2487707572704745 -0.2595095911816532
0.4517374191229544 -1.43408147826382 -0.2972333406030722
0.4038025923570502 -1.4136952018433937 -0.29192613732125544
0.3775273336623388 -1.4490167264648834 -0.29833952405471387
0.3710688707699972 -1.551569071111997 -0.318272741572988
0.3589073565785667 -1.6259159417824167 -0.33207589328670345
0.38835109821547303 -1.8960403131292123 -0.38536694973725194
0.3626473914426405 -1.8976798714188323 -0.38369601347581206
0.36946020941829977 -2.0598076182101694 -0.41425220556354475
0.3397690484834702 -2.0053458590540516 -0.401177566553781
0.4223922801195585 -2.6196677516884557 -0.5218080558018579
0.44444514638142274 -2.8793992330262874 -0.5710433112468981
0.41834335126023914 -2.8124819863660306 -0.5556428002985284
0.36430016755898337 -2.5252399084233645 -0.4972818075273347

VECTORS L float
-1.877295354958273 -2.7908194167137665 -0.49275581043750794
-2.1584685973496085 -1.9393630160980337 -0.3317376884077629
-18.44415227388965 -12.103699297157593 -2.095367059468954
-30.992464317585377 -16.25426408945125 -2.8310937472653674
-44.10520560110235 -19.45633671604472 -3.3987741074299986
-54.22207789584475 -20.75644536658114 -3.6258596083480428
-62.26666972989038 -21.102552365785233 -3.6816317299460124
-70.29351862275252 -21.370720736819546 -3.7238685796362447
-75.6630647803393 -20.8613338766235 -3.635762485278029
-79.64420276106044 -20.032100842121103 -3.4893610790575718
-81.20508542568808 -18.75169889512697 -3.2617411974287847
-81.41900045768257 -17.35676557187098 -3.0150830237661568
-80.94759428544248 -16.016244119964732 -2.7730520819414055
-77.92769648469374 -14.388944974988616 -2.488075371622647
-75.81100287632663 -13.142170549525503 -2.266266705549258
-73.14286117642364 -11.979652710671829 -2.064755006458157
-59.888073589614876 -9.340166560160842 -1.5870334181800063
-47.65398842781606 -7.119164068350562 -1.1919731671073235
-34.89104027623725 -5.026572190390091 -0.8265939542989441
-26.94488425820981 -3.766619694507207 -0.6121427992989612
-1.877295354958273 -2.7908194167137665 -0.49275581043750794
-2.1584685973496085 -1.9393630160980337 -0.3317376884077629
-18.44415227388965 -12.103699297157593 -2.095367059468954
-30.992464317585377 -16.25426408945125 -2.8310937472653674
-44.10520560110235 -19.45633671604472 -3.3987741074299986
-54.22207789584475 -20.75644536658114 -3.6258596083480428
-62.26666972989038 -21.102552365785233 -3.6816317299460124
-70.29351862275252 -21.370720736819546 -3.7238685796362447
-75.6630647803393 -20.8613338766235 -3.635762485278029
-79.64420276106044 -20.032100842121103 -3.4893610790575718
-81.20508542568808 -18.75169889512697 -3.2617411974287847
-81.41900045768257 -17.35676557187098 -3.0150830237661568
-80.94759428544248 -16.016244119964732 -2.7730520819414055
-77.92769648469374 -14.388944974988616 -2.488075371622647
-75.81100287632663 -13.142170549525503 -2.266266705549258
-73.14286117642364 -11.979652710671829 -2.064755006458157
-59.888073589614876 -9.340166560160842 -1.5870334181800063
-47.65398842781606 -7.119164068350562 -1.1919731671073235
-34.89104027623725 -5.026572190390091 -0.8265939542989441
-26.94488425820981 -3.766619694507207 -0.6121427992989612

SCALARS mu float
LOOKUP_TABLE default
-0.04949872040393681
0.5368391347141894
1.2927706186512604
0.8572444774213814
0.6547510432109356
0.6303100333027327
0.6875432192970901
0.7575877833139214
0.7375270129002917
0.7661511620196205
0.8498665349840595
0.9370346678290703
1.158347115834145
1.231500512082528
1.424196223467132
1.4901065743857211
2.1266471826368174
2.6163051391812067
2.950342780613767
3.168122411341675
-0.04949872040393681
0.5368391347141894
1.2927706186512604
0.8572444774213814
0.6547510432109356
0.6303100333027327
0.6875432192970901
0.7575877833139214
0.7375270129002917
0.7661511620196205
0.8498665349840595
0.9370346678290703
1.158347115834145
1.231500512082528
1.424196223467132
1.4901065743857211
2.1266471826368174
2.6163051391812067
2.950342780613767
3.168122411341675