# vtk DataFile Version 4.0
[MyVLM domain - lattices] 
ASCII
DATASET UNSTRUCTURED_GRID
POINTS 62 float
0.00022673658128986117 0.013056448694020903 0.0034690387139465276
-0.003724999406033424 0.01848864430748312 0.011636074571895309
-0.00549739299719125 0.0241113475577586 0.019217191722545292
-0.005451904080891177 0.029898351479299784 0.026227520764510008
-0.004354059046121628 0.035100707676567894 0.03309946725556292
-0.0029556321221654493 0.03930491882361106 0.04007176398815152
-0.0016722727371407085 0.04275951405792557 0.04700092259784087
-0.0006485493516483927 0.04587789884139097 0.05364826332993033
0.0001374053121431227 0.04872882372998762 0.05997409303241773
0.0007511984436382017 0.05128455486461039 0.06599442385632306
0.0012455433643025467 0.05357955095419673 0.07168936105676538
0.0016598526811940704 0.055684124729021116 0.07701830955999325
0.002022453218220871 0.057677625694014474 0.08193545690797473
0.002352563731918074 0.05960777731122119 0.08641324994705182
0.002662053738196183 0.061427992752336916 0.09047858559508679
0.002957000443680671 0.06303642713707219 0.09419026402113027
0.0032390594424296184 0.06433457708879088 0.09760515617619926
0.0035066635059833096 0.0652610115013233 0.10075872932597744
0.0037560624618667195 0.06580526535189803 0.10365702545417894
0.003982215822832984 0.06600720814550728 0.10627702589136412
0.004179548496302947 0.06594659153769904 0.10857268599773395
0.008285994416043337 -0.0001889136504402084 0.011116252229035312
0.007508437091591354 0.00622300820868948 0.018717642875315833
0.00973309288421085 0.011522752168031499 0.026485220659523544
0.010440442308044806 0.012720243973007323 0.03614530575743633
0.01004693542569484 0.015535456587138527 0.044395470238807626
0.0094954698488839 0.019191570750758214 0.0516842109123178
0.009038213335578684 0.02301780356025828 0.058398804467932774
0.008539133039147835 0.026908827711504667 0.06460006165304738
0.008012046218423283 0.030823321897120757 0.07031183933559879
0.007469873605570215 0.03468074236786902 0.0755806394708908
0.0069256484677951155 0.03841520237154039 0.08044450179304737
0.0064559301991455546 0.04199309382896331 0.08492282993562514
0.006108090109537901 0.04538286885676532 0.08903383807758156
0.005835591307912621 0.04853721842772532 0.09280484009851779
0.005646315885461864 0.05142113040341004 0.09625605026598327
0.005556570152728891 0.05400329964758647 0.09940554260880909
0.005484703593381549 0.05624244572184886 0.10227715039922106
0.005393245002100456 0.05812374928915766 0.10487942958544824
0.005297730961761147 0.059659334139285265 0.10720538049420185
0.00521698140800628 0.0608749034348045 0.10924016339765157
0.005155604557614359 0.061802967047021436 0.11096500871284741
0.005485628962270063 0.00620592208453148 0.013075849824861907
0.005312774690522743 0.011979659124425583 0.020807732112369838
0.006196413562335568 0.015842335932521854 0.02916703646724186
0.006457021259275767 0.018720770104538157 0.0376186645011006
0.006414690581931144 0.02232333856423365 0.045176284337136344
0.006371643086760199 0.026086569476823262 0.05216521659084301
0.006301402129423808 0.029802163339325678 0.05870572303633896
0.00614279921665101 0.033475396424656856 0.06479475741603581
0.005916795403470228 0.03706569642369592 0.07045574416352621
0.005647913503504593 0.04051899250462942 0.07571990108811286
0.005381266505789829 0.04381107053559112 0.08060120822534703
0.005171795853183163 0.04693620481002768 0.0851029713134485
0.005025757650311314 0.04988070810733845 0.08923309267291557
0.004932542381279714 0.05261385206962052 0.09300931332945522
0.00490346403705614 0.055092213755299824 0.09645670353007427
0.004914985140555201 0.057263530041771114 0.0996054374026775
0.0049224460918573685 0.05908677170289171 0.1024792031820231
0.004916956732429355 0.06055194089231876 0.10508377312738833
0.004910301924250248 0.06167689827745932 0.10740883537763793
0.004909940276999731 0.06249842639108552 0.10943315352757435

CELLS 40 140
4 0 21 22 1
4 1 22 23 2
4 2 23 24 3
4 3 24 25 4
4 4 25 26 5
4 5 26 27 6
4 6 27 28 7
4 7 28 29 8
4 8 29 30 9
4 9 30 31 10
4 10 31 32 11
4 11 32 33 12
4 12 33 34 13
4 13 34 35 14
4 14 35 36 15
4 15 36 37 16
4 16 37 38 17
4 17 38 39 18
4 18 39 40 19
4 19 40 41 20
1 42
1 43
1 44
1 45
1 46
1 47
1 48
1 49
1 50
1 51
1 52
1 53
1 54
1 55
1 56
1 57
1 58
1 59
1 60
1 61

CELL_TYPES 40
9
9
9
9
9
9
9
9
9
9
9
9
9
9
9
9
9
9
9
9
1
1
1
1
1
1
1
1
1
1
1
1
1
1
1
1
1
1
1
1

CELL_DATA 40

VECTORS S float
4.4467857512147e-18 7.31107888755309e-17 2.096159469668126e-16
-2.24911833048337e-18 -3.616682840739902e-17 -1.0494214422129724e-16
0.0 0.0 0.0
-2.4860459697304508e-17 -5.668653027683126e-16 -1.6832971534892687e-15
0.0 0.0 0.0
-1.9335227205170318e-17 -5.631683907995537e-16 -1.6846100835140495e-15
0.0 0.0 0.0
0.0 0.0 0.0
0.0 0.0 0.0
-6.5622792119592296e-18 -2.8124454489145336e-16 -8.424484243449894e-16
-5.9983313773759094e-18 -2.815625978869497e-16 -8.423463828573438e-16
0.0 0.0 0.0
0.0 0.0 0.0
4.54186140967687e-18 2.836769028534941e-16 8.416458230772589e-16
-4.19430137035182e-18 -2.8444236833942434e-16 -8.413892393835838e-16
0.0 0.0 0.0
0.0 0.0 0.0
-1.95345217348537e-18 -1.4332209117377338e-16 -4.2032152991660494e-16
2.02199881078463e-18 1.4363184526963465e-16 4.2021545765297816e-16
1.03067704817946e-18 7.190007580297347e-17 2.1007885038875824e-16
4.4467857512147e-18 7.31107888755309e-17 2.096159469668126e-16
-2.24911833048337e-18 -3.616682840739902e-17 -1.0494214422129724e-16
0.0 0.0 0.0
-2.4860459697304508e-17 -5.668653027683126e-16 -1.6832971534892687e-15
0.0 0.0 0.0
-1.9335227205170318e-17 -5.631683907995537e-16 -1.6846100835140495e-15
0.0 0.0 0.0
0.0 0.0 0.0
0.0 0.0 0.0
-6.5622792119592296e-18 -2.8124454489145336e-16 -8.424484243449894e-16
-5.9983313773759094e-18 -2.815625978869497e-16 -8.423463828573438e-16
0.0 0.0 0.0
0.0 0.0 0.0
4.54186140967687e-18 2.836769028534941e-16 8.416458230772589e-16
-4.19430137035182e-18 -2.8444236833942434e-16 -8.413892393835838e-16
0.0 0.0 0.0
0.0 0.0 0.0
-1.95345217348537e-18 -1.4332209117377338e-16 -4.2032152991660494e-16
2.02199881078463e-18 1.4363184526963465e-16 4.2021545765297816e-16
1.03067704817946e-18 7.190007580297347e-17 2.1007885038875824e-16

SCALARS Gamma float
LOOKUP_TABLE default
0.11298764273185631
0.0785280331765869
0.48753725838392664
0.6471991730733498
0.7660655877054019
0.811532974649153
0.8230837606047272
0.8359443109564431
0.8244246500868077
0.7991072699750825
0.7606933500855567
0.7183694745852408
0.6775747622035108
0.6230544812986849
0.5822963404558797
0.542559603201116
0.43149263675174837
0.33461870823690265
0.23971627767422163
0.1819877150310595
0.11298764273185631
0.0785280331765869
0.48753725838392664
0.6471991730733498
0.7660655877054019
0.811532974649153
0.8230837606047272
0.8359443109564431
0.8244246500868077
0.7991072699750825
0.7606933500855567
0.7183694745852408
0.6775747622035108
0.6230544812986849
0.5822963404558797
0.542559603201116
0.43149263675174837
0.33461870823690265
0.23971627767422163
0.1819877150310595

VECTORS Ftot float
-1.8700383845328032 -2.6123779748431475 0.9508278234955326
-1.8925994433468736 -2.09793219169812 0.763584871286976
-17.678956884548334 -12.620572759103888 4.593512823704717
-30.43990613749049 -16.521211269354946 6.013229136068573
-43.69127991627126 -19.52092649975362 7.105036191208679
-53.859689287468555 -20.83631450148709 7.583798270350565
-61.89962405013216 -21.336843224599406 7.7659758269587185
-69.90135911882237 -21.76253199006501 7.920913866649726
-75.55856851283873 -21.290943433007048 7.7492696690600775
-79.2300541828299 -20.484509462845423 7.455751708020126
-80.77364206091545 -19.3598292718107 7.0464015954146575
-80.99369015013907 -18.101656237173845 6.588464061250462
-80.46688342366863 -17.07955622244039 6.216450079444436
-77.47610016925996 -15.530907679506116 5.652788106476631
-75.34909921474134 -14.49825269548329 5.2769324300256795
-72.70838091434393 -13.339020556007085 4.855006436651613
-59.44012508379213 -11.410276701072991 4.153001083931748
-47.180441830603556 -9.538459100146046 3.4717151932187633
-34.43999491620604 -7.476603045884457 2.721260962125982
-26.56900441019715 -6.002154035864998 2.1846054105356263
-1.8700383845328032 -2.6123779748431475 0.9508278234955326
-1.8925994433468736 -2.09793219169812 0.763584871286976
-17.678956884548334 -12.620572759103888 4.593512823704717
-30.43990613749049 -16.521211269354946 6.013229136068573
-43.69127991627126 -19.52092649975362 7.105036191208679
-53.859689287468555 -20.83631450148709 7.583798270350565
-61.89962405013216 -21.336843224599406 7.7659758269587185
-69.90135911882237 -21.76253199006501 7.920913866649726
-75.55856851283873 -21.290943433007048 7.7492696690600775
-79.2300541828299 -20.484509462845423 7.455751708020126
-80.77364206091545 -19.3598292718107 7.0464015954146575
-80.99369015013907 -18.101656237173845 6.588464061250462
-80.46688342366863 -17.07955622244039 6.216450079444436
-77.47610016925996 -15.530907679506116 5.652788106476631
-75.34909921474134 -14.49825269548329 5.2769324300256795
-72.70838091434393 -13.339020556007085 4.855006436651613
-59.44012508379213 -11.410276701072991 4.153001083931748
-47.180441830603556 -9.538459100146046 3.4717151932187633
-34.43999491620604 -7.476603045884457 2.721260962125982
-26.56900441019715 -6.002154035864998 2.1846054105356263

VECTORS D float
-0.02207956053294585 0.013938093138738351 -0.004392995489835473
0.25218084606371405 -0.2632626541516628 0.08532502115088028
0.7667022378336635 -1.095361569714004 0.35844908131026393
0.5782035394002663 -1.0336227909889715 0.3395422426690013
0.45114896356250983 -0.957532387635698 0.31513877459078066
0.42285616479521776 -1.0344554939611796 0.34096710062917174
0.43808104604320264 -1.2106059498096313 0.39966038482195737
0.45109713227637444 -1.3894519792877984 0.459479326653503
0.4027655576318209 -1.3695828225661633 0.45379585559380115
0.37717938216330077 -1.4030637162566164 0.46546334301525566
0.3708495139896551 -1.5020139917774646 0.49942219955209016
0.3588045570572745 -1.573580992374776 0.5246501328592034
0.3883175578879998 -1.833790582032708 0.6140097007604486
0.3627008525185302 -1.8346408738924735 0.6164088144013886
0.3696779207228877 -1.9908391521444226 0.6711857442140144
0.34001747210155264 -1.9370292818950374 0.6552077902375409
0.42242498438428766 -2.528913510428314 0.8580519025585563
0.44445320586669995 -2.777656665503437 0.9450654213704539
0.4183146730674494 -2.711417205894548 0.9247637556634292
0.36427390154665573 -2.4349327294456025 0.8315753763380905
-0.02207956053294585 0.013938093138738351 -0.004392995489835473
0.25218084606371405 -0.2632626541516628 0.08532502115088028
0.7667022378336635 -1.095361569714004 0.35844908131026393
0.5782035394002663 -1.0336227909889715 0.3395422426690013
0.45114896356250983 -0.957532387635698 0.31513877459078066
0.42285616479521776 -1.0344554939611796 0.34096710062917174
0.43808104604320264 -1.2106059498096313 0.39966038482195737
0.45109713227637444 -1.3894519792877984 0.459479326653503
0.4027655576318209 -1.3695828225661633 0.45379585559380115
0.37717938216330077 -1.4030637162566164 0.46546334301525566
0.3708495139896551 -1.5020139917774646 0.49942219955209016
0.3588045570572745 -1.573580992374776 0.5246501328592034
0.3883175578879998 -1.833790582032708 0.6140097007604486
0.3627008525185302 -1.8346408738924735 0.6164088144013886
0.3696779207228877 -1.9908391521444226 0.6711857442140144
0.34001747210155264 -1.9370292818950374 0.6552077902375409
0.42242498438428766 -2.528913510428314 0.8580519025585563
0.44445320586669995 -2.777656665503437 0.9450654213704539
0.4183146730674494 -2.711417205894548 0.9247637556634292
0.36427390154665573 -2.4349327294456025 0.8315753763380905

VECTORS L float
-1.8479588239998581 -2.6263160679818864 0.9552208189853683
-2.144780289410587 -1.834669537546457 0.6782598501360959
-18.445659122382 -11.52521118938989 4.235063742394455
-31.01810967689076 -15.487588478365975 5.673686893399574
-44.14242887983377 -18.563394112117923 6.789897416617899
-54.28254545226378 -19.801859007525916 7.242831169721397
-62.33770509617534 -20.126237274789766 7.366315442136759
-70.35245625109874 -20.373080010777212 7.461434539996223
-75.96133407047056 -19.92136061044088 7.295473813466277
-79.60723356499321 -19.08144574658881 6.990288365004871
-81.14449157490513 -17.857815280033243 6.5469793958625715
-81.35249470719636 -16.52807524479907 6.063813928391258
-80.85520098155664 -15.245765640407683 5.60244037868399
-77.83880102177851 -13.696266805613647 5.036379292075243
-75.71877713546424 -12.507413543338865 4.605746685811666
-73.04839838644548 -11.40199127411205 4.199798646414072
-59.862550068176425 -8.881363190644677 3.294949181373191
-47.624895036470264 -6.760802434642611 2.5266497718483105
-34.858309589273496 -4.765185839989909 1.796497206462553
-26.933278311743813 -3.5672213064193965 1.353030034197536
-1.8479588239998581 -2.6263160679818864 0.9552208189853683
-2.144780289410587 -1.834669537546457 0.6782598501360959
-18.445659122382 -11.52521118938989 4.235063742394455
-31.01810967689076 -15.487588478365975 5.673686893399574
-44.14242887983377 -18.563394112117923 6.789897416617899
-54.28254545226378 -19.801859007525916 7.242831169721397
-62.33770509617534 -20.126237274789766 7.366315442136759
-70.35245625109874 -20.373080010777212 7.461434539996223
-75.96133407047056 -19.92136061044088 7.295473813466277
-79.60723356499321 -19.08144574658881 6.990288365004871
-81.14449157490513 -17.857815280033243 6.5469793958625715
-81.35249470719636 -16.52807524479907 6.063813928391258
-80.85520098155664 -15.245765640407683 5.60244037868399
-77.83880102177851 -13.696266805613647 5.036379292075243
-75.71877713546424 -12.507413543338865 4.605746685811666
-73.04839838644548 -11.40199127411205 4.199798646414072
-59.862550068176425 -8.881363190644677 3.294949181373191
-47.624895036470264 -6.760802434642611 2.5266497718483105
-34.858309589273496 -4.765185839989909 1.796497206462553
-26.933278311743813 -3.5672213064193965 1.353030034197536

SCALARS mu float
LOOKUP_TABLE default
-0.04991605263755086
0.53620400706638
1.2953231269207686
0.8593519340488027
0.6550335110902525
0.6306987564469253
0.687221340017237
0.7571154671185459
0.7370570822378315
0.7658149279573778
0.8496011532935089
0.9368764651670568
1.1580881267700658
1.2313410326206817
1.4243407167300863
1.4900893729350206
2.1262420658713412
2.6150822861371346
2.9482577189881063
3.1674248857150356
-0.04991605263755086
0.53620400706638
1.2953231269207686
0.8593519340488027
0.6550335110902525
0.6306987564469253
0.687221340017237
0.7571154671185459
0.7370570822378315
0.7658149279573778
0.8496011532935089
0.9368764651670568
1.1580881267700658
1.2313410326206817
1.4243407167300863
1.4900893729350206
2.1262420658713412
2.6150822861371346
2.9482577189881063
3.1674248857150356