# vtk DataFile Version 4.0
[MyVLM domain - lattices] 
ASCII
DATASET UNSTRUCTURED_GRID
POINTS 62 float
0.00022673658128986117 0.009532499999999706 -0.009572696895256872
-0.003724999406033424 0.019321458333332767 -0.010193598365867147
-0.00549739299719125 0.028698249999999172 -0.01127244364322204
-0.005451904080891177 0.03766287499999892 -0.012778971530094494
-0.004354059046121628 0.046215333333332026 -0.013848370910937621
-0.0029556321221654493 0.05435562499999846 -0.014003176200856409
-0.0016722727371407085 0.062083749999998265 -0.013530364128720766
-0.0006485493516483927 0.06939970833333138 -0.012907294203931921
0.0001374053121431227 0.07630349999999787 -0.01221335273049425
0.0007511984436382017 0.0827951249999977 -0.011416515406367725
0.0012455433643025467 0.08887458333333087 -0.010556571721314306
0.0016598526811940704 0.09454187499999737 -0.009714711822836796
0.002022453218220871 0.09979699999999724 -0.008982560626999132
0.002352563731918074 0.10463995833333044 -0.008415224441117222
0.002662053738196183 0.10907074999999698 -0.007958909429466653
0.002957000443680671 0.11308937499999687 -0.007496015253946067
0.0032390594424296184 0.11669583333333008 -0.006912800012521506
0.0035066635059833096 0.11989012499999668 -0.006138329173825601
0.0037560624618667195 0.12267224999999661 -0.005160518770430073
0.003982215822832984 0.1250422083333299 -0.004025406141214332
0.004179548496302947 0.1269999999999965 -0.0028250805657762407
0.008285994416043337 0.009532499999999756 0.005721730134920455
0.007508437091591354 0.019321458333332816 0.003969538240973681
0.00973309288421085 0.028698249999999224 0.003263614230734233
0.010440442308044806 0.037662874999998985 0.007056598455757832
0.01004693542569484 0.046215333333332095 0.008743635055551442
0.0094954698488839 0.054355624999998534 0.009221717647475772
0.009038213335578684 0.06208374999999833 0.009265399611462702
0.008539133039147835 0.06939970833333145 0.008996302442301853
0.008012046218423283 0.07630349999999794 0.008462139875867553
0.007469873605570215 0.08279512499999776 0.00775591582276744
0.0069256484677951155 0.08887458333333093 0.0069537097512494
0.0064559301991455546 0.09454187499999742 0.00609432892842672
0.006108090109537901 0.09979699999999728 0.005214201712214291
0.005835591307912621 0.10463995833333045 0.004367955861814515
0.005646315885461864 0.10907074999999702 0.003596019912326134
0.005556570152728891 0.11308937499999692 0.0029345419214114083
0.005484703593381549 0.11669583333333013 0.0024311884335219704
0.005393245002100456 0.11989012499999668 0.0021030713451158467
0.005297730961761147 0.12267224999999662 0.0019361913096156427
0.00521698140800628 0.1250422083333299 0.001900868871360465
0.005155604557614359 0.1269999999999965 0.0019595648644505715
0.005485628962270063 0.014426979166666272 0.001163438733319798
0.005312774690522743 0.024009854166666005 2.9176925754318527e-5
0.006196413562335568 0.03318056249999908 0.0008636528607699574
0.006457021259275767 0.041939104166665526 0.0025966697616119612
0.006414690581931144 0.0502854791666653 0.0032555638746609495
0.006371643086760199 0.05821968749999842 0.00349097643090478
0.006301402129423808 0.06574172916666489 0.0035434309785801208
0.00614279921665101 0.07285160416666467 0.003406835002510256
0.005916795403470228 0.07954931249999783 0.0031280373698803756
0.005647913503504593 0.08583485416666432 0.002769473699296062
0.005381266505789829 0.09170822916666417 0.0023591040618596566
0.005171795853183163 0.09716943749999733 0.0019035399340108876
0.005025757650311314 0.10221847916666385 0.0014185859567462592
0.004932542381279714 0.10685535416666372 0.0009397241814797602
0.00490346403705614 0.11108006249999695 0.0005170951022249878
0.004914985140555201 0.1148926041666635 0.00021104697479156948
0.0049224460918573685 0.11829297916666343 6.89562686957935e-5
0.004916956732429355 0.12128118749999665 0.00010236750249234949
0.004910301924250248 0.12385722916666327 0.0002906569539104898
0.004909940276999731 0.1260211041666632 0.000591351812555317

CELLS 40 140
4 0 21 22 1
4 1 22 23 2
4 2 23 24 3
4 3 24 25 4
4 4 25 26 5
4 5 26 27 6
4 6 27 28 7
4 7 28 29 8
4 8 29 30 9
4 9 30 31 10
4 10 31 32 11
4 11 32 33 12
4 12 33 34 13
4 13 34 35 14
4 14 35 36 15
4 15 36 37 16
4 16 37 38 17
4 17 38 39 18
4 18 39 40 19
4 19 40 41 20
1 42
1 43
1 44
1 45
1 46
1 47
1 48
1 49
1 50
1 51
1 52
1 53
1 54
1 55
1 56
1 57
1 58
1 59
1 60
1 61

CELL_TYPES 40
9
9
9
9
9
9
9
9
9
9
9
9
9
9
9
9
9
9
9
9
1
1
1
1
1
1
1
1
1
1
1
1
1
1
1
1
1
1
1
1

CELL_DATA 40

VECTORS S float
0.0 0.0 0.0
2.32214105225443e-18 1.0895408830479401e-16 2.1202970232561498e-17
7.47738828959495e-18 4.3546599972781447e-16 8.676795520625539e-17
0.0 0.0 0.0
-5.539518578759199e-18 -4.351366451797249e-16 -8.854738878647253e-17
4.9530277652902795e-18 4.350693684807415e-16 8.891197012201446e-17
0.0 0.0 0.0
0.0 0.0 0.0
7.240327382471599e-18 8.701497277187609e-16 1.778986628150211e-16
-3.2820297465570398e-18 -4.351029380546595e-16 -8.882504085109578e-17
0.0 0.0 0.0
2.7277722076608198e-18 4.351998222228091e-16 8.836798233111025e-17
-2.51227660766799e-18 -4.35268990996592e-16 -8.803306338136959e-17
0.0 0.0 0.0
2.1201331938074898e-18 4.3542288357712104e-16 8.72791143279899e-17
-1.94504343579959e-18 -4.3550058980253783e-16 -8.689464536395486e-17
0.0 0.0 0.0
0.0 0.0 0.0
0.0 0.0 0.0
-1.03478253045787e-18 -2.17882384172825e-16 -4.277852812560752e-17
0.0 0.0 0.0
2.32214105225443e-18 1.0895408830479401e-16 2.1202970232561498e-17
7.47738828959495e-18 4.3546599972781447e-16 8.676795520625539e-17
0.0 0.0 0.0
-5.539518578759199e-18 -4.351366451797249e-16 -8.854738878647253e-17
4.9530277652902795e-18 4.350693684807415e-16 8.891197012201446e-17
0.0 0.0 0.0
0.0 0.0 0.0
7.240327382471599e-18 8.701497277187609e-16 1.778986628150211e-16
-3.2820297465570398e-18 -4.351029380546595e-16 -8.882504085109578e-17
0.0 0.0 0.0
2.7277722076608198e-18 4.351998222228091e-16 8.836798233111025e-17
-2.51227660766799e-18 -4.35268990996592e-16 -8.803306338136959e-17
0.0 0.0 0.0
2.1201331938074898e-18 4.3542288357712104e-16 8.72791143279899e-17
-1.94504343579959e-18 -4.3550058980253783e-16 -8.689464536395486e-17
0.0 0.0 0.0
0.0 0.0 0.0
0.0 0.0 0.0
-1.03478253045787e-18 -2.17882384172825e-16 -4.277852812560752e-17

SCALARS Gamma float
LOOKUP_TABLE default
0.11284268320722328
0.0776437782374839
0.48590676625829565
0.6442418056567217
0.7649170299063479
0.8091112561598873
0.8300479504849606
0.833416733790997
0.8212803806767497
0.7981224167286021
0.7593439518650732
0.7166275714160089
0.6763019008535942
0.6218166367610157
0.5810553062037719
0.5413217190348035
0.43045587510833044
0.333587246958683
0.2388346024514678
0.18108968157529223
0.11284268320722328
0.0776437782374839
0.48590676625829565
0.6442418056567217
0.7649170299063479
0.8091112561598873
0.8300479504849606
0.833416733790997
0.8212803806767497
0.7981224167286021
0.7593439518650732
0.7166275714160089
0.6763019008535942
0.6218166367610157
0.5810553062037719
0.5413217190348035
0.43045587510833044
0.333587246958683
0.2388346024514678
0.18108968157529223

VECTORS Ftot float
-1.8674044691313882 -0.48212325360541086 2.734256842987357
-1.868547319294336 -0.384191325774621 2.1788572811204743
-17.623427274994892 -2.3274162703425643 13.199433580676493
-30.30039742186048 -3.045779657371985 17.273474797415524
-43.62304292241305 -3.6045446085305777 20.442388306360893
-53.68245601887072 -3.8437135372745708 21.798782703764168
-62.4056401219416 -3.9797748798284673 22.57042492214287
-69.65960983156636 -4.01457642242145 22.76779427794511
-75.23007167920477 -3.925307930215517 22.26152750103291
-79.11369581094209 -3.782340260076749 21.450717552581796
-80.59982641316788 -3.5730858033165704 20.26397655628379
-80.74898853835477 -3.3393746096501085 18.93853451260201
-80.26733258128225 -3.1512670659072204 17.871723619640004
-77.27043118671628 -2.865124765989335 16.24892999629207
-75.13335906906504 -2.6744212171708597 15.167396426941252
-72.48521669172881 -2.4603568816770562 13.953377252826673
-59.247240326938716 -2.104343534207544 11.93432522778155
-46.99280782381743 -1.7580750996506462 9.970539350171494
-34.280846040896186 -1.3773039936484863 7.811079099265675
-26.412630413315508 -1.105336473882726 6.26867464889157
-1.8674044691313882 -0.48212325360541086 2.734256842987357
-1.868547319294336 -0.384191325774621 2.1788572811204743
-17.623427274994892 -2.3274162703425643 13.199433580676493
-30.30039742186048 -3.045779657371985 17.273474797415524
-43.62304292241305 -3.6045446085305777 20.442388306360893
-53.68245601887072 -3.8437135372745708 21.798782703764168
-62.4056401219416 -3.9797748798284673 22.57042492214287
-69.65960983156636 -4.01457642242145 22.76779427794511
-75.23007167920477 -3.925307930215517 22.26152750103291
-79.11369581094209 -3.782340260076749 21.450717552581796
-80.59982641316788 -3.5730858033165704 20.26397655628379
-80.74898853835477 -3.3393746096501085 18.93853451260201
-80.26733258128225 -3.1512670659072204 17.871723619640004
-77.27043118671628 -2.865124765989335 16.24892999629207
-75.13335906906504 -2.6744212171708597 15.167396426941252
-72.48521669172881 -2.4603568816770562 13.953377252826673
-59.247240326938716 -2.104343534207544 11.93432522778155
-46.99280782381743 -1.7580750996506462 9.970539350171494
-34.280846040896186 -1.3773039936484863 7.811079099265675
-26.412630413315508 -1.105336473882726 6.26867464889157

VECTORS D float
-0.02209167605829489 0.003199914483005532 -0.014266952999840985
0.2521639272273404 -0.057972690158931924 0.27028295246717887
0.7610791837995702 -0.23568856151162226 1.117272733421321
0.5757069257148801 -0.22150328289353446 1.0576060321863656
0.45105128923660504 -0.20632631300194382 0.9857041958147762
0.4225925014498781 -0.22222985267015152 1.0638870012201587
0.43910492760512165 -0.2595927808302224 1.2489623903302611
0.45193712679232223 -0.2972896525170341 1.4334090164977096
0.4033909401597089 -0.29212862971284376 1.4124612358378543
0.37740452402477564 -0.29841571177313353 1.4478225829967837
0.3709410799167777 -0.3181106185304039 1.549608380807877
0.35907603825821843 -0.3320900168894641 1.6244123141434548
0.388225298417401 -0.38509341989013945 1.8929693978428075
0.36259157851400864 -0.3834646132804963 1.894739475493103
0.369641550892658 -0.41420531500798563 2.0574313192165565
0.3399094622228037 -0.40100332545355194 2.0021492158791405
0.4220106986180993 -0.5208062194729509 2.612958769223148
0.4437678121687235 -0.5693114164414903 2.868936742186528
0.4174919789890651 -0.5534215312763536 2.7996843782335374
0.36384374027152605 -0.4954838334864246 2.514829390505963
-0.02209167605829489 0.003199914483005532 -0.014266952999840985
0.2521639272273404 -0.057972690158931924 0.27028295246717887
0.7610791837995702 -0.23568856151162226 1.117272733421321
0.5757069257148801 -0.22150328289353446 1.0576060321863656
0.45105128923660504 -0.20632631300194382 0.9857041958147762
0.4225925014498781 -0.22222985267015152 1.0638870012201587
0.43910492760512165 -0.2595927808302224 1.2489623903302611
0.45193712679232223 -0.2972896525170341 1.4334090164977096
0.4033909401597089 -0.29212862971284376 1.4124612358378543
0.37740452402477564 -0.29841571177313353 1.4478225829967837
0.3709410799167777 -0.3181106185304039 1.549608380807877
0.35907603825821843 -0.3320900168894641 1.6244123141434548
0.388225298417401 -0.38509341989013945 1.8929693978428075
0.36259157851400864 -0.3834646132804963 1.894739475493103
0.369641550892658 -0.41420531500798563 2.0574313192165565
0.3399094622228037 -0.40100332545355194 2.0021492158791405
0.4220106986180993 -0.5208062194729509 2.612958769223148
0.4437678121687235 -0.5693114164414903 2.868936742186528
0.4174919789890651 -0.5534215312763536 2.7996843782335374
0.36384374027152605 -0.4954838334864246 2.514829390505963

VECTORS L float
-1.845312793073094 -0.4853231680884165 2.7485237959871984
-2.1207112465216764 -0.32621863561568915 1.9085743286532952
-18.384506458794462 -2.0917277088309416 12.082160847255171
-30.87610434757536 -2.8242763744784507 16.21586876522916
-44.07409421164965 -3.3982182955286335 19.456684110546114
-54.10504852032059 -3.6214836846044203 20.73489570254401
-62.844745049546724 -3.7201820989982433 21.321462531812603
-70.11154695835869 -3.7172867699044168 21.334385261447405
-75.63346261936448 -3.6331793005026736 20.849066265195056
-79.49110033496687 -3.483924548303616 20.002894969585014
-80.97076749308468 -3.2549751847861677 18.714368175475922
-81.108064576613 -3.0072845927606466 17.314122198458563
-80.65555787969966 -2.7661736460170805 15.9787542217972
-77.6330227652303 -2.481660152708838 14.35419052079897
-75.50300061995769 -2.2602159021628743 13.109965107724694
-72.8251261539516 -2.0593535562235035 11.951228036947533
-59.669251025556825 -1.5835373147345932 9.321366458558403
-47.43657563598615 -1.1887636832091562 7.101602607984966
-34.69833801988525 -0.8238824623721328 5.011394721032138
-26.77647415358703 -0.6098526403963012 3.7538452583856063
-1.845312793073094 -0.4853231680884165 2.7485237959871984
-2.1207112465216764 -0.32621863561568915 1.9085743286532952
-18.384506458794462 -2.0917277088309416 12.082160847255171
-30.87610434757536 -2.8242763744784507 16.21586876522916
-44.07409421164965 -3.3982182955286335 19.456684110546114
-54.10504852032059 -3.6214836846044203 20.73489570254401
-62.844745049546724 -3.7201820989982433 21.321462531812603
-70.11154695835869 -3.7172867699044168 21.334385261447405
-75.63346261936448 -3.6331793005026736 20.849066265195056
-79.49110033496687 -3.483924548303616 20.002894969585014
-80.97076749308468 -3.2549751847861677 18.714368175475922
-81.108064576613 -3.0072845927606466 17.314122198458563
-80.65555787969966 -2.7661736460170805 15.9787542217972
-77.6330227652303 -2.481660152708838 14.35419052079897
-75.50300061995769 -2.2602159021628743 13.109965107724694
-72.8251261539516 -2.0593535562235035 11.951228036947533
-59.669251025556825 -1.5835373147345932 9.321366458558403
-47.43657563598615 -1.1887636832091562 7.101602607984966
-34.69833801988525 -0.8238824623721328 5.011394721032138
-26.77647415358703 -0.6098526403963012 3.7538452583856063

SCALARS mu float
LOOKUP_TABLE default
-0.04994676010866641
0.5355726344020051
1.2833131634771098
0.8535084671356173
0.6544304616264183
0.6295280309426451
0.6878703797953696
0.7576624313350214
0.7372036906748266
0.7659880246514331
0.8494039728081272
0.9370068346495185
1.1575132907388632
1.2307127443764987
1.4238653834696477
1.4891186078797702
2.1231067246105715
2.609220870083371
2.939719140716928
3.1581288771138754
-0.04994676010866641
0.5355726344020051
1.2833131634771098
0.8535084671356173
0.6544304616264183
0.6295280309426451
0.6878703797953696
0.7576624313350214
0.7372036906748266
0.7659880246514331
0.8494039728081272
0.9370068346495185
1.1575132907388632
1.2307127443764987
1.4238653834696477
1.4891186078797702
2.1231067246105715
2.609220870083371
2.939719140716928
3.1581288771138754