# vtk DataFile Version 4.0
[MyVLM domain - lattices] 
ASCII
DATASET UNSTRUCTURED_GRID
POINTS 62 float
0.00022673658128986117 0.007725398534369473 -0.011082567373295008
-0.003724999406033424 0.017257822186067296 -0.013393870731249523
-0.00549739299719125 0.026304819801383533 -0.016084588709968352
-0.005451904080891177 0.03487164618207067 -0.019124919847806853
-0.004354059046121628 0.04310847420236955 -0.021663191453283305
-0.0029556321221654493 0.05109821489099587 -0.023229191716596584
-0.0016722727371407085 0.05879103526194853 -0.024105537545271855
-0.0006485493516483927 0.06610404270632805 -0.024762336285141566
0.0001374053121431227 0.07302345193711234 -0.02527776818387222
0.0007511984436382017 0.07955482391599171 -0.02562029546052998
0.0012455433643025467 0.0856912492705787 -0.025829103113120817
0.0016598526811940704 0.09141862947971494 -0.025984147828373723
0.002022453218220871 0.09672105404369703 -0.02617566253399754
0.002352563731918074 0.10158895385268163 -0.02645791634867684
0.002662053738196183 0.10603167010821199 -0.026777932685925983
0.002957000443680671 0.11006962389469242 -0.027019897821025863
0.0032390594424296184 0.11372256628613549 -0.027071797847011102
0.0035066635059833096 0.11700281493464679 -0.02686377588743481
0.0037560624618667195 0.11991246819914925 -0.02638393155748649
0.003982215822832984 0.12244353177964185 -0.025677602785422627
0.004179548496302947 0.12458001454053967 -0.024835479807760494
0.008285994416043337 0.010381247916619693 0.003979502943903348
0.007508437091591354 0.019717225047893076 0.0005540960061385671
0.00973309288421085 0.028828979761657155 -0.0017693662174618281
0.010440442308044806 0.0383160567630989 0.00040930325967708774
0.01004693542569484 0.047031534868290925 0.000585591178613544
0.0094954698488839 0.05513117538426678 -0.00035713619187314506
0.009038213335578684 0.06274947809395741 -0.0016560926781042443
0.008539133039147835 0.06990756234829816 -0.003191504489078005
0.008012046218423283 0.07661371355057328 -0.004916382767780203
0.007469873605570215 0.08288408166037568 -0.0067391365419839835
0.0069256484677951155 0.08873187773872449 -0.00858484216151378
0.0064559301991455546 0.09416384059683418 -0.010415281928843216
0.006108090109537901 0.09918629595267203 -0.0121945809146682
0.005835591307912621 0.10380872981707359 -0.013868941278196519
0.005646315885461864 0.10803816253148452 -0.01539854868462001
0.005556570152728891 0.11188087114024402 -0.016747804246496537
0.005484703593381549 0.1153451328519318 -0.01786976558129084
0.005393245002100456 0.11843391911618431 -0.01874758076070231
0.005297730961761147 0.12114479897197976 -0.01939503644977747
0.00521698140800628 0.12347261863592852 -0.019841361206556354
0.005155604557614359 0.125410859500281 -0.020123523892658625
0.005485628962270063 0.014409829951746883 -0.001359455156802348
0.005312774690522743 0.02365015705201269 -0.004140533759398457
0.006196413562335568 0.032826446944715294 -0.004911212178891177
0.006457021259275767 0.04175286190982622 -0.004725428498277284
0.006414690581931144 0.05008685248137982 -0.0055258772762073385
0.006371643086760199 0.057941401323452116 -0.0066718019839750765
0.006301402129423808 0.06535827491188043 -0.007926333166495023
0.00614279921665101 0.07233641529250683 -0.009295470779948549
0.005916795403470228 0.07888395768574387 -0.010733077696711843
0.005647913503504593 0.08501174392298387 -0.012177666835518009
0.005381266505789829 0.09072462921962121 -0.013601702901570693
0.005171795853183163 0.09602376164649132 -0.014998674861613189
0.005025757650311314 0.10091188565070196 -0.016353018182658566
0.004932542381279714 0.10539516262582098 -0.017629789865381548
0.00490346403705614 0.10948229937726127 -0.018779611162537686
0.004914985140555201 0.11318377526966941 -0.019743050643924887
0.0049224460918573685 0.11650781714064132 -0.020473451595053174
0.004916956732429355 0.11945642967478605 -0.02095944488454508
0.004910301924250248 0.1220260316003145 -0.02122134091398882
0.004909940276999731 0.12420924759110125 -0.021300967236353507

CELLS 40 140
4 0 21 22 1
4 1 22 23 2
4 2 23 24 3
4 3 24 25 4
4 4 25 26 5
4 5 26 27 6
4 6 27 28 7
4 7 28 29 8
4 8 29 30 9
4 9 30 31 10
4 10 31 32 11
4 11 32 33 12
4 12 33 34 13
4 13 34 35 14
4 14 35 36 15
4 15 36 37 16
4 16 37 38 17
4 17 38 39 18
4 18 39 40 19
4 19 40 41 20
1 42
1 43
1 44
1 45
1 46
1 47
1 48
1 49
1 50
1 51
1 52
1 53
1 54
1 55
1 56
1 57
1 58
1 59
1 60
1 61

CELL_TYPES 40
9
9
9
9
9
9
9
9
9
9
9
9
9
9
9
9
9
9
9
9
1
1
1
1
1
1
1
1
1
1
1
1
1
1
1
1
1
1
1
1

CELL_DATA 40

VECTORS S float
-7.058320274909e-20 -3.3448643739372896e-18 -4.753370555262e-20
-5.1564033532209995e-20 -2.44060890235996e-18 -4.3961054451259997e-20
-2.1345940545713e-19 -1.272715923778662e-17 -2.8090267738019e-19
7.771210036388399e-19 5.5273142444581576e-17 1.34424681481412e-18
-1.6623314469123199e-18 -1.3588878207961218e-16 -3.4983746537261396e-18
-1.6229268085563198e-18 -1.488647512573959e-16 -3.94408595057668e-18
3.9652236550936e-19 4.0041346998916216e-17 1.08082138214877e-18
-3.1517954220239e-19 -3.511386954413338e-17 -9.507870650003099e-19
-7.930472420417099e-19 -9.802200681065797e-17 -2.64266155564712e-18
4.703603606400999e-19 6.42173198183405e-17 1.710818320861e-18
-3.5724728269964997e-19 -5.3586057752613735e-17 -1.4014050078673498e-18
-7.4423023389816e-19 -1.2263783871822984e-16 -3.13082053077994e-18
2.0505933482819998e-19 3.652575932274048e-17 9.095136554525999e-19
5.095982475729e-20 9.952373255756129e-18 2.3936779817768997e-19
1.3302178623689999e-20 2.8117359728776798e-18 6.510832271908e-20
2.959993572209e-19 6.821367594482992e-17 1.5194741568686998e-18
-1.2020157589357e-19 -2.7573249776940018e-17 -5.895775974902299e-19
-1.2699551093133e-19 -2.8746460714927316e-17 -5.913097655239199e-19
1.227993341563e-19 2.683214321420094e-17 5.324971035827799e-19
1.4109318732993e-19 3.0539642416002136e-17 5.8786891500196e-19
-7.058320274909e-20 -3.3448643739372896e-18 -4.753370555262e-20
-5.1564033532209995e-20 -2.44060890235996e-18 -4.3961054451259997e-20
-2.1345940545713e-19 -1.272715923778662e-17 -2.8090267738019e-19
7.771210036388399e-19 5.5273142444581576e-17 1.34424681481412e-18
-1.6623314469123199e-18 -1.3588878207961218e-16 -3.4983746537261396e-18
-1.6229268085563198e-18 -1.488647512573959e-16 -3.94408595057668e-18
3.9652236550936e-19 4.0041346998916216e-17 1.08082138214877e-18
-3.1517954220239e-19 -3.511386954413338e-17 -9.507870650003099e-19
-7.930472420417099e-19 -9.802200681065797e-17 -2.64266155564712e-18
4.703603606400999e-19 6.42173198183405e-17 1.710818320861e-18
-3.5724728269964997e-19 -5.3586057752613735e-17 -1.4014050078673498e-18
-7.4423023389816e-19 -1.2263783871822984e-16 -3.13082053077994e-18
2.0505933482819998e-19 3.652575932274048e-17 9.095136554525999e-19
5.095982475729e-20 9.952373255756129e-18 2.3936779817768997e-19
1.3302178623689999e-20 2.8117359728776798e-18 6.510832271908e-20
2.959993572209e-19 6.821367594482992e-17 1.5194741568686998e-18
-1.2020157589357e-19 -2.7573249776940018e-17 -5.895775974902299e-19
-1.2699551093133e-19 -2.8746460714927316e-17 -5.913097655239199e-19
1.227993341563e-19 2.683214321420094e-17 5.324971035827799e-19
1.4109318732993e-19 3.0539642416002136e-17 5.8786891500196e-19

SCALARS Gamma float
LOOKUP_TABLE default
0.11434510699905263
0.07996888103454393
0.4874278116236772
0.6463994725133778
0.7672080539419964
0.8124909905045885
0.8316089200049226
0.8353357453311859
0.8235433509857955
0.8004474803603382
0.7617128998777809
0.7191845699655964
0.6794784614771746
0.6249208878860011
0.584054036303871
0.5441170184947662
0.4326128233520746
0.3354965184751495
0.24053853841570402
0.18252023740702283
0.11434510699905263
0.07996888103454393
0.4874278116236772
0.6463994725133778
0.7672080539419964
0.8124909905045885
0.8316089200049226
0.8353357453311859
0.8235433509857955
0.8004474803603382
0.7617128998777809
0.7191845699655964
0.6794784614771746
0.6249208878860011
0.584054036303871
0.5441170184947662
0.4326128233520746
0.3354965184751495
0.24053853841570402
0.18252023740702283

VECTORS Ftot float
-1.8921727248835198 7.798493340747877e-15 2.8097033362754824
-1.9331578459939425 6.293559409860035e-15 2.267493745046385
-17.68717189784462 3.730508655442524e-14 13.440573912442726
-30.421358734427685 4.8813334605471724e-14 17.58685724319315
-43.77245027635167 5.773011190951627e-14 20.799464838700416
-53.94004921812457 6.160474163380605e-14 22.195447317301227
-62.53939418415693 6.368214289572045e-14 22.943910001225767
-69.85589095638706 6.427291990025872e-14 23.156759849025576
-75.48844110057597 6.287647812014404e-14 22.65363867458005
-79.406532718834 6.059451221545469e-14 21.831473810737556
-80.92001660877874 5.72547431547889e-14 20.628195194968114
-81.11716035048907 5.3519508127185806e-14 19.28243494869175
-80.71966559180227 5.0512622052259263e-14 18.19909006816497
-77.73180267586032 4.5931558207794334e-14 16.54858787433355
-75.59808416228117 4.286938921412489e-14 15.445325223226732
-72.93615098637153 3.9435788544886234e-14 14.208240207664945
-59.609123327726095 3.373122873632224e-14 12.152955933412017
-47.315248656774216 2.8204907741712253e-14 10.16188895964759
-34.56619617441528 2.2124863041326084e-14 7.971321995883174
-26.654365039819016 1.775595876074608e-14 6.397258340680172
-1.8921727248835198 7.798493340747877e-15 2.8097033362754824
-1.9331578459939425 6.293559409860035e-15 2.267493745046385
-17.68717189784462 3.730508655442524e-14 13.440573912442726
-30.421358734427685 4.8813334605471724e-14 17.58685724319315
-43.77245027635167 5.773011190951627e-14 20.799464838700416
-53.94004921812457 6.160474163380605e-14 22.195447317301227
-62.53939418415693 6.368214289572045e-14 22.943910001225767
-69.85589095638706 6.427291990025872e-14 23.156759849025576
-75.48844110057597 6.287647812014404e-14 22.65363867458005
-79.406532718834 6.059451221545469e-14 21.831473810737556
-80.92001660877874 5.72547431547889e-14 20.628195194968114
-81.11716035048907 5.3519508127185806e-14 19.28243494869175
-80.71966559180227 5.0512622052259263e-14 18.19909006816497
-77.73180267586032 4.5931558207794334e-14 16.54858787433355
-75.59808416228117 4.286938921412489e-14 15.445325223226732
-72.93615098637153 3.9435788544886234e-14 14.208240207664945
-59.609123327726095 3.373122873632224e-14 12.152955933412017
-47.315248656774216 2.8204907741712253e-14 10.16188895964759
-34.56619617441528 2.2124863041326084e-14 7.971321995883174
-26.654365039819016 1.775595876074608e-14 6.397258340680172

VECTORS D float
-0.021804063541915563 0.0006653174997878053 -0.014440198942711882
0.2526108549016441 -0.010335806193430856 0.27751895782059316
0.7661976662520465 -0.03824477213758647 1.1505593671138201
0.5778953873433091 -0.034529643132941455 1.0857137424119259
0.4514945688639156 -0.03149826069782816 1.0089618789576595
0.42311162592405843 -0.03348887489381468 1.0898935479854963
0.43860346985765175 -0.03875373835789021 1.274804350156042
0.4515576782812258 -0.04368296896259503 1.4635835744503698
0.403275726520021 -0.04216596506173943 1.4430057468433288
0.37714885520454916 -0.04215158055277407 1.4785121405433725
0.3709806166903174 -0.0438886554644347 1.5836165824269526
0.35881102307404866 -0.0445287416108274 1.6589486907040512
0.38781296595969894 -0.050335662066830045 1.9340266071003065
0.3621122091190883 -0.04840069675429713 1.9353005239007068
0.3688400620111623 -0.0503662077994115 2.099733124572147
0.3393989335787542 -0.04702122236020778 2.044805134975863
0.42214558466155994 -0.059012250145071055 2.6738074094523125
0.444497849030768 -0.062442111902711914 2.9401518234397246
0.41853842036585914 -0.05891773482950652 2.872302683284189
0.3642953396236933 -0.05129793389027937 2.577481013921033
-0.021804063541915563 0.0006653174997878053 -0.014440198942711882
0.2526108549016441 -0.010335806193430856 0.27751895782059316
0.7661976662520465 -0.03824477213758647 1.1505593671138201
0.5778953873433091 -0.034529643132941455 1.0857137424119259
0.4514945688639156 -0.03149826069782816 1.0089618789576595
0.42311162592405843 -0.03348887489381468 1.0898935479854963
0.43860346985765175 -0.03875373835789021 1.274804350156042
0.4515576782812258 -0.04368296896259503 1.4635835744503698
0.403275726520021 -0.04216596506173943 1.4430057468433288
0.37714885520454916 -0.04215158055277407 1.4785121405433725
0.3709806166903174 -0.0438886554644347 1.5836165824269526
0.35881102307404866 -0.0445287416108274 1.6589486907040512
0.38781296595969894 -0.050335662066830045 1.9340266071003065
0.3621122091190883 -0.04840069675429713 1.9353005239007068
0.3688400620111623 -0.0503662077994115 2.099733124572147
0.3393989335787542 -0.04702122236020778 2.044805134975863
0.42214558466155994 -0.059012250145071055 2.6738074094523125
0.444497849030768 -0.062442111902711914 2.9401518234397246
0.41853842036585914 -0.05891773482950652 2.872302683284189
0.3642953396236933 -0.05129793389027937 2.577481013921033

VECTORS L float
-1.8703686613416046 -0.0006653174997799989 2.8241435352181954
-2.185768700895587 0.010335806193437151 1.9899747872257922
-18.45336956409667 0.038244772137623846 12.290014545328905
-30.999254121771003 0.03452964313299022 16.50114350078123
-44.22394484521559 0.03149826069788594 19.790502959742767
-54.36316084404863 0.03348887489387638 21.10555376931573
-62.977997654014594 0.03875373835795381 21.669105651069728
-70.30744863466829 0.04368296896265943 21.693176274575208
-75.89171682709599 0.04216596506180235 21.210632927736725
-79.78368157403855 0.04215158055283456 20.352961670194183
-81.29099722546907 0.04388865546449198 19.044578612541162
-81.47597137356313 0.04452874161088114 17.6234862579877
-81.10747855776198 0.0503356620668805 16.265063461064667
-78.09391488497941 0.048400696754343046 14.613287350432843
-75.96692422429234 0.05036620779945437 13.345592098654588
-73.27554991995031 0.04702122236024717 12.163435072689087
-60.03126891238768 0.05901225014510482 9.479148523959704
-47.759746505805 0.06244211190274015 7.221737136207866
-34.984734594781145 0.05891773482952864 5.099019312598985
-27.018660379442704 0.051297933890297104 3.8197773267591395
-1.8703686613416046 -0.0006653174997799989 2.8241435352181954
-2.185768700895587 0.010335806193437151 1.9899747872257922
-18.45336956409667 0.038244772137623846 12.290014545328905
-30.999254121771003 0.03452964313299022 16.50114350078123
-44.22394484521559 0.03149826069788594 19.790502959742767
-54.36316084404863 0.03348887489387638 21.10555376931573
-62.977997654014594 0.03875373835795381 21.669105651069728
-70.30744863466829 0.04368296896265943 21.693176274575208
-75.89171682709599 0.04216596506180235 21.210632927736725
-79.78368157403855 0.04215158055283456 20.352961670194183
-81.29099722546907 0.04388865546449198 19.044578612541162
-81.47597137356313 0.04452874161088114 17.6234862579877
-81.10747855776198 0.0503356620668805 16.265063461064667
-78.09391488497941 0.048400696754343046 14.613287350432843
-75.96692422429234 0.05036620779945437 13.345592098654588
-73.27554991995031 0.04702122236024717 12.163435072689087
-60.03126891238768 0.05901225014510482 9.479148523959704
-47.759746505805 0.06244211190274015 7.221737136207866
-34.984734594781145 0.05891773482952864 5.099019312598985
-27.018660379442704 0.051297933890297104 3.8197773267591395

SCALARS mu float
LOOKUP_TABLE default
-0.04936736778930116
0.5376747497327405
1.2930083015586422
0.8574708284946989
0.6557090233591919
0.631206872316663
0.687564776437102
0.7574552679941509
0.7373632162917897
0.7658413834841666
0.8499274251050479
0.9369644737574634
1.1582258809677897
1.2313034275714636
1.4235706390229121
1.4901042373121376
2.128913702071369
2.6205927873208337
2.9560485378740338
3.1727731851623577
-0.04936736778930116
0.5376747497327405
1.2930083015586422
0.8574708284946989
0.6557090233591919
0.631206872316663
0.687564776437102
0.7574552679941509
0.7373632162917897
0.7658413834841666
0.8499274251050479
0.9369644737574634
1.1582258809677897
1.2313034275714636
1.4235706390229121
1.4901042373121376
2.128913702071369
2.6205927873208337
2.9560485378740338
3.1727731851623577