# vtk DataFile Version 4.0
[MyVLM domain - lattices] 
ASCII
DATASET UNSTRUCTURED_GRID
POINTS 62 float
0.00022673658128986117 0.013460484151610955 0.001149107698475536
-0.003724999406033424 0.02022834340130081 0.0082487770615043
-0.00549739299719125 0.027082072332949007 0.014738347834986058
-0.005451904080891177 0.03399848952457763 0.020637271541552635
-0.004354059046121628 0.040315111226774454 0.0265014380509968
-0.0029556321221654493 0.045666177581450064 0.03263775632534079
-0.0016722727371407085 0.05027152551705975 0.038861761278998666
-0.0006485493516483927 0.0544968336331503 0.044866612133961245
0.0001374053121431227 0.05840291536676406 0.05060128035763574
0.0007511984436382017 0.06196523867927851 0.056086350774582294
0.0012455433643025467 0.06521428408822028 0.06129624719378618
0.0016598526811940704 0.06821224685491996 0.06617878159440402
0.002022453218220871 0.07102931573717954 0.07067505861565129
0.002352563731918074 0.07370770461549919 0.07474965660596974
0.002662053738196183 0.07620620502094819 0.0784371535764406
0.002957000443680671 0.07843472986801506 0.0818131415672903
0.0032390594424296184 0.08030614780469689 0.08495073246384849
0.0035066635059833096 0.08176611982741447 0.08789552210397705
0.0037560624618667195 0.08280538908006853 0.09065527791221469
0.003982215822832984 0.08345922221028365 0.09320040765754684
0.004179548496302947 0.08379816369896655 0.09547171749206296
0.008285994416043337 0.001744273314454565 0.010980175890728739
0.007508437091591354 0.009378751306495089 0.01735266578667974
0.00973309288421085 0.015946805973748604 0.024081945730051915
0.010440442308044806 0.018803561360817414 0.03338733015952913
0.01004693542569484 0.023008630597234188 0.04102329956422081
0.0094954698488839 0.027874876706906526 0.04756643032733433
0.009038213335578684 0.03280895737723858 0.05351459576453075
0.008539133039147835 0.037717705137982935 0.05894597266573242
0.008012046218423283 0.04256456914691262 0.06389123082917118
0.007469873605570215 0.04727830427511831 0.06841015201623805
0.0069256484677951155 0.051800630268713246 0.07255163916647428
0.0064559301991455546 0.056101819036372715 0.07634063711034611
0.006108090109537901 0.060153964836943984 0.07980056154496247
0.005835591307912621 0.06391522037905006 0.08296652651708356
0.005646315885461864 0.06735461560803513 0.08586451898814867
0.005556570152728891 0.07044445950519744 0.08851777448173734
0.005484703593381549 0.07314823737903714 0.09095693246201962
0.005393245002100456 0.07545284075636131 0.093192992244017
0.005297730961761147 0.0773689937588229 0.09521695522120578
0.00521698140800628 0.07891943216850573 0.09700974380722498
0.005155604557614359 0.08013291265484658 0.09854722829135618
0.005485628962270063 0.008382237676970092 0.011799551224025658
0.005312774690522743 0.015410885946872614 0.018411369930835666
0.006196413562335568 0.020666457982653087 0.025972930880660227
0.006457021259275767 0.024968772078188366 0.03379632484547491
0.006414690581931144 0.02982897634008083 0.04061354800637538
0.006371643086760199 0.03474865066886814 0.046842824484991843
0.006301402129423808 0.03954354333698434 0.05263875983796869
0.00614279921665101 0.04421832148182513 0.05799743787203846
0.005916795403470228 0.04873709678901692 0.06294897245855571
0.005647913503504593 0.05305204079987418 0.06753349643956319
0.005381266505789829 0.05714173485729978 0.07176898220233144
0.005171795853183163 0.06100111427650619 0.07565967952199763
0.005025757650311314 0.06461807200008263 0.0792157474259699
0.004932542381279714 0.06796542719971288 0.08245999333726338
0.00490346403705614 0.07100477002858263 0.08542464694417362
0.004914985140555201 0.07368987104067695 0.08814849935780121
0.0049224460918573685 0.07598443775478834 0.09066200358574192
0.004916956732429355 0.07787962655662946 0.0929725803014825
0.004910301924250248 0.07939123613404227 0.09506697283188173
0.004909940276999731 0.0805518025474134 0.09691788018066914

CELLS 40 140
4 0 21 22 1
4 1 22 23 2
4 2 23 24 3
4 3 24 25 4
4 4 25 26 5
4 5 26 27 6
4 6 27 28 7
4 7 28 29 8
4 8 29 30 9
4 9 30 31 10
4 10 31 32 11
4 11 32 33 12
4 12 33 34 13
4 13 34 35 14
4 14 35 36 15
4 15 36 37 16
4 16 37 38 17
4 17 38 39 18
4 18 39 40 19
4 19 40 41 20
1 42
1 43
1 44
1 45
1 46
1 47
1 48
1 49
1 50
1 51
1 52
1 53
1 54
1 55
1 56
1 57
1 58
1 59
1 60
1 61

CELL_TYPES 40
9
9
9
9
9
9
9
9
9
9
9
9
9
9
9
9
9
9
9
9
1
1
1
1
1
1
1
1
1
1
1
1
1
1
1
1
1
1
1
1

CELL_DATA 40

VECTORS S float
0.0 0.0 0.0
0.0 0.0 0.0
-6.5919394535399996e-18 -4.363543462467274e-16 -7.735711577268402e-16
0.0 0.0 0.0
0.0 0.0 0.0
-8.591546745380539e-18 -8.693538796664499e-16 -1.549062180197251e-15
-7.9631296949867e-18 -8.686139032866786e-16 -1.5494805892513102e-15
0.0 0.0 0.0
7.18357831295401e-18 8.667913667914948e-16 1.5505046738215272e-15
-6.7742761048428094e-18 -8.662047269923057e-16 -1.5508343241634444e-15
0.0 0.0 0.0
-6.00241508985095e-18 -8.65753885924814e-16 -1.5510892304774798e-15
-2.8387936865902097e-18 -4.329442361997546e-16 -7.755076626396595e-16
0.0 0.0 0.0
2.47947433493574e-18 4.333572829117519e-16 7.752781583247256e-16
-2.24794505196871e-18 -4.3387517750802744e-16 -7.749891497991652e-16
2.28250767662515e-18 4.3420472581389863e-16 7.748044601450065e-16
0.0 0.0 0.0
0.0 0.0 0.0
-1.21803618106987e-18 -2.1757307618052538e-16 -3.871378297382702e-16
0.0 0.0 0.0
0.0 0.0 0.0
-6.5919394535399996e-18 -4.363543462467274e-16 -7.735711577268402e-16
0.0 0.0 0.0
0.0 0.0 0.0
-8.591546745380539e-18 -8.693538796664499e-16 -1.549062180197251e-15
-7.9631296949867e-18 -8.686139032866786e-16 -1.5494805892513102e-15
0.0 0.0 0.0
7.18357831295401e-18 8.667913667914948e-16 1.5505046738215272e-15
-6.7742761048428094e-18 -8.662047269923057e-16 -1.5508343241634444e-15
0.0 0.0 0.0
-6.00241508985095e-18 -8.65753885924814e-16 -1.5510892304774798e-15
-2.8387936865902097e-18 -4.329442361997546e-16 -7.755076626396595e-16
0.0 0.0 0.0
2.47947433493574e-18 4.333572829117519e-16 7.752781583247256e-16
-2.24794505196871e-18 -4.3387517750802744e-16 -7.749891497991652e-16
2.28250767662515e-18 4.3420472581389863e-16 7.748044601450065e-16
0.0 0.0 0.0
0.0 0.0 0.0
-1.21803618106987e-18 -2.1757307618052538e-16 -3.871378297382702e-16

SCALARS Gamma float
LOOKUP_TABLE default
0.17522897347765976
0.12060022162012432
0.512766134005136
0.6781542061690485
0.7956251703733375
0.8396907057317522
0.8491050458570086
0.8561439115316966
0.8446277740247766
0.8174923065143374
0.7763447443775905
0.7302883778122075
0.6875974901942091
0.6322398336567534
0.5906149987852867
0.55090890006797
0.4370846235002497
0.33859041607924917
0.24436057692555985
0.18531711496874245
0.17522897347765976
0.12060022162012432
0.512766134005136
0.6781542061690485
0.7956251703733375
0.8396907057317522
0.8491050458570086
0.8561439115316966
0.8446277740247766
0.8174923065143374
0.7763447443775905
0.7302883778122075
0.6875974901942091
0.6322398336567534
0.5906149987852867
0.55090890006797
0.4370846235002497
0.33859041607924917
0.24436057692555985
0.18531711496874245

VECTORS Ftot float
-2.7215162110990865 -3.3297226102342425 1.9224162453455287
-2.9088895195763977 -2.591923492331116 1.496447726016289
-17.803016603751857 -11.430258643557037 6.599262904764722
-30.84185029170588 -14.852470172600205 8.57507765228164
-44.094136679171314 -17.447257903370037 10.073179047131546
-54.4000361773481 -18.697022741061 10.794731112596155
-62.56473212027327 -19.177356494832228 11.072051934636836
-70.31856152662603 -19.568400252848484 11.297821153592444
-76.21264870586201 -19.28225250936356 11.13261367686342
-79.9755547598907 -18.573142902509968 10.723209054461547
-81.45476790143512 -17.591488114432558 10.156450398313769
-81.46236064331755 -16.426114103570168 9.483621399435773
-80.88143755357557 -15.518805251230516 8.959786389299342
-77.94727750882997 -14.13447306510165 8.160541828989976
-75.84014861140895 -13.19626180089242 7.618865303042036
-73.30368888074477 -12.147619702729116 7.0134315053838785
-59.82011472776284 -10.399996782137931 6.0044409417385936
-47.454815485466334 -8.714984857226078 5.031598853303003
-34.92158597029093 -6.888212765178702 3.9769114942113513
-26.92445983572896 -5.520058571608583 3.1870073022607257
-2.7215162110990865 -3.3297226102342425 1.9224162453455287
-2.9088895195763977 -2.591923492331116 1.496447726016289
-17.803016603751857 -11.430258643557037 6.599262904764722
-30.84185029170588 -14.852470172600205 8.57507765228164
-44.094136679171314 -17.447257903370037 10.073179047131546
-54.4000361773481 -18.697022741061 10.794731112596155
-62.56473212027327 -19.177356494832228 11.072051934636836
-70.31856152662603 -19.568400252848484 11.297821153592444
-76.21264870586201 -19.28225250936356 11.13261367686342
-79.9755547598907 -18.573142902509968 10.723209054461547
-81.45476790143512 -17.591488114432558 10.156450398313769
-81.46236064331755 -16.426114103570168 9.483621399435773
-80.88143755357557 -15.518805251230516 8.959786389299342
-77.94727750882997 -14.13447306510165 8.160541828989976
-75.84014861140895 -13.19626180089242 7.618865303042036
-73.30368888074477 -12.147619702729116 7.0134315053838785
-59.82011472776284 -10.399996782137931 6.0044409417385936
-47.454815485466334 -8.714984857226078 5.031598853303003
-34.92158597029093 -6.888212765178702 3.9769114942113513
-26.92445983572896 -5.520058571608583 3.1870073022607257

VECTORS D float
-0.008033615099072317 0.004985168863680648 -0.002688162441232264
0.2454975123548863 -0.25042763923268335 0.13845336634915914
0.894135827146086 -1.2395708589597243 0.6915951263283693
0.6162422422260777 -1.0615403101071272 0.5947334333133187
0.4254529592871392 -0.8631215160033724 0.482430126791007
0.3999592464650577 -0.9324387062520525 0.5210784619158102
0.39483518651712585 -1.0356183130200705 0.5785218269964143
0.41193858752579743 -1.1988849023484471 0.6693018562443944
0.37794155501175525 -1.2110538039155583 0.6752743328501424
0.35279429311872545 -1.2359449509326745 0.6887850083061346
0.3533075792935149 -1.345118550443943 0.7494550347240859
0.34069977229884013 -1.4024426180280236 0.7814670497820688
0.3733216227685172 -1.6534329151683782 0.921698781242668
0.349403504432677 -1.6565377973378916 0.9240631570781029
0.35531354473004556 -1.7931728290960396 1.0011935791800193
0.32819696621683353 -1.7555210618002335 0.9818708349124277
0.41275171988753695 -2.3204583075078795 1.2991818013237415
0.4377476392996795 -2.569906451452409 1.4403149093564132
0.4141240381184627 -2.5207786163957326 1.4140656788587365
0.35890872641425303 -2.2531253632919785 1.2651366383606821
-0.008033615099072317 0.004985168863680648 -0.002688162441232264
0.2454975123548863 -0.25042763923268335 0.13845336634915914
0.894135827146086 -1.2395708589597243 0.6915951263283693
0.6162422422260777 -1.0615403101071272 0.5947334333133187
0.4254529592871392 -0.8631215160033724 0.482430126791007
0.3999592464650577 -0.9324387062520525 0.5210784619158102
0.39483518651712585 -1.0356183130200705 0.5785218269964143
0.41193858752579743 -1.1988849023484471 0.6693018562443944
0.37794155501175525 -1.2110538039155583 0.6752743328501424
0.35279429311872545 -1.2359449509326745 0.6887850083061346
0.3533075792935149 -1.345118550443943 0.7494550347240859
0.34069977229884013 -1.4024426180280236 0.7814670497820688
0.3733216227685172 -1.6534329151683782 0.921698781242668
0.349403504432677 -1.6565377973378916 0.9240631570781029
0.35531354473004556 -1.7931728290960396 1.0011935791800193
0.32819696621683353 -1.7555210618002335 0.9818708349124277
0.41275171988753695 -2.3204583075078795 1.2991818013237415
0.4377476392996795 -2.569906451452409 1.4403149093564132
0.4141240381184627 -2.5207786163957326 1.4140656788587365
0.35890872641425303 -2.2531253632919785 1.2651366383606821

VECTORS L float
-2.7134825960000137 -3.334707779097923 1.9251044077867603
-3.154387031931284 -2.341495853098433 1.35799435966713
-18.697152430897944 -10.190687784597312 5.907667778436351
-31.45809253393196 -13.790929862493078 7.980344218968323
-44.51958963845846 -16.58413638736667 9.590748920340541
-54.79999542381318 -17.764584034808948 10.273652650680347
-62.95956730679038 -18.141738181812155 10.493530107640423
-70.73050011415185 -18.36951535050004 10.628519297348053
-76.59059026087377 -18.07119870544801 10.457339344013278
-80.32834905300943 -17.3371979515773 10.034424046155415
-81.80807548072863 -16.24636956398862 9.406995363589683
-81.80306041561639 -15.02367148554214 8.702154349653703
-81.2547591763441 -13.865372336062144 8.038087608056676
-78.29668101326264 -12.477935267763756 7.236478671911873
-76.19546215613903 -11.403088971796386 6.61767172386202
-73.63188584696162 -10.392098640928888 6.031560670471452
-60.23286644765039 -8.079538474630054 4.705259140414853
-47.892563124766006 -6.145078405773669 3.5912839439465905
-35.3357100084094 -4.36743414878297 2.5628458153526155
-27.28336856214322 -3.266933208316605 1.9218706639000438
-2.7134825960000137 -3.334707779097923 1.9251044077867603
-3.154387031931284 -2.341495853098433 1.35799435966713
-18.697152430897944 -10.190687784597312 5.907667778436351
-31.45809253393196 -13.790929862493078 7.980344218968323
-44.51958963845846 -16.58413638736667 9.590748920340541
-54.79999542381318 -17.764584034808948 10.273652650680347
-62.95956730679038 -18.141738181812155 10.493530107640423
-70.73050011415185 -18.36951535050004 10.628519297348053
-76.59059026087377 -18.07119870544801 10.457339344013278
-80.32834905300943 -17.3371979515773 10.034424046155415
-81.80807548072863 -16.24636956398862 9.406995363589683
-81.80306041561639 -15.02367148554214 8.702154349653703
-81.2547591763441 -13.865372336062144 8.038087608056676
-78.29668101326264 -12.477935267763756 7.236478671911873
-76.19546215613903 -11.403088971796386 6.61767172386202
-73.63188584696162 -10.392098640928888 6.031560670471452
-60.23286644765039 -8.079538474630054 4.705259140414853
-47.892563124766006 -6.145078405773669 3.5912839439465905
-35.3357100084094 -4.36743414878297 2.5628458153526155
-27.28336856214322 -3.266933208316605 1.9218706639000438

SCALARS mu float
LOOKUP_TABLE default
-0.02043686329555878
0.5789678875425006
1.6550849510082561
0.9927734972817346
0.6614913237166924
0.633762947281284
0.6529717799788869
0.7234279374357634
0.7195489763579077
0.7429410768705421
0.8364502342549541
0.9165469220045115
1.1444874080956695
1.217197910855759
1.40316409254492
1.4762836416553937
2.1313370226093067
2.641720682387164
2.9908305413165808
3.197216453314376
-0.02043686329555878
0.5789678875425006
1.6550849510082561
0.9927734972817346
0.6614913237166924
0.633762947281284
0.6529717799788869
0.7234279374357634
0.7195489763579077
0.7429410768705421
0.8364502342549541
0.9165469220045115
1.1444874080956695
1.217197910855759
1.40316409254492
1.4762836416553937
2.1313370226093067
2.641720682387164
2.9908305413165808
3.197216453314376