# vtk DataFile Version 4.0
[MyVLM domain - lattices] 
ASCII
DATASET UNSTRUCTURED_GRID
POINTS 62 float
0.00022673658128986117 -0.0012057383729371096 -0.013455529609587534
-0.003724999406033424 0.004610844634181831 -0.021353414516905075
-0.00549739299719125 0.009811686706424173 -0.029229922044491877
-0.005451904080891177 0.014419969265767826 -0.037065600669716106
-0.004354059046121628 0.019098176061625022 -0.04430456052278504
-0.0029556321221654493 0.024212066952085137 -0.0506398926416764
-0.0016722727371407085 0.029541805008692926 -0.05625606211197615
-0.0006485493516483927 0.034721711631901554 -0.06145990971169344
0.0001374053121431227 0.039690973384668725 -0.06630246397342111
0.0007511984436382017 0.04447412230561697 -0.07076314007259896
0.0012455433643025467 0.04904067787721958 -0.07486751420024174
0.0016598526811940704 0.053328444838146034 -0.07866777437719284
0.002022453218220871 0.05726723443059431 -0.08222281596423675
0.002352563731918074 0.060814832774064256 -0.08556806061293173
0.002662053738196183 0.06401244833748661 -0.0886689303121966
0.002957000443680671 0.06695016820637283 -0.09144983302180486
0.0032390594424296184 0.0697151237327258 -0.0938376568564269
0.0035066635059833096 0.07236165392012477 -0.09578680597820083
0.0037560624618667195 0.07489901562466897 -0.09728951296258793
0.003982215822832984 0.07729194219873389 -0.09837537004060283
0.004179548496302947 0.07946988916141272 -0.09910357106015596
0.008285994416043337 0.010510472464219111 -0.0036244614173345487
0.007508437091591354 0.015460436728987396 -0.012249525791729837
0.00973309288421085 0.02094695306562442 -0.019886324149426225
0.010440442308044806 0.029614897429527824 -0.024315542051739893
0.01004693542569484 0.03640465669116504 -0.029782699009561344
0.0094954698488839 0.042003367826628425 -0.035711218639683184
0.009038213335578684 0.04700437314851384 -0.041603227626444375
0.008539133039147835 0.05150084012706868 -0.047380549179922585
0.008012046218423283 0.05552931960451994 -0.053012513501885954
0.007469873605570215 0.05916105670977694 -0.05843933883094348
0.0069256484677951155 0.0624543316967264 -0.06361212222755389
0.0064559301991455546 0.06543887265669313 -0.06850591886125097
0.006108090109537901 0.06814258533082972 -0.07309731303492578
0.005835591307912621 0.07060731701051325 -0.0773511907018181
0.005646315885461864 0.07286403775039954 -0.08124156490048867
0.005556570152728891 0.07494043856919033 -0.08474520010735798
0.005484703593381549 0.07687303415838545 -0.0878314568582559
0.005393245002100456 0.07867493299117782 -0.090489335838161
0.005297730961761147 0.08033541094591452 -0.09272783565359694
0.00521698140800628 0.08183173224051174 -0.09456603389092477
0.005155604557614359 0.08313514020553263 -0.09602806026086282
0.005485628962270063 0.01016472923010803 -0.010303863219210722
0.005312774690522743 0.015455587590555181 -0.01837386079810814
0.006196413562335568 0.02198965093220609 -0.02486264016471329
0.006457021259275767 0.02894710096118393 -0.03045811054705061
0.006414690581931144 0.034816789570886325 -0.036428275764024375
0.006371643086760199 0.04009713686077561 -0.042354911694004405
0.006301402129423808 0.04497239455841776 -0.048083412780346314
0.00614279921665101 0.049437895526417024 -0.05361769521631752
0.005916795403470228 0.05352952807914705 -0.058927645130563554
0.005647913503504593 0.057295120675293326 -0.06397312968104159
0.005381266505789829 0.060756091971953044 -0.06873617648048115
0.005171795853183163 0.06391750665391362 -0.07321253575374498
0.005025757650311314 0.06679147177858594 -0.07739204847342501
0.004932542381279714 0.06940516817428614 -0.08125190721650609
0.00490346403705614 0.07179700568782864 -0.08475988229469268
0.004914985140555201 0.07401321376522824 -0.08787718259688415
0.0049224460918573685 0.07609008488769256 -0.09057335511548481
0.004916956732429355 0.07803646266950885 -0.09284097917700782
0.004910301924250248 0.0798365484228352 -0.09469331145459449
0.004909940276999731 0.08145780608728496 -0.0961576529445152

CELLS 40 140
4 0 21 22 1
4 1 22 23 2
4 2 23 24 3
4 3 24 25 4
4 4 25 26 5
4 5 26 27 6
4 6 27 28 7
4 7 28 29 8
4 8 29 30 9
4 9 30 31 10
4 10 31 32 11
4 11 32 33 12
4 12 33 34 13
4 13 34 35 14
4 14 35 36 15
4 15 36 37 16
4 16 37 38 17
4 17 38 39 18
4 18 39 40 19
4 19 40 41 20
1 42
1 43
1 44
1 45
1 46
1 47
1 48
1 49
1 50
1 51
1 52
1 53
1 54
1 55
1 56
1 57
1 58
1 59
1 60
1 61

CELL_TYPES 40
9
9
9
9
9
9
9
9
9
9
9
9
9
9
9
9
9
9
9
9
1
1
1
1
1
1
1
1
1
1
1
1
1
1
1
1
1
1
1
1

CELL_DATA 40

VECTORS S float
-4.48469857140202e-18 -1.719858026367726e-16 1.4037299507534206e-16
-4.44426047798426e-18 -1.7246213836315876e-16 1.397886474515143e-16
1.445098955772713e-17 6.923682090816857e-16 -5.561279863258398e-16
2.4456113053204938e-17 1.3874862158018366e-15 -1.1089308005363883e-15
2.1486680107004198e-17 1.3893608335898364e-15 -1.1066428590781137e-15
-1.928685518137694e-17 -1.3903330086333096e-15 1.1054617873114882e-15
1.728650511430046e-17 1.3905050845810964e-15 -1.10527842979907e-15
0.0 0.0 -0.0
0.0 0.0 -0.0
1.2921349616725499e-17 1.39046915197633e-15 -1.105383280591106e-15
0.0 0.0 -0.0
0.0 0.0 -0.0
9.88148467183216e-18 1.388489389718612e-15 -1.107900352822204e-15
0.0 0.0 -0.0
-4.16435711162388e-18 -6.933012162939782e-16 5.551369081912578e-16
3.8599456706429096e-18 6.929007939178052e-16 -5.5563881778409505e-16
-3.87937431865369e-18 -6.92417236474601e-16 5.562411584095374e-16
0.0 0.0 -0.0
4.07257057663308e-18 6.915681788869713e-16 -5.572950505260818e-16
-2.05945602095225e-18 -3.4562053493825397e-16 2.7885019414579203e-16
-4.48469857140202e-18 -1.719858026367726e-16 1.4037299507534206e-16
-4.44426047798426e-18 -1.7246213836315876e-16 1.397886474515143e-16
1.445098955772713e-17 6.923682090816857e-16 -5.561279863258398e-16
2.4456113053204938e-17 1.3874862158018366e-15 -1.1089308005363883e-15
2.1486680107004198e-17 1.3893608335898364e-15 -1.1066428590781137e-15
-1.928685518137694e-17 -1.3903330086333096e-15 1.1054617873114882e-15
1.728650511430046e-17 1.3905050845810964e-15 -1.10527842979907e-15
0.0 0.0 -0.0
0.0 0.0 -0.0
1.2921349616725499e-17 1.39046915197633e-15 -1.105383280591106e-15
0.0 0.0 -0.0
0.0 0.0 -0.0
9.88148467183216e-18 1.388489389718612e-15 -1.107900352822204e-15
0.0 0.0 -0.0
-4.16435711162388e-18 -6.933012162939782e-16 5.551369081912578e-16
3.8599456706429096e-18 6.929007939178052e-16 -5.5563881778409505e-16
-3.87937431865369e-18 -6.92417236474601e-16 5.562411584095374e-16
0.0 0.0 -0.0
4.07257057663308e-18 6.915681788869713e-16 -5.572950505260818e-16
-2.05945602095225e-18 -3.4562053493825397e-16 2.7885019414579203e-16

SCALARS Gamma float
LOOKUP_TABLE default
0.11371559293539107
0.07888213147896622
0.48820450247381625
0.648400462013631
0.7704978265565654
0.8119011730648661
0.8226821954459687
0.8356554215304336
0.8236346393066123
0.8004805123262324
0.7618018855097519
0.7193475536040936
0.678796605484651
0.6244542558643047
0.5839518822798881
0.5416995324820253
0.431017153688265
0.33433512975539414
0.23949390387936736
0.1813766106018213
0.11371559293539107
0.07888213147896622
0.48820450247381625
0.648400462013631
0.7704978265565654
0.8119011730648661
0.8226821954459687
0.8356554215304336
0.8236346393066123
0.8004805123262324
0.7618018855097519
0.7193475536040936
0.678796605484651
0.6244542558643047
0.5839518822798881
0.5416995324820253
0.431017153688265
0.33433512975539414
0.23949390387936736
0.1813766106018213

VECTORS Ftot float
-1.8835890006336224 1.7989186646894444 2.1438677814284133
-1.9033808733564381 1.4414412478014522 1.717842785580853
-17.712886013525452 8.647392597364108 10.3055611944812
-30.51391104438444 11.321604220747014 13.492562504004956
-43.960492875256165 13.39519193501351 15.963768112041256
-53.892483832348034 14.259101634313897 16.99333559985947
-61.875435520975834 14.595102374363583 17.393765688927996
-69.88727759892127 14.88842516548538 17.74333417903716
-75.49370308237941 14.561081990527482 17.353221774269887
-79.4000317317875 14.0302276108481 16.720574160142615
-80.9144416169009 13.255877670945601 15.797739837338709
-81.11673294497693 12.390063925842712 14.765903196094898
-80.62033924773633 11.690464879356897 13.932153519069947
-77.65132928009434 10.629732060031701 12.668021370856568
-75.55957816080867 9.92145470948508 11.823929293789528
-72.5943272689769 9.122542014181613 10.871822218992502
-59.37695511186004 7.804394453077011 9.300915127476804
-47.14291701750307 6.523892867323166 7.774872762332087
-34.40985265642171 5.112644090971413 6.093011963070709
-26.476669882320017 4.099872080868309 4.886037281551482
-1.8835890006336224 1.7989186646894444 2.1438677814284133
-1.9033808733564381 1.4414412478014522 1.717842785580853
-17.712886013525452 8.647392597364108 10.3055611944812
-30.51391104438444 11.321604220747014 13.492562504004956
-43.960492875256165 13.39519193501351 15.963768112041256
-53.892483832348034 14.259101634313897 16.99333559985947
-61.875435520975834 14.595102374363583 17.393765688927996
-69.88727759892127 14.88842516548538 17.74333417903716
-75.49370308237941 14.561081990527482 17.353221774269887
-79.4000317317875 14.0302276108481 16.720574160142615
-80.9144416169009 13.255877670945601 15.797739837338709
-81.11673294497693 12.390063925842712 14.765903196094898
-80.62033924773633 11.690464879356897 13.932153519069947
-77.65132928009434 10.629732060031701 12.668021370856568
-75.55957816080867 9.92145470948508 11.823929293789528
-72.5943272689769 9.122542014181613 10.871822218992502
-59.37695511186004 7.804394453077011 9.300915127476804
-47.14291701750307 6.523892867323166 7.774872762332087
-34.40985265642171 5.112644090971413 6.093011963070709
-26.476669882320017 4.099872080868309 4.886037281551482

VECTORS D float
-0.02202168375264291 -0.008874224247744141 -0.011576309195512627
0.2525400964241981 0.1706146629255764 0.21852220570696956
0.7689363542027026 0.7143546105333418 0.9093380049265429
0.5795892480449079 0.6750951601715146 0.8574563253245272
0.45156259676318417 0.6262165161608702 0.7949658507703167
0.42298681063336296 0.6745940366824598 0.855812885480189
0.4384439118697359 0.790315222503124 1.0011201416809152
0.4514746777398407 0.9077264936849193 1.1489109743005257
0.4031974980159265 0.8954343302499437 1.1321542383309997
0.3769891012308512 0.9179933341226132 1.1591568673907462
0.3707591024531059 0.9840818294621272 1.2406892938211411
0.3584599800223046 1.0317156328113875 1.2984661006746683
0.387877027164993 1.204524144581161 1.5130438320009532
0.3620375223842589 1.2066184389711025 1.5125972017300227
0.36852059991830627 1.3104817852684065 1.6394032780201877
0.340521641793665 1.2783578304190464 1.5965219172107927
0.42269491032281886 1.6703566760831168 2.0822327291849767
0.4445588940418684 1.8366604302012781 2.2856934865195457
0.41834548411775196 1.794901599886165 2.2304173903046323
0.3644234529862298 1.6111870829700399 1.9996753356556827
-0.02202168375264291 -0.008874224247744141 -0.011576309195512627
0.2525400964241981 0.1706146629255764 0.21852220570696956
0.7689363542027026 0.7143546105333418 0.9093380049265429
0.5795892480449079 0.6750951601715146 0.8574563253245272
0.45156259676318417 0.6262165161608702 0.7949658507703167
0.42298681063336296 0.6745940366824598 0.855812885480189
0.4384439118697359 0.790315222503124 1.0011201416809152
0.4514746777398407 0.9077264936849193 1.1489109743005257
0.4031974980159265 0.8954343302499437 1.1321542383309997
0.3769891012308512 0.9179933341226132 1.1591568673907462
0.3707591024531059 0.9840818294621272 1.2406892938211411
0.3584599800223046 1.0317156328113875 1.2984661006746683
0.387877027164993 1.204524144581161 1.5130438320009532
0.3620375223842589 1.2066184389711025 1.5125972017300227
0.36852059991830627 1.3104817852684065 1.6394032780201877
0.340521641793665 1.2783578304190464 1.5965219172107927
0.42269491032281886 1.6703566760831168 2.0822327291849767
0.4445588940418684 1.8366604302012781 2.2856934865195457
0.41834548411775196 1.794901599886165 2.2304173903046323
0.3644234529862298 1.6111870829700399 1.9996753356556827

VECTORS L float
-1.8615673168809803 1.8077928889371893 2.1554440906239263
-2.1559209697806363 1.2708265848758757 1.4993205798738833
-18.481822367728157 7.933037986830765 9.396223189554659
-31.093500292429347 10.6465090605755 12.635106178680429
-44.412055472019354 12.768975418852639 15.168802261270939
-54.3154706429814 13.584507597631442 16.137522714379283
-62.31387943284558 13.80478715186046 16.39264554724709
-70.33875227666113 13.980698671800466 16.59442320473664
-75.89690058039535 13.665647660277543 16.221067535938893
-79.77702083301837 13.112234276725486 15.56141729275187
-81.28520071935402 12.271795841483478 14.55705054351757
-81.47519292499925 11.35834829303133 13.467437095420232
-81.00821627490134 10.485940734775737 12.419109687069
-78.01336680247863 9.4231136210606 11.15542416912655
-75.92809876072697 8.610972924216673 10.18452601576934
-72.93484891077057 7.844184183762567 9.275300301781712
-59.79965002218287 6.134037776993896 7.218682398291828
-47.58747591154494 4.687232437121888 5.48917927581254
-34.82819814053946 3.317742491085247 3.8625945727660773
-26.84109333530625 2.4886849978982695 2.886361945895799
-1.8615673168809803 1.8077928889371893 2.1554440906239263
-2.1559209697806363 1.2708265848758757 1.4993205798738833
-18.481822367728157 7.933037986830765 9.396223189554659
-31.093500292429347 10.6465090605755 12.635106178680429
-44.412055472019354 12.768975418852639 15.168802261270939
-54.3154706429814 13.584507597631442 16.137522714379283
-62.31387943284558 13.80478715186046 16.39264554724709
-70.33875227666113 13.980698671800466 16.59442320473664
-75.89690058039535 13.665647660277543 16.221067535938893
-79.77702083301837 13.112234276725486 15.56141729275187
-81.28520071935402 12.271795841483478 14.55705054351757
-81.47519292499925 11.35834829303133 13.467437095420232
-81.00821627490134 10.485940734775737 12.419109687069
-78.01336680247863 9.4231136210606 11.15542416912655
-75.92809876072697 8.610972924216673 10.18452601576934
-72.93484891077057 7.844184183762567 9.275300301781712
-59.79965002218287 6.134037776993896 7.218682398291828
-47.58747591154494 4.687232437121888 5.48917927581254
-34.82819814053946 3.317742491085247 3.8625945727660773
-26.84109333530625 2.4886849978982695 2.886361945895799

SCALARS mu float
LOOKUP_TABLE default
-0.04977592534551855
0.53679581173861
1.2988778058018768
0.861503968962867
0.6573738981941083
0.6309032844364597
0.6874697695344019
0.7573974773935971
0.7373072082153888
0.7656851386336433
0.849738750483386
0.936563132314697
1.1580393647348104
1.2310150082770621
1.4230079654196772
1.4903484775452063
2.125261723453591
2.6132845562204365
2.946183562041691
3.161451499319138
-0.04977592534551855
0.53679581173861
1.2988778058018768
0.861503968962867
0.6573738981941083
0.6309032844364597
0.6874697695344019
0.7573974773935971
0.7373072082153888
0.7656851386336433
0.849738750483386
0.936563132314697
1.1580393647348104
1.2310150082770621
1.4230079654196772
1.4903484775452063
2.125261723453591
2.6132845562204365
2.946183562041691
3.161451499319138