# vtk DataFile Version 4.0
[MyVLM domain - lattices] 
ASCII
DATASET UNSTRUCTURED_GRID
POINTS 62 float
0.00022673658128986117 -0.007771964866075055 -0.011049961276807983
-0.003724999406033424 -0.006683598672347911 -0.020798021746270153
-0.00549739299719125 -0.006117791080508518 -0.03021969839438086
-0.005451904080891177 -0.006044740628912245 -0.0393097364193876
-0.004354059046121628 -0.005612774626077352 -0.04791796294704956
-0.0029556321221654493 -0.004351681262202723 -0.055961466948651034
-0.0016722727371407085 -0.0025440774448135216 -0.0634900814101931
-0.0006485493516483927 -0.0006600705197421994 -0.07058669894057527
0.0001374053121431227 0.00122215926534475 -0.07726510482681963
0.0007511984436382017 0.0031341496913811513 -0.08351973810723583
0.0012455433643025467 0.005036715760361028 -0.08935750815421137
0.0016598526811940704 0.006849900785555408 -0.0947925134889046
0.002022453218220871 0.008483471839255437 -0.09984066461101893
0.002352563731918074 0.009883159802776533 -0.1045115306303977
0.002662053738196183 0.011101941262604362 -0.10879577034549766
0.002957000443680671 0.012255629943458003 -0.11267296267191447
0.0032390594424296184 0.013456239752302855 -0.11612335653563562
0.0035066635059833096 0.014773627565585791 -0.11913463428455547
0.0037560624618667195 0.016219693768117327 -0.12170469755975112
0.003982215822832984 0.017749100431640973 -0.12384154066122359
0.004179548496302947 0.01927115731963944 -0.12556115472455776
0.008285994416043337 0.0072901054511233755 -0.008394111894557812
0.007508437091591354 0.00726436806504025 -0.018338618884444418
0.00973309288421085 0.008197431411998074 -0.027695538434107284
0.010440442308044806 0.013489482478571794 -0.035865325838359434
0.01004693542569484 0.01663600800581961 -0.04399490228112826
0.0094954698488839 0.01852037426252083 -0.0519285064553802
0.009038213335578684 0.0199053674223542 -0.059531638578184304
0.008539133039147835 0.020910761276321473 -0.06678317929860524
0.008012046218423283 0.02158354468143687 -0.07367484321335876
0.007469873605570215 0.022015308609927238 -0.08019048036285192
0.0069256484677951155 0.022280976711968152 -0.08631687968606562
0.0064559301991455546 0.022418766685085988 -0.09204730237178542
0.006108090109537901 0.022464553458584842 -0.09737542270204397
0.005835591307912621 0.022472134873256916 -0.10229175466600576
0.005646315885461864 0.02248132526391039 -0.10678927792222516
0.005556570152728891 0.022527723517987378 -0.1108617154263629
0.005484703593381549 0.02265827201802316 -0.1145007899698393
0.005393245002100456 0.022889822692318332 -0.11770353010301797
0.005297730961761147 0.023208588875826386 -0.1204723667869206
0.00521698140800628 0.023585342010507278 -0.12281245380493691
0.005155604557614359 0.023983113234741334 -0.12473030976481644
0.005485628962270063 0.0036509821262584886 -0.014005771920010606
0.005312774690522743 0.004198001084782317 -0.023640024012038265
0.006196413562335568 0.006612276245286104 -0.03252650345389608
0.006457021259275767 0.009839869524773075 -0.040851047965612536
0.006414690581931144 0.011938086364592653 -0.04895620701315326
0.006371643086760199 0.013547683293451103 -0.0567289979324422
0.006301402129423808 0.01490552976643391 -0.06412765424764214
0.00614279921665101 0.016005625827359694 -0.07115323391291085
0.005916795403470228 0.016894108603852275 -0.07779760170783592
0.005647913503504593 0.017632465177178543 -0.08404991580102497
0.005381266505789829 0.018248230842134856 -0.08990532097708365
0.005171795853183163 0.018747916631977918 -0.09536266916517645
0.005025757650311314 0.01914708707969466 -0.10041921591819572
0.004932542381279714 0.019480685184610352 -0.1050687998425735
0.00490346403705614 0.01979808969396946 -0.10930271413289704
0.004914985140555201 0.02015873203797406 -0.11311047942451959
0.0049224460918573685 0.02060926893111414 -0.11648386887984537
0.004916956732429355 0.02116106950476716 -0.11942087781426529
0.004910301924250248 0.02179382335734491 -0.1219250874995684
0.004909940276999731 0.02246570293587828 -0.12400387326188018

CELLS 40 140
4 0 21 22 1
4 1 22 23 2
4 2 23 24 3
4 3 24 25 4
4 4 25 26 5
4 5 26 27 6
4 6 27 28 7
4 7 28 29 8
4 8 29 30 9
4 9 30 31 10
4 10 31 32 11
4 11 32 33 12
4 12 33 34 13
4 13 34 35 14
4 14 35 36 15
4 15 36 37 16
4 16 37 38 17
4 17 38 39 18
4 18 39 40 19
4 19 40 41 20
1 42
1 43
1 44
1 45
1 46
1 47
1 48
1 49
1 50
1 51
1 52
1 53
1 54
1 55
1 56
1 57
1 58
1 59
1 60
1 61

CELL_TYPES 40
9
9
9
9
9
9
9
9
9
9
9
9
9
9
9
9
9
9
9
9
1
1
1
1
1
1
1
1
1
1
1
1
1
1
1
1
1
1
1
1

CELL_DATA 40

VECTORS S float
-2.2548089216842898e-18 -3.9386969201783976e-17 1.0377636598909564e-16
0.0 0.0 -0.0
1.48018490880594e-17 3.2197280131891526e-16 -8.276323614355813e-16
0.0 0.0 -0.0
0.0 0.0 -0.0
-9.68204481161274e-18 -3.2574746183046356e-16 8.262298435304114e-16
0.0 0.0 -0.0
-1.586805030991378e-17 -6.523230319224958e-16 1.6521702357465625e-15
-1.434366505650647e-17 -6.521825216220428e-16 1.6522396432259781e-15
0.0 0.0 -0.0
0.0 0.0 -0.0
0.0 0.0 -0.0
-4.97710952092739e-18 -3.2439192067915346e-16 8.268047020910793e-16
4.54800304231402e-18 3.2372644965075174e-16 -8.270679577192302e-16
4.2085617916850695e-18 3.2301528824748715e-16 -8.273477604895358e-16
-3.86449564571048e-18 -3.223108257218653e-16 8.276241311832958e-16
-3.8857227691684196e-18 -3.215915838432455e-16 8.279037743486654e-16
0.0 0.0 -0.0
-2.03388838490545e-18 -1.6013182308892408e-16 4.14208750314993e-16
0.0 0.0 -0.0
-2.2548089216842898e-18 -3.9386969201783976e-17 1.0377636598909564e-16
0.0 0.0 -0.0
1.48018490880594e-17 3.2197280131891526e-16 -8.276323614355813e-16
0.0 0.0 -0.0
0.0 0.0 -0.0
-9.68204481161274e-18 -3.2574746183046356e-16 8.262298435304114e-16
0.0 0.0 -0.0
-1.586805030991378e-17 -6.523230319224958e-16 1.6521702357465625e-15
-1.434366505650647e-17 -6.521825216220428e-16 1.6522396432259781e-15
0.0 0.0 -0.0
0.0 0.0 -0.0
0.0 0.0 -0.0
-4.97710952092739e-18 -3.2439192067915346e-16 8.268047020910793e-16
4.54800304231402e-18 3.2372644965075174e-16 -8.270679577192302e-16
4.2085617916850695e-18 3.2301528824748715e-16 -8.273477604895358e-16
-3.86449564571048e-18 -3.223108257218653e-16 8.276241311832958e-16
-3.8857227691684196e-18 -3.215915838432455e-16 8.279037743486654e-16
0.0 0.0 -0.0
-2.03388838490545e-18 -1.6013182308892408e-16 4.14208750314993e-16
0.0 0.0 -0.0

SCALARS Gamma float
LOOKUP_TABLE default
0.11399339379555931
0.07884379906898566
0.488202315998414
0.6450941708973604
0.7658826815767443
0.8114222813005645
0.8231993335486283
0.836456475480476
0.8222610638383275
0.7999433267038144
0.7615201559043895
0.7190361973271846
0.6782791424344717
0.6236354967568773
0.5828501854891979
0.5431131881470388
0.43195460131357133
0.3347297057413182
0.23987135045211022
0.18201329702299657
0.11399339379555931
0.07884379906898566
0.488202315998414
0.6450941708973604
0.7658826815767443
0.8114222813005645
0.8231993335486283
0.836456475480476
0.8222610638383275
0.7999433267038144
0.7615201559043895
0.7190361973271846
0.6782791424344717
0.6236354967568773
0.5828501854891979
0.5431131881470388
0.43195460131357133
0.3347297057413182
0.23987135045211022
0.18201329702299657

VECTORS Ftot float
-1.8870676679828928 2.633908905977313 0.9586644415443957
-1.901153646058989 2.1046211193930646 0.7660194418670877
-17.713863789145396 12.642590840384655 4.601526749906529
-30.336241937286548 16.48988940396354 6.001828909384354
-43.676025388941724 19.515472824598685 7.103051215784861
-53.85478493610283 20.836647639981223 7.583919522846248
-61.9170460698413 21.34292687052442 7.768190092991167
-69.95794893645929 21.774173957440787 7.9251511962427355
-75.36786386928533 21.273641420728417 7.742972251597677
-79.35855228439091 20.51159862747171 7.465611357615164
-80.90323006706679 19.38400516701099 7.05520090165424
-81.10361737771129 18.119887283278835 6.595099619372152
-80.58185767690503 17.095960568243907 6.2224207730294685
-77.5712225783781 15.542735332458236 5.657093020092383
-75.43666481963008 14.506514849701034 5.279939608231809
-72.79232150620624 13.3444931500537 4.856998297988758
-59.50787819767255 11.413605211286848 4.154212562574006
-47.19622305681591 9.539329379816209 3.4720319491141587
-34.462756600140985 7.478889231552824 2.722093065659249
-26.57455442506631 6.003167412840903 2.184974249590927
-1.8870676679828928 2.633908905977313 0.9586644415443957
-1.901153646058989 2.1046211193930646 0.7660194418670877
-17.713863789145396 12.642590840384655 4.601526749906529
-30.336241937286548 16.48988940396354 6.001828909384354
-43.676025388941724 19.515472824598685 7.103051215784861
-53.85478493610283 20.836647639981223 7.583919522846248
-61.9170460698413 21.34292687052442 7.768190092991167
-69.95794893645929 21.774173957440787 7.9251511962427355
-75.36786386928533 21.273641420728417 7.742972251597677
-79.35855228439091 20.51159862747171 7.465611357615164
-80.90323006706679 19.38400516701099 7.05520090165424
-81.10361737771129 18.119887283278835 6.595099619372152
-80.58185767690503 17.095960568243907 6.2224207730294685
-77.5712225783781 15.542735332458236 5.657093020092383
-75.43666481963008 14.506514849701034 5.279939608231809
-72.79232150620624 13.3444931500537 4.856998297988758
-59.50787819767255 11.413605211286848 4.154212562574006
-47.19622305681591 9.539329379816209 3.4720319491141587
-34.462756600140985 7.478889231552824 2.722093065659249
-26.57455442506631 6.003167412840903 2.184974249590927

VECTORS D float
-0.021940450089310212 -0.013427823044725973 -0.005573068297434348
0.2521718001978328 0.25657120465562816 0.10400275861338652
0.7688908720361746 1.0729065732022165 0.4311428095459205
0.5763419643768722 1.0051709242053068 0.4020575867811231
0.4510472399514447 0.935802772351391 0.373972056591741
0.4228947135360546 1.0115759595735156 0.40377721702878566
0.4382063620155402 1.1845903525623438 0.4721898642887353
0.45107532372033654 1.3599829710512743 0.5412916185149518
0.40374037711897703 1.3419697204044565 0.5332158180231324
0.37743853449630455 1.375445514271625 0.5454653025043869
0.37109637657414646 1.4732797740038235 0.5829669679993579
0.3589362092644313 1.543931970424879 0.6094051123715213
0.388428489385732 1.8007507941282566 0.7088521127446799
0.36272934324330597 1.8025174789395488 0.7075262347979666
0.3695544807869241 1.9568080685926694 0.7658620056145903
0.3398382586380172 1.9052378163574903 0.7435646860339871
0.4222729938070721 2.490026656263541 0.9692098005203732
0.44443123013690167 2.7358806841600054 1.06208664090298
0.4183308351465515 2.6726949697048914 1.0353097464985421
0.36432129238047356 2.400255503787312 0.9280753230492863
-0.021940450089310212 -0.013427823044725973 -0.005573068297434348
0.2521718001978328 0.25657120465562816 0.10400275861338652
0.7688908720361746 1.0729065732022165 0.4311428095459205
0.5763419643768722 1.0051709242053068 0.4020575867811231
0.4510472399514447 0.935802772351391 0.373972056591741
0.4228947135360546 1.0115759595735156 0.40377721702878566
0.4382063620155402 1.1845903525623438 0.4721898642887353
0.45107532372033654 1.3599829710512743 0.5412916185149518
0.40374037711897703 1.3419697204044565 0.5332158180231324
0.37743853449630455 1.375445514271625 0.5454653025043869
0.37109637657414646 1.4732797740038235 0.5829669679993579
0.3589362092644313 1.543931970424879 0.6094051123715213
0.388428489385732 1.8007507941282566 0.7088521127446799
0.36272934324330597 1.8025174789395488 0.7075262347979666
0.3695544807869241 1.9568080685926694 0.7658620056145903
0.3398382586380172 1.9052378163574903 0.7435646860339871
0.4222729938070721 2.490026656263541 0.9692098005203732
0.44443123013690167 2.7358806841600054 1.06208664090298
0.4183308351465515 2.6726949697048914 1.0353097464985421
0.36432129238047356 2.400255503787312 0.9280753230492863

VECTORS L float
-1.865127217893583 2.6473367290220393 0.9642375098418302
-2.1533254462568223 1.848049914737437 0.6620166832537012
-18.482754661181573 11.56968426718244 4.17038394036061
-30.912583901663414 15.48471847975823 5.599771322603231
-44.127072628893174 18.579670052247295 6.729079159193121
-54.277679649638884 19.825071680407707 7.18014230581746
-62.35525243185684 20.158336517962077 7.296000228702433
-70.40902426017962 20.414190986389514 7.3838595777277805
-75.77160424640431 19.93167170032396 7.209756433574545
-79.73599081888723 19.136153113200084 6.920146055110776
-81.27432644364096 17.91072539300717 6.472233933654883
-81.46255358697573 16.575955312853957 5.98569450700063
-80.97028616629078 15.295209774115651 5.513568660284788
-77.9339519216214 13.74021785351869 4.949566785294416
-75.80621930041701 12.549706781108366 4.514077602617219
-73.13215976484426 11.439255333696213 4.113433611954771
-59.93015119147963 8.92357855502331 3.185002762053634
-47.640654286952824 6.803448695656205 2.409945308211179
-34.88108743528754 4.806194261847932 1.686783319160707
-26.938875717446784 3.602911909053592 1.2568989265416408
-1.865127217893583 2.6473367290220393 0.9642375098418302
-2.1533254462568223 1.848049914737437 0.6620166832537012
-18.482754661181573 11.56968426718244 4.17038394036061
-30.912583901663414 15.48471847975823 5.599771322603231
-44.127072628893174 18.579670052247295 6.729079159193121
-54.277679649638884 19.825071680407707 7.18014230581746
-62.35525243185684 20.158336517962077 7.296000228702433
-70.40902426017962 20.414190986389514 7.3838595777277805
-75.77160424640431 19.93167170032396 7.209756433574545
-79.73599081888723 19.136153113200084 6.920146055110776
-81.27432644364096 17.91072539300717 6.472233933654883
-81.46255358697573 16.575955312853957 5.98569450700063
-80.97028616629078 15.295209774115651 5.513568660284788
-77.9339519216214 13.74021785351869 4.949566785294416
-75.80621930041701 12.549706781108366 4.514077602617219
-73.13215976484426 11.439255333696213 4.113433611954771
-59.93015119147963 8.92357855502331 3.185002762053634
-47.640654286952824 6.803448695656205 2.409945308211179
-34.88108743528754 4.806194261847932 1.686783319160707
-26.938875717446784 3.602911909053592 1.2568989265416408

SCALARS mu float
LOOKUP_TABLE default
-0.049638300954051286
0.5364259396936759
1.2987273005180742
0.8552382744263053
0.6549119958488641
0.6306606130523887
0.6873200627861641
0.7571218852747376
0.737585708256403
0.7660977675750453
0.849994648266619
0.9370975529050362
1.1584759913530893
1.231609330704773
1.4243300364569969
1.4901621996222063
2.127308793996395
2.615780981628236
2.9497169309411526
3.167717830808223
-0.049638300954051286
0.5364259396936759
1.2987273005180742
0.8552382744263053
0.6549119958488641
0.6306606130523887
0.6873200627861641
0.7571218852747376
0.737585708256403
0.7660977675750453
0.849994648266619
0.9370975529050362
1.1584759913530893
1.231609330704773
1.4243300364569969
1.4901621996222063
2.127308793996395
2.615780981628236
2.9497169309411526
3.167717830808223