# vtk DataFile Version 4.0
[MyVLM domain - lattices] 
ASCII
DATASET UNSTRUCTURED_GRID
POINTS 62 float
0.00022673658128986117 0.001149107698475516 -0.013460484151610627
-0.003724999406033424 0.00824877706150411 -0.020228343401300336
-0.00549739299719125 0.01473834783498571 -0.027082072332948383
-0.005451904080891177 0.02063727154155215 -0.033998489524576854
-0.004354059046121628 0.026501438050996164 -0.04031511122677353
-0.0029556321221654493 0.03263775632534001 -0.04566617758144904
-0.0016722727371407085 0.038861761278997736 -0.05027152551705862
-0.0006485493516483927 0.044866612133960176 -0.0544968336331491
0.0001374053121431227 0.05060128035763452 -0.05840291536676278
0.0007511984436382017 0.05608635077458094 -0.06196523867927714
0.0012455433643025467 0.061296247193784716 -0.06521428408821886
0.0016598526811940704 0.06617878159440242 -0.06821224685491847
0.002022453218220871 0.07067505861564959 -0.07102931573717801
0.002352563731918074 0.07474965660596795 -0.07370770461549761
0.002662053738196183 0.0784371535764387 -0.07620620502094655
0.002957000443680671 0.08181314156728833 -0.07843472986801338
0.0032390594424296184 0.08495073246384643 -0.08030614780469517
0.0035066635059833096 0.08789552210397492 -0.0817661198274127
0.0037560624618667195 0.0906552779122125 -0.08280538908006677
0.003982215822832984 0.09320040765754457 -0.08345922221028187
0.004179548496302947 0.09547171749206065 -0.08379816369896477
0.008285994416043337 0.010980175890728468 -0.0017442733144545563
0.007508437091591354 0.017352665786679315 -0.00937875130649491
0.00973309288421085 0.02408194573005133 -0.015946805973748285
0.010440442308044806 0.033387330159528314 -0.018803561360817053
0.01004693542569484 0.04102329956421981 -0.023008630597233744
0.0094954698488839 0.04756643032733317 -0.027874876706905978
0.009038213335578684 0.05351459576452946 -0.032808957377237935
0.008539133039147835 0.05894597266573099 -0.03771770513798219
0.008012046218423283 0.06389123082916963 -0.042564569146911764
0.007469873605570215 0.06841015201623638 -0.047278304275117346
0.0069256484677951155 0.07255163916647253 -0.051800630268712206
0.0064559301991455546 0.07634063711034426 -0.05610181903637155
0.006108090109537901 0.07980056154496053 -0.06015396483694274
0.005835591307912621 0.08296652651708156 -0.06391522037904875
0.005646315885461864 0.0858645189881466 -0.06735461560803373
0.005556570152728891 0.0885177744817352 -0.07044445950519597
0.005484703593381549 0.09095693246201741 -0.0731482373790356
0.005393245002100456 0.09319299224401473 -0.07545284075635973
0.005297730961761147 0.09521695522120349 -0.0773689937588213
0.00521698140800628 0.09700974380722262 -0.07891943216850408
0.005155604557614359 0.09854722829135379 -0.0801329126548449
0.005485628962270063 0.011799551224025371 -0.00838223767696992
0.005312774690522743 0.01841136993083522 -0.015410885946872288
0.006196413562335568 0.0259729308806596 -0.020666457982652653
0.006457021259275767 0.03379632484547409 -0.024968772078187852
0.006414690581931144 0.040613548006374386 -0.029828976340080218
0.006371643086760199 0.0468428244849907 -0.034748650668867426
0.006301402129423808 0.05263875983796741 -0.03954354333698351
0.00614279921665101 0.05799743787203706 -0.04421832148182421
0.005916795403470228 0.06294897245855419 -0.0487370967890159
0.005647913503504593 0.06753349643956154 -0.053052040799873065
0.005381266505789829 0.07176898220232969 -0.057141734857298586
0.005171795853183163 0.0756596795219958 -0.06100111427650493
0.005025757650311314 0.07921574742596797 -0.06461807200008127
0.004932542381279714 0.08245999333726138 -0.06796542719971144
0.00490346403705614 0.08542464694417154 -0.07100477002858112
0.004914985140555201 0.08814849935779907 -0.0736898710406754
0.0049224460918573685 0.09066200358573973 -0.07598443775478674
0.004916956732429355 0.09297258030148026 -0.0778796265566278
0.004910301924250248 0.09506697283187941 -0.07939123613404059
0.004909940276999731 0.09691788018066681 -0.0805518025474117

CELLS 40 140
4 0 21 22 1
4 1 22 23 2
4 2 23 24 3
4 3 24 25 4
4 4 25 26 5
4 5 26 27 6
4 6 27 28 7
4 7 28 29 8
4 8 29 30 9
4 9 30 31 10
4 10 31 32 11
4 11 32 33 12
4 12 33 34 13
4 13 34 35 14
4 14 35 36 15
4 15 36 37 16
4 16 37 38 17
4 17 38 39 18
4 18 39 40 19
4 19 40 41 20
1 42
1 43
1 44
1 45
1 46
1 47
1 48
1 49
1 50
1 51
1 52
1 53
1 54
1 55
1 56
1 57
1 58
1 59
1 60
1 61

CELL_TYPES 40
9
9
9
9
9
9
9
9
9
9
9
9
9
9
9
9
9
9
9
9
1
1
1
1
1
1
1
1
1
1
1
1
1
1
1
1
1
1
1
1

CELL_DATA 40

VECTORS S float
0.0 0.0 -0.0
0.0 0.0 -0.0
0.0 0.0 -0.0
0.0 0.0 -0.0
-2.158573695279992e-17 -1.5604441915032015e-15 8.48523188868855e-16
1.918944927417633e-17 1.5610469483890685e-15 -8.474714218460581e-16
0.0 0.0 -0.0
1.5911791801597008e-17 1.5617333891506433e-15 -8.462737482503846e-16
1.440111599667596e-17 1.5617332218091922e-15 -8.463011122759897e-16
0.0 0.0 -0.0
0.0 0.0 -0.0
0.0 0.0 -0.0
0.0 0.0 -0.0
4.4924167034912e-18 7.794858991104576e-16 -4.257257996658598e-16
-4.15202963873433e-18 -7.791131858464785e-16 4.264109631693838e-16
0.0 0.0 -0.0
3.82583001484317e-18 7.783699077774396e-16 -4.2776927766291184e-16
3.8760874403177295e-18 7.780256624996534e-16 -4.2839461908285247e-16
0.0 0.0 -0.0
0.0 0.0 -0.0
0.0 0.0 -0.0
0.0 0.0 -0.0
0.0 0.0 -0.0
0.0 0.0 -0.0
-2.158573695279992e-17 -1.5604441915032015e-15 8.48523188868855e-16
1.918944927417633e-17 1.5610469483890685e-15 -8.474714218460581e-16
0.0 0.0 -0.0
1.5911791801597008e-17 1.5617333891506433e-15 -8.462737482503846e-16
1.440111599667596e-17 1.5617332218091922e-15 -8.463011122759897e-16
0.0 0.0 -0.0
0.0 0.0 -0.0
0.0 0.0 -0.0
0.0 0.0 -0.0
4.4924167034912e-18 7.794858991104576e-16 -4.257257996658598e-16
-4.15202963873433e-18 -7.791131858464785e-16 4.264109631693838e-16
0.0 0.0 -0.0
3.82583001484317e-18 7.783699077774396e-16 -4.2776927766291184e-16
3.8760874403177295e-18 7.780256624996534e-16 -4.2839461908285247e-16
0.0 0.0 -0.0
0.0 0.0 -0.0

SCALARS Gamma float
LOOKUP_TABLE default
0.11544658825484298
0.07875485440025479
0.4865918518958288
0.6449153033982657
0.7653932772183687
0.8109032207947661
0.8226674963540417
0.8344315191101397
0.8222096250167893
0.7987484481206408
0.7596881959863578
0.717105324310483
0.6772680284641733
0.6225940263252102
0.5819661284116746
0.5422981868057426
0.43129555209569564
0.33435821321472126
0.23957790450510125
0.18174738285692493
0.11544658825484298
0.07875485440025479
0.4865918518958288
0.6449153033982657
0.7653932772183687
0.8109032207947661
0.8226674963540417
0.8344315191101397
0.8222096250167893
0.7987484481206408
0.7596881959863578
0.717105324310483
0.6772680284641733
0.6225940263252102
0.5819661284116746
0.5422981868057426
0.43129555209569564
0.33435821321472126
0.23957790450510125
0.18174738285692493

VECTORS Ftot float
-1.9116707860479758 1.4180773246330884 2.4561819753258414
-1.8993133941592555 1.1193054770384265 1.9386939554206646
-17.64897840292082 6.7083980811349395 11.61928631392322
-30.336131902057886 8.776427727406091 15.201218732823532
-43.648858266645114 10.381269457201883 17.980886146936555
-53.81495432128793 11.082225712571107 19.194977995119267
-61.86775550420635 11.35088977635927 19.660317803768294
-69.76640162495731 11.570347789454969 20.040430232578156
-75.3461926541627 11.314980557388933 19.598121212051552
-79.21171081698856 10.902046597765425 18.882898613813044
-80.6746003135358 10.298177594120341 17.836966818383765
-80.85004973991143 9.627079635504169 16.674591057204807
-80.42580481827581 9.085873863800217 15.737195163264044
-77.39001802513097 8.256743307510499 14.301098913662411
-75.28116527127614 7.708683282123533 13.3518311040947
-72.65105284391358 7.0928318074302075 12.28514506000965
-59.3958800130374 6.067495603372361 10.50921065974166
-47.13061430489413 5.071071223659076 8.783353008177954
-34.41089565370988 3.975510308737446 6.885785840747056
-26.528077543376742 3.1909352578220016 5.526861990210574
-1.9116707860479758 1.4180773246330884 2.4561819753258414
-1.8993133941592555 1.1193054770384265 1.9386939554206646
-17.64897840292082 6.7083980811349395 11.61928631392322
-30.336131902057886 8.776427727406091 15.201218732823532
-43.648858266645114 10.381269457201883 17.980886146936555
-53.81495432128793 11.082225712571107 19.194977995119267
-61.86775550420635 11.35088977635927 19.660317803768294
-69.76640162495731 11.570347789454969 20.040430232578156
-75.3461926541627 11.314980557388933 19.598121212051552
-79.21171081698856 10.902046597765425 18.882898613813044
-80.6746003135358 10.298177594120341 17.836966818383765
-80.85004973991143 9.627079635504169 16.674591057204807
-80.42580481827581 9.085873863800217 15.737195163264044
-77.39001802513097 8.256743307510499 14.301098913662411
-75.28116527127614 7.708683282123533 13.3518311040947
-72.65105284391358 7.0928318074302075 12.28514506000965
-59.3958800130374 6.067495603372361 10.50921065974166
-47.13061430489413 5.071071223659076 8.783353008177954
-34.41089565370988 3.975510308737446 6.885785840747056
-26.528077543376742 3.1909352578220016 5.526861990210574

VECTORS D float
-0.02167588122440884 -0.006615079125204779 -0.012775776365612007
0.2523400608043192 0.1296154910932894 0.24480273951696055
0.7634063239896083 0.5398283156535606 1.0111234584015367
0.5763522156136816 0.5111966017326743 0.9539604292839075
0.4510543679564489 0.4764282092254643 0.887631572799215
0.42281988555522837 0.5153842250759956 0.9589145210094645
0.4383078054598147 0.6042817164191098 1.1228763795160939
0.4518018751129172 0.6940499429235273 1.2893108751511397
0.4034988775614686 0.684773737751494 1.270522647568734
0.3776251087920118 0.7027413184522002 1.3018236019671452
0.37131101955443274 0.753236838054019 1.3928135156385317
0.3594839914010455 0.7908729166065824 1.459411698148679
0.3883934132754996 0.923038212487908 1.6991782541904084
0.3625356531218495 0.9254558338979839 1.6982960266071558
0.36951043631146635 1.0065386744439417 1.8426866086343487
0.33985540053265223 0.9814195315382893 1.7925492768997642
0.4222133570894435 1.2838007730120518 2.339782817729445
0.44422318012657336 1.4125307349642542 2.5693763640574425
0.41809092259151004 1.3809322635954389 2.507604160953223
0.36419358466379587 1.2413663074728458 2.25090055513566
-0.02167588122440884 -0.006615079125204779 -0.012775776365612007
0.2523400608043192 0.1296154910932894 0.24480273951696055
0.7634063239896083 0.5398283156535606 1.0111234584015367
0.5763522156136816 0.5111966017326743 0.9539604292839075
0.4510543679564489 0.4764282092254643 0.887631572799215
0.42281988555522837 0.5153842250759956 0.9589145210094645
0.4383078054598147 0.6042817164191098 1.1228763795160939
0.4518018751129172 0.6940499429235273 1.2893108751511397
0.4034988775614686 0.684773737751494 1.270522647568734
0.3776251087920118 0.7027413184522002 1.3018236019671452
0.37131101955443274 0.753236838054019 1.3928135156385317
0.3594839914010455 0.7908729166065824 1.459411698148679
0.3883934132754996 0.923038212487908 1.6991782541904084
0.3625356531218495 0.9254558338979839 1.6982960266071558
0.36951043631146635 1.0065386744439417 1.8426866086343487
0.33985540053265223 0.9814195315382893 1.7925492768997642
0.4222133570894435 1.2838007730120518 2.339782817729445
0.44422318012657336 1.4125307349642542 2.5693763640574425
0.41809092259151004 1.3809322635954389 2.507604160953223
0.36419358466379587 1.2413663074728458 2.25090055513566

VECTORS L float
-1.8899949048235674 1.4246924037582935 2.4689577516914536
-2.151653454963575 0.9896899859451375 1.6938912159037047
-18.41238472691043 6.16856976548138 10.608162855521686
-30.912484117671568 8.265231125673417 14.247258303539624
-44.09991263460157 9.904841247976421 17.09325457413734
-54.23777420684317 10.566841487495115 18.236063474109805
-62.306063309666165 10.746608059940161 18.537441424252204
-70.21820350007023 10.876297846531441 18.75111935742702
-75.74969153172418 10.630206819637442 18.32759856448282
-79.58933592578057 10.199305279313226 17.581075011845904
-81.04591133309025 9.544940756066323 16.444153302745235
-81.20953373131246 8.836206718897586 15.215179359056128
-80.8141982315513 8.162835651312308 14.038016909073635
-77.75255367825282 7.331287473612515 12.60280288705526
-75.65067570758762 6.702144607679594 11.509144495460355
-72.99090824444623 6.111412275891919 10.492595783109888
-59.81809337012684 4.783694830360309 8.169427842012214
-47.57483748502071 3.6585404886948223 6.213976644120512
-34.82898657630139 2.5945780451420077 4.378181679793832
-26.892271128040534 1.9495689503491558 3.2759614350749144
-1.8899949048235674 1.4246924037582935 2.4689577516914536
-2.151653454963575 0.9896899859451375 1.6938912159037047
-18.41238472691043 6.16856976548138 10.608162855521686
-30.912484117671568 8.265231125673417 14.247258303539624
-44.09991263460157 9.904841247976421 17.09325457413734
-54.23777420684317 10.566841487495115 18.236063474109805
-62.306063309666165 10.746608059940161 18.537441424252204
-70.21820350007023 10.876297846531441 18.75111935742702
-75.74969153172418 10.630206819637442 18.32759856448282
-79.58933592578057 10.199305279313226 17.581075011845904
-81.04591133309025 9.544940756066323 16.444153302745235
-81.20953373131246 8.836206718897586 15.215179359056128
-80.8141982315513 8.162835651312308 14.038016909073635
-77.75255367825282 7.331287473612515 12.60280288705526
-75.65067570758762 6.702144607679594 11.509144495460355
-72.99090824444623 6.111412275891919 10.492595783109888
-59.81809337012684 4.783694830360309 8.169427842012214
-47.57483748502071 3.6585404886948223 6.213976644120512
-34.82898657630139 2.5945780451420077 4.378181679793832
-26.892271128040534 1.9495689503491558 3.2759614350749144

SCALARS mu float
LOOKUP_TABLE default
-0.04909105551609656
0.5365276052434829
1.288055673132489
0.8547677561502903
0.6546664426822837
0.6304020635726281
0.6873683325309117
0.7576033318962893
0.7373907789418532
0.766226592257777
0.8498154958462016
0.9375400037309009
1.1580599556058597
1.2309345842997008
1.4239483707037506
1.4896528706803154
2.1255102777563333
2.614026033407831
2.946885767712063
3.1649632372741117
-0.04909105551609656
0.5365276052434829
1.288055673132489
0.8547677561502903
0.6546664426822837
0.6304020635726281
0.6873683325309117
0.7576033318962893
0.7373907789418532
0.766226592257777
0.8498154958462016
0.9375400037309009
1.1580599556058597
1.2309345842997008
1.4239483707037506
1.4896528706803154
2.1255102777563333
2.614026033407831
2.946885767712063
3.1649632372741117