# vtk DataFile Version 4.0
[MyVLM domain - lattices] 
ASCII
DATASET UNSTRUCTURED_GRID
POINTS 62 float
0.00022673658128986117 -0.012255699649745067 -0.00568356474351248
-0.003724999406033424 -0.016187177112088266 -0.014669815844557108
-0.00549739299719125 -0.020408011687956605 -0.023112130963983252
-0.005451904080891177 -0.024889767153619666 -0.03102086004080372
-0.004354059046121628 -0.028819786885424407 -0.03869178589670749
-0.0029556321221654493 -0.03174939999656574 -0.046288211379473435
-0.0016722727371407085 -0.0339482764015 -0.05371198466716233
-0.0006485493516483927 -0.03586498730867351 -0.060799839191950894
0.0001374053121431227 -0.03757413144215067 -0.06752462323876547
0.0007511984436382017 -0.03904561580161862 -0.07389728976397968
0.0012455433643025467 -0.04031683027699152 -0.07990422996060227
0.0016598526811940704 -0.04146406865075828 -0.08551767516274773
0.002022453218220871 -0.0425734301804243 -0.09070628780349164
0.002352563731918074 -0.043696697856333115 -0.09545122041570768
0.002662053738196183 -0.04478332200801072 -0.09977087157480034
0.002957000443680671 -0.04572279446554132 -0.10370546296526222
0.0032390594424296184 -0.04640823280290947 -0.10729389660872908
0.0035066635059833096 -0.046772980364430346 -0.11056043354378595
0.0037560624618667195 -0.046805681935081764 -0.11350920673070454
0.003982215822832984 -0.04654959846248935 -0.11612447047224309
0.004179548496302947 -0.04609126556314467 -0.11837472837979465
0.008285994416043337 0.0021163605696613258 -0.01091456686845783
0.007508437091591354 -0.002878182155456964 -0.019513893856769944
0.00973309288421085 -0.006748585368482782 -0.02808375556142411
0.010440442308044806 -0.006250428408831501 -0.03780502453031142
0.01004693542569484 -0.00759024558996309 -0.04641870701538062
0.0094954698488839 -0.00992513862875161 -0.054231592902203626
0.009038213335578684 -0.012527265429670281 -0.06150859504879815
0.008539133039147835 -0.01528233917153635 -0.06829131045624358
0.008012046218423283 -0.018145523608838574 -0.07459605818332231
0.007469873605570215 -0.021029423653074725 -0.08045464744087016
0.0069256484677951155 -0.023862547989338942 -0.08589309893952145
0.0064559301991455546 -0.02660842971509201 -0.09092468554633634
0.006108090109537901 -0.029232837371213957 -0.09556186649350998
0.005835591307912621 -0.031684437655492205 -0.09982332557507435
0.005646315885461864 -0.03392524017182529 -0.10372289016439838
0.005556570152728891 -0.03592127685717224 -0.10727292362534464
0.005484703593381549 -0.037627755811453494 -0.11048972887627832
0.005393245002100456 -0.03902859711183979 -0.11337915853047857
0.005297730961761147 -0.04013695584100573 -0.11593642452942254
0.00521698140800628 -0.04098072156442481 -0.11815137590143128
0.005155604557614359 -0.04159516955928344 -0.12001117349560336
0.005485628962270063 -0.0038410426899025316 -0.013954845345469116
0.005312774690522743 -0.008184436421483013 -0.02257186188289031
0.006196413562335568 -0.010536852521689889 -0.031474916409999186
0.006457021259275767 -0.011903947004428483 -0.04029798007182342
0.006414690581931144 -0.014139417442266785 -0.04836636212861671
0.006371643086760199 -0.016631861071666428 -0.05590259498745514
0.006301402129423808 -0.019155259689224182 -0.06298894254677981
0.00614279921665101 -0.021715338386493616 -0.06962332104367674
0.005916795403470228 -0.024268073628688647 -0.07582175373441531
0.005647913503504593 -0.02675479512573139 -0.0816055948582196
0.005381266505789829 -0.029149229005130332 -0.08698440732261543
0.005171795853183163 -0.031445162511262566 -0.0919604523857223
0.005025757650311314 -0.03362774413960949 -0.09653913555311905
0.004932542381279714 -0.03566363166828704 -0.10073259240111578
0.00490346403705614 -0.037505708445068085 -0.10455797198866146
0.004914985140555201 -0.039097265659291 -0.10803591463485754
0.0049224460918573685 -0.04039378399215247 -0.11118262404659822
0.004916956732429355 -0.04138441514475608 -0.11400204868177424
0.004910301924250248 -0.04208853907673284 -0.11648713481193863
0.004909940276999731 -0.04254606717459485 -0.1186233558803927

CELLS 40 140
4 0 21 22 1
4 1 22 23 2
4 2 23 24 3
4 3 24 25 4
4 4 25 26 5
4 5 26 27 6
4 6 27 28 7
4 7 28 29 8
4 8 29 30 9
4 9 30 31 10
4 10 31 32 11
4 11 32 33 12
4 12 33 34 13
4 13 34 35 14
4 14 35 36 15
4 15 36 37 16
4 16 37 38 17
4 17 38 39 18
4 18 39 40 19
4 19 40 41 20
1 42
1 43
1 44
1 45
1 46
1 47
1 48
1 49
1 50
1 51
1 52
1 53
1 54
1 55
1 56
1 57
1 58
1 59
1 60
1 61

CELL_TYPES 40
9
9
9
9
9
9
9
9
9
9
9
9
9
9
9
9
9
9
9
9
1
1
1
1
1
1
1
1
1
1
1
1
1
1
1
1
1
1
1
1

CELL_DATA 40

VECTORS S float
-1.0932418452517699e-18 8.911947506512429e-18 5.478019646668434e-17
-1.0992905064585799e-18 8.71721563696178e-18 5.4811400483299964e-17
0.0 -0.0 -0.0
1.236077992983221e-17 -1.3310213273821479e-16 -8.780614663000971e-16
-5.33619768052312e-18 6.602833294757945e-17 4.39120724343239e-16
-4.77048317681647e-18 6.56695490888346e-17 4.391810322839339e-16
0.0 -0.0 -0.0
-3.92844071381926e-18 6.541015133881077e-17 4.39228079431e-16
3.5535287818997e-18 -6.542222984911284e-17 -4.3922947371507184e-16
3.2259498132809e-18 -6.552767295040525e-17 -4.392162834307943e-16
5.88379419568207e-18 -1.3143071245870125e-16 -8.783804722382397e-16
2.71547210139079e-18 -6.585739468197493e-17 -4.3917041804090375e-16
-2.49600858445316e-18 6.6213103167788e-17 4.3911823147677567e-16
0.0 -0.0 -0.0
0.0 -0.0 -0.0
0.0 -0.0 -0.0
0.0 -0.0 -0.0
9.7830715554646e-19 -3.40710526370798e-17 -2.1941288217336736e-16
0.0 -0.0 -0.0
1.0222685137995299e-18 -3.4364879255312386e-17 -2.1936685396195734e-16
-1.0932418452517699e-18 8.911947506512429e-18 5.478019646668434e-17
-1.0992905064585799e-18 8.71721563696178e-18 5.4811400483299964e-17
0.0 -0.0 -0.0
1.236077992983221e-17 -1.3310213273821479e-16 -8.780614663000971e-16
-5.33619768052312e-18 6.602833294757945e-17 4.39120724343239e-16
-4.77048317681647e-18 6.56695490888346e-17 4.391810322839339e-16
0.0 -0.0 -0.0
-3.92844071381926e-18 6.541015133881077e-17 4.39228079431e-16
3.5535287818997e-18 -6.542222984911284e-17 -4.3922947371507184e-16
3.2259498132809e-18 -6.552767295040525e-17 -4.392162834307943e-16
5.88379419568207e-18 -1.3143071245870125e-16 -8.783804722382397e-16
2.71547210139079e-18 -6.585739468197493e-17 -4.3917041804090375e-16
-2.49600858445316e-18 6.6213103167788e-17 4.3911823147677567e-16
0.0 -0.0 -0.0
0.0 -0.0 -0.0
0.0 -0.0 -0.0
0.0 -0.0 -0.0
9.7830715554646e-19 -3.40710526370798e-17 -2.1941288217336736e-16
0.0 -0.0 -0.0
1.0222685137995299e-18 -3.4364879255312386e-17 -2.1936685396195734e-16

SCALARS Gamma float
LOOKUP_TABLE default
0.11386700315406165
0.07884720853366335
0.4876158743203366
0.6467259514507401
0.767028477605972
0.8122708813586627
0.8234225539064111
0.8357439554565872
0.8235549028790184
0.8005218046424175
0.7621232774082316
0.7170543851755062
0.6770358864848599
0.6227863333467769
0.5821902646234663
0.5425273316588354
0.43147518450788214
0.3345877511248318
0.23967444009518424
0.18181219054281555
0.11386700315406165
0.07884720853366335
0.4876158743203366
0.6467259514507401
0.767028477605972
0.8122708813586627
0.8234225539064111
0.8357439554565872
0.8235549028790184
0.8005218046424175
0.7621232774082316
0.7170543851755062
0.6770358864848599
0.6227863333467769
0.5821902646234663
0.5425273316588354
0.43147518450788214
0.3345877511248318
0.23967444009518424
0.18181219054281555

VECTORS Ftot float
-1.88527272263688 2.7580845260186067 -0.4863247170116058
-1.9013746023174662 2.205946290751617 -0.38896784905327597
-17.680671323681977 13.226857855457865 -2.3322519099129617
-30.416353250962402 17.30682220180895 -3.051659704503245
-43.77096796701221 20.487747695556337 -3.612542692674313
-53.92876176636128 21.85795071072249 -3.8541464532961993
-61.93822664335965 22.37239844985937 -3.9448574698705032
-69.88927378239968 22.808171580270056 -4.0216960302296965
-75.47414330770232 22.302054872880085 -3.932453999329512
-79.38900914413506 21.488906136905868 -3.7890739378482716
-80.93331012817748 20.3055526872269 -3.5804167969554292
-80.82333436364046 18.952481456273116 -3.341833832117859
-80.39156909407247 17.8914739356896 -3.1547495795043905
-77.43508707283675 16.27193513305614 -2.8691811922958252
-75.32965230758887 15.191640556548519 -2.6786961113445047
-72.69920055790064 13.977509548366358 -2.464612056487216
-59.43362908246705 11.956429575350864 -2.108241127075043
-47.17233221224512 9.994682261648384 -1.762332146336938
-34.43069390853731 7.833764746421339 -1.381304085316909
-26.541502786830986 6.287353072270145 -1.1086299838815021
-1.88527272263688 2.7580845260186067 -0.4863247170116058
-1.9013746023174662 2.205946290751617 -0.38896784905327597
-17.680671323681977 13.226857855457865 -2.3322519099129617
-30.416353250962402 17.30682220180895 -3.051659704503245
-43.77096796701221 20.487747695556337 -3.612542692674313
-53.92876176636128 21.85795071072249 -3.8541464532961993
-61.93822664335965 22.37239844985937 -3.9448574698705032
-69.88927378239968 22.808171580270056 -4.0216960302296965
-75.47414330770232 22.302054872880085 -3.932453999329512
-79.38900914413506 21.488906136905868 -3.7890739378482716
-80.93331012817748 20.3055526872269 -3.5804167969554292
-80.82333436364046 18.952481456273116 -3.341833832117859
-80.39156909407247 17.8914739356896 -3.1547495795043905
-77.43508707283675 16.27193513305614 -2.8691811922958252
-75.32965230758887 15.191640556548519 -2.6786961113445047
-72.69920055790064 13.977509548366358 -2.464612056487216
-59.43362908246705 11.956429575350864 -2.108241127075043
-47.17233221224512 9.994682261648384 -1.762332146336938
-34.43069390853731 7.833764746421339 -1.381304085316909
-26.541502786830986 6.287353072270145 -1.1086299838815021

VECTORS D float
-0.021970751056776892 -0.014429539280345991 0.0019090101702414384
0.25222244381167763 0.27419530322320906 -0.03854953218144195
0.76700228076171 1.1414510626236956 -0.16345829347165333
0.5777800787601349 1.075647998427568 -0.15491994067123205
0.4516812887563383 0.9991791591384706 -0.1447526159088665
0.4231763151659757 1.079020853916806 -0.156746426601898
0.4381863517397422 1.2619848889277407 -0.1838524345289169
0.45131483575819575 1.4484892606143482 -0.21167348475153433
0.4030432364098819 1.4276945595123414 -0.20939108459163475
0.37674236265086236 1.4621150086761714 -0.2153691602940475
0.37044930124799325 1.5657991813829935 -0.23180667257902696
0.35921538757053245 1.6409009352667703 -0.24384616259507086
0.3884066348829927 1.9121393091409502 -0.28611704558445544
0.36272600993917176 1.9135196911836658 -0.2883486761040618
0.36965914797649735 2.0769019641919404 -0.31517200562496306
0.33996704549138723 2.021112987431487 -0.30878206853453133
0.4223586184842143 2.6391834598008486 -0.4057381700812587
0.4443815479452982 2.8991446147321365 -0.4482059856685766
0.4182336269214796 2.830152103346441 -0.4396705041365617
0.36428868755676497 2.540742045904216 -0.39632192011218
-0.021970751056776892 -0.014429539280345991 0.0019090101702414384
0.25222244381167763 0.27419530322320906 -0.03854953218144195
0.76700228076171 1.1414510626236956 -0.16345829347165333
0.5777800787601349 1.075647998427568 -0.15491994067123205
0.4516812887563383 0.9991791591384706 -0.1447526159088665
0.4231763151659757 1.079020853916806 -0.156746426601898
0.4381863517397422 1.2619848889277407 -0.1838524345289169
0.45131483575819575 1.4484892606143482 -0.21167348475153433
0.4030432364098819 1.4276945595123414 -0.20939108459163475
0.37674236265086236 1.4621150086761714 -0.2153691602940475
0.37044930124799325 1.5657991813829935 -0.23180667257902696
0.35921538757053245 1.6409009352667703 -0.24384616259507086
0.3884066348829927 1.9121393091409502 -0.28611704558445544
0.36272600993917176 1.9135196911836658 -0.2883486761040618
0.36965914797649735 2.0769019641919404 -0.31517200562496306
0.33996704549138723 2.021112987431487 -0.30878206853453133
0.4223586184842143 2.6391834598008486 -0.4057381700812587
0.4443815479452982 2.8991446147321365 -0.4482059856685766
0.4182336269214796 2.830152103346441 -0.4396705041365617
0.36428868755676497 2.540742045904216 -0.39632192011218

VECTORS L float
-1.8633019715801031 2.7725140652989526 -0.4882337271818474
-2.153597046129144 1.931750987528409 -0.35041831687183417
-18.447673604443686 12.085406792834169 -2.1687936164413086
-30.994133329722537 16.23117420338138 -2.8967397638320125
-44.22264925576855 19.488568536417866 -3.4677900767654477
-54.351938081527265 20.778929856805686 -3.697400026694302
-62.37641299509939 21.11041356093163 -3.7610050353415865
-70.34058861815788 21.359682319655704 -3.8100225454781618
-75.8771865441122 20.87436031336775 -3.7230629147378766
-79.76575150678592 20.026791128229693 -3.5737047775542234
-81.30375942942548 18.73975350584391 -3.3486101243764015
-81.18254975121098 17.31158052100634 -3.0979876695227877
-80.77997572895546 15.979334626548653 -2.8686325339199352
-77.79781308277592 14.358415441872474 -2.5808325161917627
-75.69931145556538 13.114738592356586 -2.363524105719542
-73.03916760339203 11.95639656093487 -2.155829987952685
-59.855987700951275 9.317246115550017 -1.7025029569937848
-47.61671376019041 7.095537646916246 -1.3141261606683605
-34.848927535458785 5.003612643074899 -0.9416335811803472
-26.905791474387755 3.746611026365929 -0.712308063769322
-1.8633019715801031 2.7725140652989526 -0.4882337271818474
-2.153597046129144 1.931750987528409 -0.35041831687183417
-18.447673604443686 12.085406792834169 -2.1687936164413086
-30.994133329722537 16.23117420338138 -2.8967397638320125
-44.22264925576855 19.488568536417866 -3.4677900767654477
-54.351938081527265 20.778929856805686 -3.697400026694302
-62.37641299509939 21.11041356093163 -3.7610050353415865
-70.34058861815788 21.359682319655704 -3.8100225454781618
-75.8771865441122 20.87436031336775 -3.7230629147378766
-79.76575150678592 20.026791128229693 -3.5737047775542234
-81.30375942942548 18.73975350584391 -3.3486101243764015
-81.18254975121098 17.31158052100634 -3.0979876695227877
-80.77997572895546 15.979334626548653 -2.8686325339199352
-77.79781308277592 14.358415441872474 -2.5808325161917627
-75.69931145556538 13.114738592356586 -2.363524105719542
-73.03916760339203 11.95639656093487 -2.155829987952685
-59.855987700951275 9.317246115550017 -1.7025029569937848
-47.61671376019041 7.095537646916246 -1.3141261606683605
-34.848927535458785 5.003612643074899 -0.9416335811803472
-26.905791474387755 3.746611026365929 -0.712308063769322

SCALARS mu float
LOOKUP_TABLE default
-0.049690485493561615
0.536465453992391
1.2960301417562095
0.8584239844434585
0.6556691846976599
0.6311244047346062
0.6873073361727038
0.757273921614814
0.7371752490833547
0.7654481434626516
0.8495190052442939
0.9372159877994838
1.1579891390372068
1.2312691384803571
1.4242749719087882
1.4899877561533086
2.126130633578132
2.614896860499838
2.9478381745472446
3.1656842750671808
-0.049690485493561615
0.536465453992391
1.2960301417562095
0.8584239844434585
0.6556691846976599
0.6311244047346062
0.6873073361727038
0.757273921614814
0.7371752490833547
0.7654481434626516
0.8495190052442939
0.9372159877994838
1.1579891390372068
1.2312691384803571
1.4242749719087882
1.4899877561533086
2.126130633578132
2.614896860499838
2.9478381745472446
3.1656842750671808