# vtk DataFile Version 4.0
[MyVLM domain - lattices] 
ASCII
DATASET UNSTRUCTURED_GRID
POINTS 62 float
0.00022673658128986117 0.011082567373295054 0.007725398534369454
-0.003724999406033424 0.013393870731249561 0.01725782218606725
-0.00549739299719125 0.016084588709968387 0.026304819801383467
-0.005451904080891177 0.019124919847806888 0.03487164618207059
-0.004354059046121628 0.02166319145328334 0.04310847420236945
-0.0029556321221654493 0.023229191716596608 0.05109821489099573
-0.0016722727371407085 0.02410553754527187 0.058791035261948385
-0.0006485493516483927 0.024762336285141573 0.06610404270632787
0.0001374053121431227 0.025277768183872208 0.07302345193711217
0.0007511984436382017 0.025620295460529956 0.0795548239159915
0.0012455433643025467 0.02582910311312079 0.08569124927057849
0.0016598526811940704 0.025984147828373678 0.0914186294797147
0.002022453218220871 0.02617566253399748 0.0967210540436968
0.002352563731918074 0.02645791634867678 0.10158895385268138
0.002662053738196183 0.02677793268592591 0.10603167010821173
0.002957000443680671 0.027019897821025783 0.11006962389469213
0.0032390594424296184 0.02707179784701102 0.1137225662861352
0.0035066635059833096 0.026863775887434726 0.1170028149346465
0.0037560624618667195 0.026383931557486393 0.11991246819914894
0.003982215822832984 0.025677602785422523 0.12244353177964153
0.004179548496302947 0.02483547980776038 0.12458001454053937
0.008285994416043337 -0.003979502943903392 0.010381247916619667
0.007508437091591354 -0.0005540960061386109 0.019717225047893028
0.00973309288421085 0.001769366217461779 0.028828979761657086
0.010440442308044806 -0.0004093032596771684 0.03831605676309881
0.01004693542569484 -0.0005855911786136446 0.047031534868290814
0.0094954698488839 0.00035713619187303404 0.05513117538426664
0.009038213335578684 0.0016560926781041246 0.06274947809395726
0.008539133039147835 0.0031915044890778784 0.06990756234829797
0.008012046218423283 0.004916382767780071 0.07661371355057309
0.007469873605570215 0.006739136541983851 0.08288408166037547
0.0069256484677951155 0.008584842161513647 0.08873187773872428
0.0064559301991455546 0.01041528192884308 0.09416384059683394
0.006108090109537901 0.012194580914668062 0.0991862959526718
0.005835591307912621 0.013868941278196382 0.10380872981707334
0.005646315885461864 0.015398548684619874 0.10803816253148424
0.005556570152728891 0.0167478042464964 0.11188087114024374
0.005484703593381549 0.017869765581290702 0.11534513285193154
0.005393245002100456 0.018747580760702175 0.11843391911618399
0.005297730961761147 0.01939503644977733 0.12114479897197947
0.00521698140800628 0.01984136120655621 0.12347261863592823
0.005155604557614359 0.02012352389265848 0.1254108595002807
0.005485628962270063 0.0013594551568023262 0.014409829951746847
0.005312774690522743 0.004140533759398432 0.023650157052012632
0.006196413562335568 0.004911212178891138 0.03282644694471521
0.006457021259275767 0.004725428498277225 0.04175286190982611
0.006414690581931144 0.005525877276207266 0.0500868524813797
0.006371643086760199 0.006671801983974995 0.05794140132345197
0.006301402129423808 0.007926333166494933 0.06535827491188026
0.00614279921665101 0.009295470779948453 0.07233641529250665
0.005916795403470228 0.010733077696711741 0.07888395768574367
0.005647913503504593 0.012177666835517902 0.08501174392298366
0.005381266505789829 0.01360170290157058 0.09072462921962099
0.005171795853183163 0.014998674861613074 0.09602376164649108
0.005025757650311314 0.01635301818265845 0.10091188565070171
0.004932542381279714 0.017629789865381426 0.10539516262582073
0.00490346403705614 0.018779611162537565 0.10948229937726098
0.004914985140555201 0.019743050643924762 0.11318377526966915
0.0049224460918573685 0.02047345159505305 0.11650781714064105
0.004916956732429355 0.020959444884544952 0.11945642967478576
0.004910301924250248 0.02122134091398869 0.12202603160031421
0.004909940276999731 0.02130096723635337 0.12420924759110095

CELLS 40 140
4 0 21 22 1
4 1 22 23 2
4 2 23 24 3
4 3 24 25 4
4 4 25 26 5
4 5 26 27 6
4 6 27 28 7
4 7 28 29 8
4 8 29 30 9
4 9 30 31 10
4 10 31 32 11
4 11 32 33 12
4 12 33 34 13
4 13 34 35 14
4 14 35 36 15
4 15 36 37 16
4 16 37 38 17
4 17 38 39 18
4 18 39 40 19
4 19 40 41 20
1 42
1 43
1 44
1 45
1 46
1 47
1 48
1 49
1 50
1 51
1 52
1 53
1 54
1 55
1 56
1 57
1 58
1 59
1 60
1 61

CELL_TYPES 40
9
9
9
9
9
9
9
9
9
9
9
9
9
9
9
9
9
9
9
9
1
1
1
1
1
1
1
1
1
1
1
1
1
1
1
1
1
1
1
1

CELL_DATA 40

VECTORS S float
0.0 -0.0 0.0
-1.4622644073104998e-19 1.2425961841893999e-19 -6.9362400466637794e-18
-9.509598814338399e-19 1.2520353749371698e-18 -5.5488881712856557e-17
-7.8656328385697e-19 1.3601624894624699e-18 -5.548891048869428e-17
-1.36941256666285e-18 2.88095297450715e-18 -1.1097646806084277e-16
-1.2208447905427e-18 2.9659828691907497e-18 -1.1097596193633727e-16
0.0 -0.0 0.0
0.0 -0.0 0.0
0.0 -0.0 0.0
0.0 -0.0 0.0
0.0 -0.0 0.0
0.0 -0.0 0.0
3.1162412364842e-19 -1.3805706057148599e-18 5.5493106114433475e-17
-2.8588372543746e-19 1.34168821180786e-18 -5.5494198383771644e-17
0.0 -0.0 0.0
-2.4211708784924997e-19 1.2420351878192099e-18 -5.549672638027911e-17
0.0 -0.0 0.0
0.0 -0.0 0.0
-1.2749124061377e-19 5.52599455287e-19 -2.7749781216803818e-17
-1.2862668594428998e-19 5.3564929260026e-19 -2.775010833791274e-17
0.0 -0.0 0.0
-1.4622644073104998e-19 1.2425961841893999e-19 -6.9362400466637794e-18
-9.509598814338399e-19 1.2520353749371698e-18 -5.5488881712856557e-17
-7.8656328385697e-19 1.3601624894624699e-18 -5.548891048869428e-17
-1.36941256666285e-18 2.88095297450715e-18 -1.1097646806084277e-16
-1.2208447905427e-18 2.9659828691907497e-18 -1.1097596193633727e-16
0.0 -0.0 0.0
0.0 -0.0 0.0
0.0 -0.0 0.0
0.0 -0.0 0.0
0.0 -0.0 0.0
0.0 -0.0 0.0
3.1162412364842e-19 -1.3805706057148599e-18 5.5493106114433475e-17
-2.8588372543746e-19 1.34168821180786e-18 -5.5494198383771644e-17
0.0 -0.0 0.0
-2.4211708784924997e-19 1.2420351878192099e-18 -5.549672638027911e-17
0.0 -0.0 0.0
0.0 -0.0 0.0
-1.2749124061377e-19 5.52599455287e-19 -2.7749781216803818e-17
-1.2862668594428998e-19 5.3564929260026e-19 -2.775010833791274e-17

SCALARS Gamma float
LOOKUP_TABLE default
0.11338630579333436
0.0791227595116632
0.48802783554556683
0.645928876633955
0.7666632831426249
0.8119710842618939
0.82330973811572
0.8344084916341928
0.8228258944554758
0.7999630194092353
0.7613873581913781
0.7189826833758248
0.6784273187723483
0.6241515837669611
0.583428172299948
0.5436231525553158
0.4322841087523892
0.3352485322423839
0.24031891764986354
0.18234433986486093
0.11338630579333436
0.0791227595116632
0.48802783554556683
0.645928876633955
0.7666632831426249
0.8119710842618939
0.82330973811572
0.8344084916341928
0.8228258944554758
0.7999630194092353
0.7613873581913781
0.7189826833758248
0.6784273187723483
0.6241515837669611
0.583428172299948
0.5436231525553158
0.4322841087523892
0.3352485322423839
0.24031891764986354
0.18234433986486093

VECTORS Ftot float
-1.8756377962650905 -2.787239970362488 3.86807248781491e-15
-1.9090671156492685 -2.2465551801140102 3.1177216088168157e-15
-17.7023966385333 -13.445521864203064 1.8659409939673722e-14
-30.39623215772545 -17.57772352059681 2.439399171632682e-14
-43.7370855317826 -20.78968837270724 2.8851488382701424e-14
-53.900665393947726 -22.186354222247083 3.078975161253488e-14
-61.9277474570386 -22.715217075299794 3.1523696257944956e-14
-69.77401440813632 -23.145871040800007 3.212134869312553e-14
-75.4181811756205 -22.64403228858359 3.1424907521425756e-14
-79.35373712401963 -21.824978937546557 3.0288242660528644e-14
-80.88069785226492 -20.623152805442235 2.862037385620565e-14
-81.08970266577815 -19.279052746041952 2.6755060314522882e-14
-80.59341603871857 -18.191646657501142 2.524598121875342e-14
-77.62902265382631 -16.54100707081578 2.2955258625633656e-14
-75.50942638270602 -15.439443736662573 2.1426532404809e-14
-72.86221158109417 -14.203451444273815 1.9711248528222488e-14
-59.55715540436537 -12.148987906973225 1.686010762526758e-14
-47.27471974938513 -10.157734954412037 1.4096689030534801e-14
-34.53029934849837 -7.966549117241398 1.1055807820960607e-14
-26.62507626076161 -6.393540269250604 8.872819519737547e-15
-1.8756377962650905 -2.787239970362488 3.86807248781491e-15
-1.9090671156492685 -2.2465551801140102 3.1177216088168157e-15
-17.7023966385333 -13.445521864203064 1.8659409939673722e-14
-30.39623215772545 -17.57772352059681 2.439399171632682e-14
-43.7370855317826 -20.78968837270724 2.8851488382701424e-14
-53.900665393947726 -22.186354222247083 3.078975161253488e-14
-61.9277474570386 -22.715217075299794 3.1523696257944956e-14
-69.77401440813632 -23.145871040800007 3.212134869312553e-14
-75.4181811756205 -22.64403228858359 3.1424907521425756e-14
-79.35373712401963 -21.824978937546557 3.0288242660528644e-14
-80.88069785226492 -20.623152805442235 2.862037385620565e-14
-81.08970266577815 -19.279052746041952 2.6755060314522882e-14
-80.59341603871857 -18.191646657501142 2.524598121875342e-14
-77.62902265382631 -16.54100707081578 2.2955258625633656e-14
-75.50942638270602 -15.439443736662573 2.1426532404809e-14
-72.86221158109417 -14.203451444273815 1.9711248528222488e-14
-59.55715540436537 -12.148987906973225 1.686010762526758e-14
-47.27471974938513 -10.157734954412037 1.4096689030534801e-14
-34.53029934849837 -7.966549117241398 1.1055807820960607e-14
-26.62507626076161 -6.393540269250604 8.872819519737547e-15

VECTORS D float
-0.0219836422826418 0.014544170730036558 0.0006655374705108532
0.2522658730698299 -0.27686377111302124 -0.010278036343874085
0.7683029955541978 -1.1547377364048519 -0.039222232510895495
0.5774336564063086 -1.084470472385447 -0.03476810327450733
0.4513904579559393 -1.008390046513765 -0.031747848270249235
0.4230333346755806 -1.0893427102671074 -0.033767942127362734
0.4381908634878754 -1.2746737489260407 -0.03890213280733661
0.4520033112210171 -1.4641017960232585 -0.043871963987847186
0.4034891936783104 -1.4430976760776066 -0.04236542611209976
0.37732387915605503 -1.4787098163041448 -0.04236328363978604
0.3710336087456923 -1.5834872378511011 -0.04409419937970014
0.3588531510094153 -1.6588999818873036 -0.04472360995282177
0.3882761155635698 -1.9342442445655688 -0.050300967958260875
0.362388085825942 -1.9352290059708122 -0.04865508249740455
0.36913652931518454 -2.099935967696674 -0.05062403236919586
0.3395692655631501 -2.044532649770742 -0.04723876859686923
0.4221827575947748 -2.6724762511558864 -0.05924491579824717
0.4444332311504721 -2.938074952076756 -0.06264877068693853
0.4184252220816969 -2.869919828551471 -0.059072958876141966
0.36425403025800535 -2.5757030136914274 -0.05140615195498779
-0.0219836422826418 0.014544170730036558 0.0006655374705108532
0.2522658730698299 -0.27686377111302124 -0.010278036343874085
0.7683029955541978 -1.1547377364048519 -0.039222232510895495
0.5774336564063086 -1.084470472385447 -0.03476810327450733
0.4513904579559393 -1.008390046513765 -0.031747848270249235
0.4230333346755806 -1.0893427102671074 -0.033767942127362734
0.4381908634878754 -1.2746737489260407 -0.03890213280733661
0.4520033112210171 -1.4641017960232585 -0.043871963987847186
0.4034891936783104 -1.4430976760776066 -0.04236542611209976
0.37732387915605503 -1.4787098163041448 -0.04236328363978604
0.3710336087456923 -1.5834872378511011 -0.04409419937970014
0.3588531510094153 -1.6588999818873036 -0.04472360995282177
0.3882761155635698 -1.9342442445655688 -0.050300967958260875
0.362388085825942 -1.9352290059708122 -0.04865508249740455
0.36913652931518454 -2.099935967696674 -0.05062403236919586
0.3395692655631501 -2.044532649770742 -0.04723876859686923
0.4221827575947748 -2.6724762511558864 -0.05924491579824717
0.4444332311504721 -2.938074952076756 -0.06264877068693853
0.4184252220816969 -2.869919828551471 -0.059072958876141966
0.36425403025800535 -2.5757030136914274 -0.05140615195498779

VECTORS L float
-1.8536541539824487 -2.8017841410925253 -0.0006655374705069868
-2.1613329887190984 -1.969691409000989 0.010278036343877197
-18.470699634087495 -12.290784127798213 0.03922223251091421
-30.973665814131753 -16.49325304821136 0.03476810327453179
-44.18847598973854 -19.781298326193475 0.031747848270278135
-54.323698728623306 -21.097011511979975 0.03376794212739366
-62.36593832052648 -21.440543326373753 0.0389021328073682
-70.22601771935733 -21.681769244776753 0.04387196398787927
-75.82167036929881 -21.200934612505982 0.04236542611213122
-79.7310610031757 -20.34626912124242 0.04236328363981638
-81.2517314610106 -19.039665567591133 0.04409419937972875
-81.44855581678758 -17.620152764154657 0.0447236099528485
-80.98169215428216 -16.257402412935576 0.05030096795828608
-77.99141073965227 -14.605778064844975 0.048655082497427476
-75.87856291202122 -13.339507768965905 0.05062403236921726
-73.20178084665734 -12.158918794503078 0.04723876859688906
-59.97933816196016 -9.476511655817346 0.059244915798264026
-47.71915298053561 -7.219660002335282 0.06264877068695263
-34.94872457058006 -5.096629288689928 0.059072958876152985
-26.989330291019616 -3.8178372555591764 0.051406151954996704
-1.8536541539824487 -2.8017841410925253 -0.0006655374705069868
-2.1613329887190984 -1.969691409000989 0.010278036343877197
-18.470699634087495 -12.290784127798213 0.03922223251091421
-30.973665814131753 -16.49325304821136 0.03476810327453179
-44.18847598973854 -19.781298326193475 0.031747848270278135
-54.323698728623306 -21.097011511979975 0.03376794212739366
-62.36593832052648 -21.440543326373753 0.0389021328073682
-70.22601771935733 -21.681769244776753 0.04387196398787927
-75.82167036929881 -21.200934612505982 0.04236542611213122
-79.7310610031757 -20.34626912124242 0.04236328363981638
-81.2517314610106 -19.039665567591133 0.04409419937972875
-81.44855581678758 -17.620152764154657 0.0447236099528485
-80.98169215428216 -16.257402412935576 0.05030096795828608
-77.99141073965227 -14.605778064844975 0.048655082497427476
-75.87856291202122 -13.339507768965905 0.05062403236921726
-73.20178084665734 -12.158918794503078 0.04723876859688906
-59.97933816196016 -9.476511655817346 0.059244915798264026
-47.71915298053561 -7.219660002335282 0.06264877068695263
-34.94872457058006 -5.096629288689928 0.059072958876152985
-26.989330291019616 -3.8178372555591764 0.051406151954996704

SCALARS mu float
LOOKUP_TABLE default
-0.04974999948407464
0.5367271014077226
1.298124891021163
0.8565830456158404
0.6554066280502151
0.6309512278638898
0.6873176124959819
0.7577648039856125
0.7374538080507366
0.7659910665075388
0.8499111843956546
0.9369948905358385
1.1583594389675418
1.2313662544831245
1.4238465989644808
1.4900607002096868
2.1280868227640837
2.6190412002375356
2.9539482832650448
3.17097801420431
-0.04974999948407464
0.5367271014077226
1.298124891021163
0.8565830456158404
0.6554066280502151
0.6309512278638898
0.6873176124959819
0.7577648039856125
0.7374538080507366
0.7659910665075388
0.8499111843956546
0.9369948905358385
1.1583594389675418
1.2313662544831245
1.4238465989644808
1.4900607002096868
2.1280868227640837
2.6190412002375356
2.9539482832650448
3.17097801420431