# vtk DataFile Version 4.0
[MyVLM domain - lattices] 
ASCII
DATASET UNSTRUCTURED_GRID
POINTS 62 float
0.00022673658128986117 0.007725398534369536 -0.011082567373295101
-0.003724999406033424 0.017257822186067428 -0.013393870731249641
-0.00549739299719125 0.026304819801383737 -0.016084588709968498
-0.005451904080891177 0.034871646182070934 -0.01912491984780703
-0.004354059046121628 0.04310847420236988 -0.021663191453283506
-0.0029556321221654493 0.05109821489099624 -0.023229191716596802
-0.0016722727371407085 0.058791035261948975 -0.024105537545272088
-0.0006485493516483927 0.06610404270632854 -0.02476233628514181
0.0001374053121431227 0.07302345193711288 -0.025277768183872465
0.0007511984436382017 0.07955482391599229 -0.025620295460530233
0.0012455433643025467 0.08569124927057932 -0.025829103113121085
0.0016598526811940704 0.09141862947971562 -0.025984147828373987
0.002022453218220871 0.09672105404369774 -0.026175662533997807
0.002352563731918074 0.10158895385268236 -0.026457916348677123
0.002662053738196183 0.10603167010821275 -0.026777932685926265
0.002957000443680671 0.1100696238946932 -0.02701989782102615
0.0032390594424296184 0.11372256628613629 -0.02707179784701139
0.0035066635059833096 0.11700281493464765 -0.026863775887435104
0.0037560624618667195 0.11991246819915012 -0.026383931557486775
0.003982215822832984 0.12244353177964272 -0.025677602785422915
0.004179548496302947 0.12458001454054056 -0.024835479807760776
0.008285994416043337 0.010381247916619762 0.003979502943903373
0.007508437091591354 0.019717225047893215 0.0005540960061385593
0.00973309288421085 0.028828979761657363 -0.001769366217461861
0.010440442308044806 0.03831605676309917 0.00040930325967706606
0.01004693542569484 0.04703153486829126 0.000585591178613518
0.0094954698488839 0.055131175384267164 -0.0003571361918731832
0.009038213335578684 0.06274947809395785 -0.001656092678104298
0.008539133039147835 0.06990756234829865 -0.0031915044890780744
0.008012046218423283 0.07661371355057382 -0.004916382767780291
0.007469873605570215 0.08288408166037627 -0.006739136541984092
0.0069256484677951155 0.08873187773872514 -0.008584842161513909
0.0064559301991455546 0.09416384059683486 -0.01041528192884336
0.006108090109537901 0.09918629595267274 -0.012194580914668362
0.005835591307912621 0.10380872981707434 -0.013868941278196696
0.005646315885461864 0.1080381625314853 -0.015398548684620204
0.005556570152728891 0.11188087114024482 -0.016747804246496745
0.005484703593381549 0.11534513285193264 -0.01786976558129106
0.005393245002100456 0.11843391911618517 -0.01874758076070254
0.005297730961761147 0.12114479897198063 -0.019395036449777702
0.00521698140800628 0.12347261863592943 -0.019841361206556593
0.005155604557614359 0.12541085950028188 -0.020123523892658864
0.005485628962270063 0.014409829951746988 -0.0013594551568023687
0.005312774690522743 0.02365015705201286 -0.004140533759398506
0.006196413562335568 0.03282644694471553 -0.0049112121788912385
0.006457021259275767 0.041752861909826515 -0.00472542849827735
0.006414690581931144 0.05008685248138018 -0.005525877276207416
0.006371643086760199 0.05794140132345253 -0.006671801983975168
0.006301402129423808 0.06535827491188088 -0.00792633316649513
0.00614279921665101 0.07233641529250734 -0.00929547077994867
0.005916795403470228 0.07888395768574442 -0.01073307769671198
0.005647913503504593 0.08501174392298448 -0.012177666835518162
0.005381266505789829 0.09072462921962186 -0.01360170290157086
0.005171795853183163 0.09602376164649203 -0.014998674861613373
0.005025757650311314 0.10091188565070268 -0.016353018182658764
0.004932542381279714 0.10539516262582174 -0.017629789865381756
0.00490346403705614 0.10948229937726205 -0.01877961116253791
0.004914985140555201 0.11318377526967022 -0.019743050643925116
0.0049224460918573685 0.11650781714064218 -0.020473451595053413
0.004916956732429355 0.1194564296747869 -0.020959444884545327
0.004910301924250248 0.12202603160031537 -0.02122134091398907
0.004909940276999731 0.12420924759110218 -0.02130096723635376

CELLS 40 140
4 0 21 22 1
4 1 22 23 2
4 2 23 24 3
4 3 24 25 4
4 4 25 26 5
4 5 26 27 6
4 6 27 28 7
4 7 28 29 8
4 8 29 30 9
4 9 30 31 10
4 10 31 32 11
4 11 32 33 12
4 12 33 34 13
4 13 34 35 14
4 14 35 36 15
4 15 36 37 16
4 16 37 38 17
4 17 38 39 18
4 18 39 40 19
4 19 40 41 20
1 42
1 43
1 44
1 45
1 46
1 47
1 48
1 49
1 50
1 51
1 52
1 53
1 54
1 55
1 56
1 57
1 58
1 59
1 60
1 61

CELL_TYPES 40
9
9
9
9
9
9
9
9
9
9
9
9
9
9
9
9
9
9
9
9
1
1
1
1
1
1
1
1
1
1
1
1
1
1
1
1
1
1
1
1

CELL_DATA 40

VECTORS S float
4.5963541299249996e-20 2.2629888150146197e-18 3.1093662519479995e-20
-2.470758457558e-20 -1.2294436778611599e-18 -2.132716792111e-20
-4.1136914164948996e-19 -2.5143622982216418e-17 -5.428862946491e-19
1.1433784264930899e-18 8.346236482267762e-17 1.9866080279165997e-18
6.0934251820903e-19 5.118845315767257e-17 1.28871421374587e-18
1.57214590078682e-18 1.483943857052181e-16 3.8388682903462696e-18
-5.128095214860799e-19 -5.365375207673843e-17 -1.40565381444196e-18
-7.895001404284e-19 -9.106374294136924e-17 -2.39292514150456e-18
-5.1722804602463e-19 -6.607134916174688e-17 -1.73215013334629e-18
2.1238701408228e-19 2.9924491965827626e-17 7.7679111782099e-19
2.4590405255287e-19 3.801387455242916e-17 9.7025113583834e-19
-4.3235065554323997e-19 -7.338731459112558e-17 -1.83056121801765e-18
7.797891845479999e-20 1.435371826764567e-17 3.4778261205389e-19
5.860831360060799e-19 1.1815021026467343e-16 2.76943841469381e-18
-2.3746700935556e-19 -5.1794042566763245e-17 -1.17012888880005e-18
-3.2326677884429996e-20 -7.68389732715953e-18 -1.6709957165582e-19
2.1617461991185999e-19 5.1110236816588425e-17 1.06726254915412e-18
8.456668809971e-20 1.971718878048325e-17 3.9609761525763e-19
6.484920029354999e-20 1.460068939433954e-17 2.8294050693987e-19
-6.004819133229e-20 -1.341084175925264e-17 -2.5199821871291997e-19
4.5963541299249996e-20 2.2629888150146197e-18 3.1093662519479995e-20
-2.470758457558e-20 -1.2294436778611599e-18 -2.132716792111e-20
-4.1136914164948996e-19 -2.5143622982216418e-17 -5.428862946491e-19
1.1433784264930899e-18 8.346236482267762e-17 1.9866080279165997e-18
6.0934251820903e-19 5.118845315767257e-17 1.28871421374587e-18
1.57214590078682e-18 1.483943857052181e-16 3.8388682903462696e-18
-5.128095214860799e-19 -5.365375207673843e-17 -1.40565381444196e-18
-7.895001404284e-19 -9.106374294136924e-17 -2.39292514150456e-18
-5.1722804602463e-19 -6.607134916174688e-17 -1.73215013334629e-18
2.1238701408228e-19 2.9924491965827626e-17 7.7679111782099e-19
2.4590405255287e-19 3.801387455242916e-17 9.7025113583834e-19
-4.3235065554323997e-19 -7.338731459112558e-17 -1.83056121801765e-18
7.797891845479999e-20 1.435371826764567e-17 3.4778261205389e-19
5.860831360060799e-19 1.1815021026467343e-16 2.76943841469381e-18
-2.3746700935556e-19 -5.1794042566763245e-17 -1.17012888880005e-18
-3.2326677884429996e-20 -7.68389732715953e-18 -1.6709957165582e-19
2.1617461991185999e-19 5.1110236816588425e-17 1.06726254915412e-18
8.456668809971e-20 1.971718878048325e-17 3.9609761525763e-19
6.484920029354999e-20 1.460068939433954e-17 2.8294050693987e-19
-6.004819133229e-20 -1.341084175925264e-17 -2.5199821871291997e-19

SCALARS Gamma float
LOOKUP_TABLE default
0.11990987677736897
0.08323401269460458
0.492344499064131
0.6529805801771961
0.7748708858006725
0.8199287403631216
0.8311856147626862
0.8420883303044282
0.8308975469898272
0.8077603154390213
0.7691304599817725
0.7261099878235177
0.6851477269535926
0.6304586176720378
0.5894237491063974
0.549094800728674
0.4363682130351971
0.33854908194451716
0.24342094114142734
0.1848029451978714
0.11990987677736897
0.08323401269460458
0.492344499064131
0.6529805801771961
0.7748708858006725
0.8199287403631216
0.8311856147626862
0.8420883303044282
0.8308975469898272
0.8077603154390213
0.7691304599817725
0.7261099878235177
0.6851477269535926
0.6304586176720378
0.5894237491063974
0.549094800728674
0.4363682130351971
0.33854908194451716
0.24342094114142734
0.1848029451978714

VECTORS Ftot float
-1.9879778047834804 5.138589445965786e-15 2.93868565257923
-2.024475663984569 4.101100864807444e-15 2.3453608033721385
-17.876919643678335 2.3686795390366274e-14 13.546138780146608
-30.76262661886581 3.095936252453116e-14 17.705215686235736
-44.257537795570116 3.659172651085824e-14 20.926283921161144
-54.490838950509456 3.902149625050709e-14 22.31583440929811
-62.59352771425806 3.99298723134605e-14 22.8353216599177
-70.49470842640682 4.0669647239393794e-14 23.258388336841026
-76.23581473615175 3.980580106544118e-14 22.76436709149266
-80.20682420241278 3.8346507612400994e-14 21.929818081799198
-81.78281794281538 3.624385505167734e-14 20.727341219708453
-81.9748015555685 3.385501624394067e-14 19.361198544867683
-81.47363843850312 3.194311328801253e-14 18.26780864773924
-78.49741540808948 2.904782761469506e-14 16.612036269392107
-76.36852800370477 2.7100343076132055e-14 15.498297775146757
-73.6754195766286 2.492293270790312e-14 14.253067994449808
-60.18612009622622 2.1316729259427485e-14 12.190731930097169
-47.79356030212738 1.7842564138195167e-14 10.20390669258537
-35.01703659195429 1.4033941939246243e-14 8.025810246111549
-27.01760082557082 1.1257450052660422e-14 6.437974331721062
-1.9879778047834804 5.138589445965786e-15 2.93868565257923
-2.024475663984569 4.101100864807444e-15 2.3453608033721385
-17.876919643678335 2.3686795390366274e-14 13.546138780146608
-30.76262661886581 3.095936252453116e-14 17.705215686235736
-44.257537795570116 3.659172651085824e-14 20.926283921161144
-54.490838950509456 3.902149625050709e-14 22.31583440929811
-62.59352771425806 3.99298723134605e-14 22.8353216599177
-70.49470842640682 4.0669647239393794e-14 23.258388336841026
-76.23581473615175 3.980580106544118e-14 22.76436709149266
-80.20682420241278 3.8346507612400994e-14 21.929818081799198
-81.78281794281538 3.624385505167734e-14 20.727341219708453
-81.9748015555685 3.385501624394067e-14 19.361198544867683
-81.47363843850312 3.194311328801253e-14 18.26780864773924
-78.49741540808948 2.904782761469506e-14 16.612036269392107
-76.36852800370477 2.7100343076132055e-14 15.498297775146757
-73.6754195766286 2.492293270790312e-14 14.253067994449808
-60.18612009622622 2.1316729259427485e-14 12.190731930097169
-47.79356030212738 1.7842564138195167e-14 10.20390669258537
-35.01703659195429 1.4033941939246243e-14 8.025810246111549
-27.01760082557082 1.1257450052660422e-14 6.437974331721062

VECTORS D float
-0.021033419499269953 0.0006197263079439568 -0.014011320060970231
0.253530202171003 -0.009945846095113325 0.27963106550642686
0.7834382108905033 -0.038350861121591466 1.1825630800831948
0.5842751663424809 -0.03426463839716214 1.1032675290192857
0.45257946010726785 -0.030975470902263314 1.0163700527510444
0.42389685088548623 -0.03287244626935601 1.0971094749158272
0.43532502692397224 -0.03749943595840947 1.2725370946987784
0.44905523240126777 -0.042301997501529784 1.4616625470973528
0.4014865824760566 -0.04097817678152425 1.443190897520732
0.374534716315224 -0.040962340919046 1.4755973715050714
0.3692937139412116 -0.04284304944900998 1.5849705602550013
0.35612504221180813 -0.04340844144483343 1.656135846715823
0.3863171603391564 -0.04902027695132991 1.9365506700870312
0.36045931926713054 -0.047194492302502764 1.9371364360993215
0.36641184696679463 -0.04908821358135349 2.0984579748179604
0.3375763075208541 -0.04593857655255588 2.047130232838837
0.42137482134087856 -0.05790727565856053 2.687777279116783
0.4448154373147738 -0.06146023067938947 2.9644369398298887
0.41949099084524194 -0.05809439910081612 2.901721745022665
0.364275449830516 -0.050461832841673576 2.5986754055530885
-0.021033419499269953 0.0006197263079439568 -0.014011320060970231
0.253530202171003 -0.009945846095113325 0.27963106550642686
0.7834382108905033 -0.038350861121591466 1.1825630800831948
0.5842751663424809 -0.03426463839716214 1.1032675290192857
0.45257946010726785 -0.030975470902263314 1.0163700527510444
0.42389685088548623 -0.03287244626935601 1.0971094749158272
0.43532502692397224 -0.03749943595840947 1.2725370946987784
0.44905523240126777 -0.042301997501529784 1.4616625470973528
0.4014865824760566 -0.04097817678152425 1.443190897520732
0.374534716315224 -0.040962340919046 1.4755973715050714
0.3692937139412116 -0.04284304944900998 1.5849705602550013
0.35612504221180813 -0.04340844144483343 1.656135846715823
0.3863171603391564 -0.04902027695132991 1.9365506700870312
0.36045931926713054 -0.047194492302502764 1.9371364360993215
0.36641184696679463 -0.04908821358135349 2.0984579748179604
0.3375763075208541 -0.04593857655255588 2.047130232838837
0.42137482134087856 -0.05790727565856053 2.687777279116783
0.4448154373147738 -0.06146023067938947 2.9644369398298887
0.41949099084524194 -0.05809439910081612 2.901721745022665
0.364275449830516 -0.050461832841673576 2.5986754055530885

VECTORS L float
-1.966944385284211 -0.0006197263079388192 2.952696972640201
-2.2780058661555715 0.009945846095117429 2.065729737865712
-18.660357854568844 0.03835086112161524 12.363575700063416
-31.346901785208285 0.03426463839719305 16.601948157216448
-44.710117255677396 0.030975470902299795 19.9099138684101
-54.91473580139495 0.03287244626939504 21.21872493438228
-63.02885274118204 0.037499435958449436 21.562784565218923
-70.94376365880811 0.04230199750157052 21.79672578974368
-76.6373013186278 0.040978176781564145 21.321176193971926
-80.58135891872801 0.040962340919084315 20.45422071029413
-82.1521116567566 0.0428430494490462 19.142370659453455
-82.33092659778033 0.043408441444867295 17.705062698151863
-81.85995559884226 0.049020276951361796 16.331257977652207
-78.85787472735663 0.04719449230253171 14.674899833292786
-76.7349398506716 0.0490882135813806 13.399839800328802
-74.01299588414948 0.04593857655258083 12.205937761610974
-60.6074949175671 0.05790727565858181 9.502954650980385
-48.23837573944216 0.06146023067940727 7.239469752755484
-35.436527582799535 0.05809439910083016 5.124088501088885
-27.381876275401343 0.05046183284168483 3.8392989261679764
-1.966944385284211 -0.0006197263079388192 2.952696972640201
-2.2780058661555715 0.009945846095117429 2.065729737865712
-18.660357854568844 0.03835086112161524 12.363575700063416
-31.346901785208285 0.03426463839719305 16.601948157216448
-44.710117255677396 0.030975470902299795 19.9099138684101
-54.91473580139495 0.03287244626939504 21.21872493438228
-63.02885274118204 0.037499435958449436 21.562784565218923
-70.94376365880811 0.04230199750157052 21.79672578974368
-76.6373013186278 0.040978176781564145 21.321176193971926
-80.58135891872801 0.040962340919084315 20.45422071029413
-82.1521116567566 0.0428430494490462 19.142370659453455
-82.33092659778033 0.043408441444867295 17.705062698151863
-81.85995559884226 0.049020276951361796 16.331257977652207
-78.85787472735663 0.04719449230253171 14.674899833292786
-76.7349398506716 0.0490882135813806 13.399839800328802
-74.01299588414948 0.04593857655258083 12.205937761610974
-60.6074949175671 0.05790727565858181 9.502954650980385
-48.23837573944216 0.06146023067940727 7.239469752755484
-35.436527582799535 0.05809439910083016 5.124088501088885
-27.381876275401343 0.05046183284168483 3.8392989261679764

SCALARS mu float
LOOKUP_TABLE default
-0.047763698354978276
0.5410260908182645
1.3274451457557785
0.870414057646056
0.6598425474758124
0.6347373426622368
0.6854058310030098
0.7557002988560241
0.7367727257276293
0.7636495035319317
0.8499048158803458
0.93454684313636
1.158624016406301
1.2313098182334437
1.4213776573473618
1.4904101687285216
2.138043605632424
2.63977019563043
2.9835238980844188
3.1958482340342678
-0.047763698354978276
0.5410260908182645
1.3274451457557785
0.870414057646056
0.6598425474758124
0.6347373426622368
0.6854058310030098
0.7557002988560241
0.7367727257276293
0.7636495035319317
0.8499048158803458
0.93454684313636
1.158624016406301
1.2313098182334437
1.4213776573473618
1.4904101687285216
2.138043605632424
2.63977019563043
2.9835238980844188
3.1958482340342678