# vtk DataFile Version 4.0
[MyVLM domain - lattices] 
ASCII
DATASET UNSTRUCTURED_GRID
POINTS 62 float
0.00022673658128986117 0.007771964866075055 0.011049961276807964
-0.003724999406033424 0.006683598672347926 0.020798021746270122
-0.00549739299719125 0.0061177910805085495 0.03021969839438082
-0.005451904080891177 0.006044740628912288 0.03930973641938755
-0.004354059046121628 0.00561277462607741 0.0479179629470495
-0.0029556321221654493 0.004351681262202792 0.05596146694865097
-0.0016722727371407085 0.0025440774448136066 0.06349008141019302
-0.0006485493516483927 0.0006600705197422983 0.07058669894057519
0.0001374053121431227 -0.0012221592653446373 0.07726510482681953
0.0007511984436382017 -0.0031341496913810246 0.08351973810723573
0.0012455433643025467 -0.0050367157603608895 0.08935750815421126
0.0016598526811940704 -0.00684990078555526 0.0947925134889045
0.002022453218220871 -0.00848347183925528 0.09984066461101881
0.002352563731918074 -0.009883159802776367 0.10451153063039757
0.002662053738196183 -0.011101941262604187 0.10879577034549755
0.002957000443680671 -0.012255629943457818 0.11267296267191436
0.0032390594424296184 -0.013456239752302663 0.11612335653563549
0.0035066635059833096 -0.014773627565585591 0.11913463428455533
0.0037560624618667195 -0.016219693768117122 0.12170469755975098
0.003982215822832984 -0.01774910043164076 0.12384154066122348
0.004179548496302947 -0.019271157319639222 0.12556115472455762
0.008285994416043337 -0.007290105451123349 0.00839411189455781
0.007508437091591354 -0.0072643680650402095 0.018338618884444404
0.00973309288421085 -0.008197431411998019 0.027695538434107263
0.010440442308044806 -0.013489482478571716 0.03586532583835941
0.01004693542569484 -0.016636008005819512 0.04399490228112823
0.0094954698488839 -0.01852037426252072 0.051928506455380156
0.009038213335578684 -0.019905367422354076 0.05953163857818425
0.008539133039147835 -0.020910761276321334 0.06678317929860518
0.008012046218423283 -0.021583544681436716 0.07367484321335868
0.007469873605570215 -0.02201530860992708 0.08019048036285184
0.0069256484677951155 -0.022280976711967982 0.08631687968606554
0.0064559301991455546 -0.022418766685085814 0.09204730237178532
0.006108090109537901 -0.022464553458584658 0.09737542270204388
0.005835591307912621 -0.02247213487325673 0.10229175466600565
0.005646315885461864 -0.022481325263910192 0.10678927792222505
0.005556570152728891 -0.022527723517987173 0.11086171542636279
0.005484703593381549 -0.02265827201802295 0.11450078996983919
0.005393245002100456 -0.022889822692318124 0.11770353010301786
0.005297730961761147 -0.023208588875826167 0.12047236678692048
0.00521698140800628 -0.023585342010507056 0.1228124538049368
0.005155604557614359 -0.02398311323474111 0.12473030976481632
0.005485628962270063 -0.003650982126258461 0.01400577192001059
0.005312774690522743 -0.004198001084782275 0.02364002401203824
0.006196413562335568 -0.006612276245286045 0.032526503453896044
0.006457021259275767 -0.009839869524772997 0.0408510479656125
0.006414690581931144 -0.01193808636459256 0.0489562070131532
0.006371643086760199 -0.013547683293450997 0.056728997932442154
0.006301402129423808 -0.014905529766433792 0.06412765424764208
0.00614279921665101 -0.016005625827359562 0.07115323391291078
0.005916795403470228 -0.016894108603852133 0.07779760170783585
0.005647913503504593 -0.017632465177178386 0.08404991580102489
0.005381266505789829 -0.018248230842134693 0.08990532097708355
0.005171795853183163 -0.018747916631977744 0.09536266916517636
0.005025757650311314 -0.019147087079694477 0.10041921591819562
0.004932542381279714 -0.019480685184610165 0.10506879984257339
0.00490346403705614 -0.019798089693969262 0.10930271413289692
0.004914985140555201 -0.020158732037973855 0.11311047942451948
0.0049224460918573685 -0.020609268931113936 0.11648386887984526
0.004916956732429355 -0.021161069504766948 0.11942087781426516
0.004910301924250248 -0.021793823357344692 0.12192508749956829
0.004909940276999731 -0.02246570293587806 0.12400387326188007

CELLS 40 140
4 0 21 22 1
4 1 22 23 2
4 2 23 24 3
4 3 24 25 4
4 4 25 26 5
4 5 26 27 6
4 6 27 28 7
4 7 28 29 8
4 8 29 30 9
4 9 30 31 10
4 10 31 32 11
4 11 32 33 12
4 12 33 34 13
4 13 34 35 14
4 14 35 36 15
4 15 36 37 16
4 16 37 38 17
4 17 38 39 18
4 18 39 40 19
4 19 40 41 20
1 42
1 43
1 44
1 45
1 46
1 47
1 48
1 49
1 50
1 51
1 52
1 53
1 54
1 55
1 56
1 57
1 58
1 59
1 60
1 61

CELL_TYPES 40
9
9
9
9
9
9
9
9
9
9
9
9
9
9
9
9
9
9
9
9
1
1
1
1
1
1
1
1
1
1
1
1
1
1
1
1
1
1
1
1

CELL_DATA 40

VECTORS S float
0.0 -0.0 0.0
2.1696606693507e-18 -3.9699043977691237e-17 1.0365920182943489e-16
0.0 -0.0 0.0
1.1921392843420799e-17 -3.230388229575186e-16 8.272633827723222e-16
1.053651621899884e-17 -3.24495413276465e-16 8.267119291564112e-16
-9.46904775057108e-18 3.2528078184834285e-16 -8.264161514127371e-16
2.5780557154283817e-17 -9.77045727947042e-16 2.4788031699516513e-15
1.5640199719032318e-17 -6.517023807035405e-16 1.6524173238084057e-15
0.0 -0.0 0.0
0.0 -0.0 0.0
5.912706240162149e-18 -3.254449158605367e-16 8.263846270753452e-16
1.076141426989734e-17 -6.498564405047543e-16 1.6531831173773369e-15
0.0 -0.0 0.0
0.0 -0.0 0.0
4.1877155244780895e-18 -3.229108027751287e-16 8.273886521525537e-16
3.84391329260418e-18 -3.2220162184655855e-16 8.276667472063005e-16
-3.8637868888125996e-18 3.2148013585311237e-16 -8.27947159318609e-16
-1.95886887017694e-18 1.6041200780688837e-16 -4.1410068448309183e-16
0.0 -0.0 0.0
0.0 -0.0 0.0
0.0 -0.0 0.0
2.1696606693507e-18 -3.9699043977691237e-17 1.0365920182943489e-16
0.0 -0.0 0.0
1.1921392843420799e-17 -3.230388229575186e-16 8.272633827723222e-16
1.053651621899884e-17 -3.24495413276465e-16 8.267119291564112e-16
-9.46904775057108e-18 3.2528078184834285e-16 -8.264161514127371e-16
2.5780557154283817e-17 -9.77045727947042e-16 2.4788031699516513e-15
1.5640199719032318e-17 -6.517023807035405e-16 1.6524173238084057e-15
0.0 -0.0 0.0
0.0 -0.0 0.0
5.912706240162149e-18 -3.254449158605367e-16 8.263846270753452e-16
1.076141426989734e-17 -6.498564405047543e-16 1.6531831173773369e-15
0.0 -0.0 0.0
0.0 -0.0 0.0
4.1877155244780895e-18 -3.229108027751287e-16 8.273886521525537e-16
3.84391329260418e-18 -3.2220162184655855e-16 8.276667472063005e-16
-3.8637868888125996e-18 3.2148013585311237e-16 -8.27947159318609e-16
-1.95886887017694e-18 1.6041200780688837e-16 -4.1410068448309183e-16
0.0 -0.0 0.0
0.0 -0.0 0.0

SCALARS Gamma float
LOOKUP_TABLE default
0.11292243147531793
0.08024229012261352
0.4894735331998585
0.6452263496525628
0.7667379344692189
0.812331344819014
0.8239575084533302
0.8369577307029119
0.8258177830728969
0.8038409508353578
0.7608334405025863
0.7185525511179282
0.6778929838248307
0.6232784537334981
0.5824894580585739
0.5427454563556366
0.43164758008308846
0.3347582095981556
0.23986373191013097
0.18200017154320686
0.11292243147531793
0.08024229012261352
0.4894735331998585
0.6452263496525628
0.7667379344692189
0.812331344819014
0.8239575084533302
0.8369577307029119
0.8258177830728969
0.8038409508353578
0.7608334405025863
0.7185525511179282
0.6778929838248307
0.6232784537334981
0.5824894580585739
0.5427454563556366
0.43164758008308846
0.3347582095981556
0.23986373191013097
0.18200017154320686

VECTORS Ftot float
-1.8675848971480244 -2.6089097675368165 -0.9495654992697523
-1.941832770502455 -2.1384432793424004 -0.7783297013472342
-17.77423458850342 -12.678741838841121 -4.614684637283673
-30.32638355720466 -16.478565326624995 -5.997707282302579
-43.7202928498178 -19.522055420018688 -7.1054470845819395
-53.91522526366492 -20.846381928470592 -7.587462514108117
-61.974435302549296 -21.350064932383063 -7.770788135038043
-69.99767823874853 -21.77723317762566 -7.926264661330073
-75.69740221243315 -21.30948524857578 -7.756018338016259
-79.74188406135404 -20.54211616431051 -7.476718832647589
-80.81963120138936 -19.37372251583099 -7.051458322695358
-81.04146554085115 -18.11371201994681 -6.592852007330522
-80.53117596289253 -17.091713484909135 -6.220874961113146
-77.52449258883526 -15.539755762057545 -5.656008545155616
-75.38961645218833 -14.50477026866302 -5.27930463266269
-72.74434940972806 -13.343615983083003 -4.856679035320931
-59.46768558870375 -11.413187984094636 -4.1540607042951025
-47.20310485269903 -9.540621250100598 -3.4725021514442
-34.462242150495754 -7.4789860445095036 -2.7221283026937635
-26.5721949351303 -6.002837633807988 -2.1848542198390546
-1.8675848971480244 -2.6089097675368165 -0.9495654992697523
-1.941832770502455 -2.1384432793424004 -0.7783297013472342
-17.77423458850342 -12.678741838841121 -4.614684637283673
-30.32638355720466 -16.478565326624995 -5.997707282302579
-43.7202928498178 -19.522055420018688 -7.1054470845819395
-53.91522526366492 -20.846381928470592 -7.587462514108117
-61.974435302549296 -21.350064932383063 -7.770788135038043
-69.99767823874853 -21.77723317762566 -7.926264661330073
-75.69740221243315 -21.30948524857578 -7.756018338016259
-79.74188406135404 -20.54211616431051 -7.476718832647589
-80.81963120138936 -19.37372251583099 -7.051458322695358
-81.04146554085115 -18.11371201994681 -6.592852007330522
-80.53117596289253 -17.091713484909135 -6.220874961113146
-77.52449258883526 -15.539755762057545 -5.656008545155616
-75.38961645218833 -14.50477026866302 -5.27930463266269
-72.74434940972806 -13.343615983083003 -4.856679035320931
-59.46768558870375 -11.413187984094636 -4.1540607042951025
-47.20310485269903 -9.540621250100598 -3.4725021514442
-34.462242150495754 -7.4789860445095036 -2.7221283026937635
-26.5721949351303 -6.002837633807988 -2.1848542198390546

VECTORS D float
-0.02204146046235877 0.013478277101679195 0.005583630650378622
0.25301446995479737 -0.25799147668086014 -0.10410045931683341
0.7732174831417855 -1.0804658470074715 -0.4327342371463863
0.5761629605805721 -1.0056673080941456 -0.4010068079851163
0.45099319349440703 -0.9366108585333129 -0.37338015072781555
0.42290290417098336 -1.0125047011808948 -0.4033716040627189
0.4378021099218259 -1.1843578429530794 -0.4713801270303265
0.45074643015272386 -1.359722665749716 -0.5405318920872355
0.4023892629269486 -1.3409464065343397 -0.5322721024974718
0.3753990195312568 -1.3722803045669036 -0.5437123620076542
0.3712061561662951 -1.473060696609238 -0.582773361994667
0.35909475398155777 -1.5440721391915302 -0.6093030959965938
0.38854080156900866 -1.8007026911433233 -0.7086102609827358
0.3628736008355107 -1.8026309389311557 -0.7073191580439904
0.36979076280344025 -1.9572726250372885 -0.7657502329412621
0.34006744683526724 -1.905554545681535 -0.7433909323912742
0.42246225504139595 -2.489547759401189 -0.9686275832954934
0.44448553684231307 -2.736288208978993 -1.062070628960665
0.4183448671014752 -2.6727142067244842 -1.035223536918194
0.36431287805081386 -2.4001201267706262 -0.9280035588748261
-0.02204146046235877 0.013478277101679195 0.005583630650378622
0.25301446995479737 -0.25799147668086014 -0.10410045931683341
0.7732174831417855 -1.0804658470074715 -0.4327342371463863
0.5761629605805721 -1.0056673080941456 -0.4010068079851163
0.45099319349440703 -0.9366108585333129 -0.37338015072781555
0.42290290417098336 -1.0125047011808948 -0.4033716040627189
0.4378021099218259 -1.1843578429530794 -0.4713801270303265
0.45074643015272386 -1.359722665749716 -0.5405318920872355
0.4023892629269486 -1.3409464065343397 -0.5322721024974718
0.3753990195312568 -1.3722803045669036 -0.5437123620076542
0.3712061561662951 -1.473060696609238 -0.582773361994667
0.35909475398155777 -1.5440721391915302 -0.6093030959965938
0.38854080156900866 -1.8007026911433233 -0.7086102609827358
0.3628736008355107 -1.8026309389311557 -0.7073191580439904
0.36979076280344025 -1.9572726250372885 -0.7657502329412621
0.34006744683526724 -1.905554545681535 -0.7433909323912742
0.42246225504139595 -2.489547759401189 -0.9686275832954934
0.44448553684231307 -2.736288208978993 -1.062070628960665
0.4183448671014752 -2.6727142067244842 -1.035223536918194
0.36431287805081386 -2.4001201267706262 -0.9280035588748261

VECTORS L float
-1.845543436685666 -2.622388044638496 -0.9551491299201312
-2.1948472404572525 -1.8804518026615404 -0.6742292420304009
-18.54745207164521 -11.598275991833656 -4.181950400137289
-30.90254651778524 -15.47289801853085 -5.596700474317464
-44.171286043312215 -18.585444561485378 -6.732066933854125
-54.33812816783592 -19.8338772272897 -7.184090910045397
-62.41223741247112 -20.165707089429986 -7.2994080080077195
-70.44842466890125 -20.417510511875946 -7.385732769242839
-76.0997914753601 -19.968538842041443 -7.223746235518788
-80.1172830808853 -19.169835859743603 -6.933006470639934
-81.19083735755565 -17.900661819221753 -6.468684960700693
-81.40056029483272 -16.56963988075528 -5.98354891133393
-80.91971676446155 -15.29101079376581 -5.512264700130411
-77.88736618967077 -13.73712482312639 -4.948689387111625
-75.75940721499178 -12.547497643625732 -4.5135543997214285
-73.08441685656334 -11.438061437401473 -4.113288102929658
-59.890147843745154 -8.92364022469345 -3.1854331209996096
-47.64759038954134 -6.804333041121606 -2.410431522483535
-34.880587017597236 -4.806271837785018 -1.6869047657755694
-26.936507813181123 -3.602717507037361 -1.2568506609642283
-1.845543436685666 -2.622388044638496 -0.9551491299201312
-2.1948472404572525 -1.8804518026615404 -0.6742292420304009
-18.54745207164521 -11.598275991833656 -4.181950400137289
-30.90254651778524 -15.47289801853085 -5.596700474317464
-44.171286043312215 -18.585444561485378 -6.732066933854125
-54.33812816783592 -19.8338772272897 -7.184090910045397
-62.41223741247112 -20.165707089429986 -7.2994080080077195
-70.44842466890125 -20.417510511875946 -7.385732769242839
-76.0997914753601 -19.968538842041443 -7.223746235518788
-80.1172830808853 -19.169835859743603 -6.933006470639934
-81.19083735755565 -17.900661819221753 -6.468684960700693
-81.40056029483272 -16.56963988075528 -5.98354891133393
-80.91971676446155 -15.29101079376581 -5.512264700130411
-77.88736618967077 -13.73712482312639 -4.948689387111625
-75.75940721499178 -12.547497643625732 -4.5135543997214285
-73.08441685656334 -11.438061437401473 -4.113288102929658
-59.890147843745154 -8.92364022469345 -3.1854331209996096
-47.64759038954134 -6.804333041121606 -2.410431522483535
-34.880587017597236 -4.806271837785018 -1.6869047657755694
-26.936507813181123 -3.602717507037361 -1.2568506609642283

SCALARS mu float
LOOKUP_TABLE default
-0.04986738047460373
0.5382331033657952
1.3060892297692774
0.8557327956648502
0.6553213504331907
0.6310682137866119
0.6870387546258677
0.7568739963295074
0.7369117763135308
0.7643029735003595
0.8499525560548525
0.9372308743309047
1.1584572215305193
1.231656046451415
1.42458954399291
1.4902906311120652
2.126687164793636
2.615953463586435
2.949650253383445
3.1675801387139693
-0.04986738047460373
0.5382331033657952
1.3060892297692774
0.8557327956648502
0.6553213504331907
0.6310682137866119
0.6870387546258677
0.7568739963295074
0.7369117763135308
0.7643029735003595
0.8499525560548525
0.9372308743309047
1.1584572215305193
1.231656046451415
1.42458954399291
1.4902906311120652
2.126687164793636
2.615953463586435
2.949650253383445
3.1675801387139693