# vtk DataFile Version 4.0
[MyVLM domain - lattices] 
ASCII
DATASET UNSTRUCTURED_GRID
POINTS 62 float
0.00022673658128986117 -0.012255699649744935 -0.005683564743512479
-0.003724999406033424 -0.016187177112088107 -0.014669815844557062
-0.00549739299719125 -0.020408011687956418 -0.02311213096398317
-0.005451904080891177 -0.024889767153619444 -0.031020860040803587
-0.004354059046121628 -0.028819786885424154 -0.038691785896707326
-0.0029556321221654493 -0.03174939999656547 -0.046288211379473226
-0.0016722727371407085 -0.03394827640149972 -0.053711984667162094
-0.0006485493516483927 -0.03586498730867323 -0.060799839191950616
0.0001374053121431227 -0.037574131442150376 -0.06752462323876517
0.0007511984436382017 -0.039045615801618326 -0.07389728976397933
0.0012455433643025467 -0.040316830276991227 -0.0799042299606019
0.0016598526811940704 -0.04146406865075798 -0.08551767516274732
0.002022453218220871 -0.042573430180424005 -0.0907062878034912
0.002352563731918074 -0.04369669785633281 -0.09545122041570722
0.002662053738196183 -0.04478332200801041 -0.09977087157479986
0.002957000443680671 -0.04572279446554102 -0.10370546296526169
0.0032390594424296184 -0.04640823280290916 -0.10729389660872854
0.0035066635059833096 -0.04677298036443004 -0.11056043354378538
0.0037560624618667195 -0.04680568193508147 -0.11350920673070397
0.003982215822832984 -0.04654959846248906 -0.11612447047224249
0.004179548496302947 -0.04609126556314439 -0.11837472837979404
0.008285994416043337 0.0021163605696612776 -0.010914566868457758
0.007508437091591354 -0.002878182155456972 -0.01951389385676983
0.00973309288421085 -0.006748585368482765 -0.02808375556142395
0.010440442308044806 -0.006250428408831511 -0.0378050245303112
0.01004693542569484 -0.007590245589963102 -0.046418707015380346
0.0094954698488839 -0.009925138628751613 -0.054231592902203314
0.009038213335578684 -0.012527265429670273 -0.06150859504879779
0.008539133039147835 -0.015282339171536319 -0.06829131045624319
0.008012046218423283 -0.018145523608838525 -0.07459605818332189
0.007469873605570215 -0.021029423653074652 -0.08045464744086973
0.0069256484677951155 -0.023862547989338852 -0.08589309893952099
0.0064559301991455546 -0.026608429715091902 -0.09092468554633586
0.006108090109537901 -0.02923283737121382 -0.09556186649350948
0.005835591307912621 -0.031684437655492045 -0.09982332557507383
0.005646315885461864 -0.033925240171825126 -0.10372289016439781
0.005556570152728891 -0.03592127685717206 -0.10727292362534407
0.005484703593381549 -0.0376277558114533 -0.11048972887627774
0.005393245002100456 -0.039028597111839584 -0.11337915853047802
0.005297730961761147 -0.04013695584100552 -0.11593642452942195
0.00521698140800628 -0.04098072156442459 -0.11815137590143066
0.005155604557614359 -0.041595169559283225 -0.12001117349560274
0.005485628962270063 -0.003841042689902517 -0.013954845345469036
0.005312774690522743 -0.008184436421482966 -0.022571861882890197
0.006196413562335568 -0.010536852521689833 -0.031474916409999026
0.006457021259275767 -0.011903947004428431 -0.0402979800718232
0.006414690581931144 -0.014139417442266723 -0.04836636212861645
0.006371643086760199 -0.016631861071666358 -0.05590259498745483
0.006301402129423808 -0.019155259689224095 -0.06298894254677946
0.00614279921665101 -0.021715338386493515 -0.06962332104367637
0.005916795403470228 -0.02426807362868853 -0.07582175373441491
0.005647913503504593 -0.026754795125731253 -0.08160559485821917
0.005381266505789829 -0.029149229005130183 -0.08698440732261496
0.005171795853183163 -0.03144516251126239 -0.09196045238572181
0.005025757650311314 -0.033627744139609304 -0.09653913555311855
0.004932542381279714 -0.03566363166828684 -0.10073259240111525
0.00490346403705614 -0.03750570844506788 -0.10455797198866092
0.004914985140555201 -0.039097265659290774 -0.10803591463485694
0.0049224460918573685 -0.04039378399215224 -0.11118262404659764
0.004916956732429355 -0.04138441514475585 -0.11400204868177363
0.004910301924250248 -0.0420885390767326 -0.11648713481193802
0.004909940276999731 -0.04254606717459461 -0.1186233558803921

CELLS 40 140
4 0 21 22 1
4 1 22 23 2
4 2 23 24 3
4 3 24 25 4
4 4 25 26 5
4 5 26 27 6
4 6 27 28 7
4 7 28 29 8
4 8 29 30 9
4 9 30 31 10
4 10 31 32 11
4 11 32 33 12
4 12 33 34 13
4 13 34 35 14
4 14 35 36 15
4 15 36 37 16
4 16 37 38 17
4 17 38 39 18
4 18 39 40 19
4 19 40 41 20
1 42
1 43
1 44
1 45
1 46
1 47
1 48
1 49
1 50
1 51
1 52
1 53
1 54
1 55
1 56
1 57
1 58
1 59
1 60
1 61

CELL_TYPES 40
9
9
9
9
9
9
9
9
9
9
9
9
9
9
9
9
9
9
9
9
1
1
1
1
1
1
1
1
1
1
1
1
1
1
1
1
1
1
1
1

CELL_DATA 40

VECTORS S float
0.0 -0.0 -0.0
0.0 -0.0 -0.0
0.0 -0.0 -0.0
-6.2386072314779096e-18 6.646019842380905e-17 4.390436744909693e-16
5.4315095141627996e-18 -6.583445526058105e-17 -4.3914866447501927e-16
0.0 -0.0 -0.0
0.0 -0.0 -0.0
0.0 -0.0 -0.0
7.13919112406973e-18 -1.3074455394623677e-16 -8.78473561801666e-16
0.0 -0.0 -0.0
-5.92680442731368e-18 1.3129661410371103e-16 8.784002375541535e-16
2.70311889471255e-18 -6.590457738169455e-17 -4.391634162058974e-16
-2.49456346741456e-18 6.622572102509503e-17 4.3911633690067406e-16
2.27993475514486e-18 -6.658315013563535e-17 -4.3906344908313724e-16
2.1096893167744898e-18 -6.696775894372515e-17 -4.390058026704144e-16
0.0 -0.0 -0.0
0.0 -0.0 -0.0
-9.7563219686372e-19 3.409590366325412e-17 2.1940903370535082e-16
0.0 -0.0 -0.0
0.0 -0.0 -0.0
0.0 -0.0 -0.0
0.0 -0.0 -0.0
0.0 -0.0 -0.0
-6.2386072314779096e-18 6.646019842380905e-17 4.390436744909693e-16
5.4315095141627996e-18 -6.583445526058105e-17 -4.3914866447501927e-16
0.0 -0.0 -0.0
0.0 -0.0 -0.0
0.0 -0.0 -0.0
7.13919112406973e-18 -1.3074455394623677e-16 -8.78473561801666e-16
0.0 -0.0 -0.0
-5.92680442731368e-18 1.3129661410371103e-16 8.784002375541535e-16
2.70311889471255e-18 -6.590457738169455e-17 -4.391634162058974e-16
-2.49456346741456e-18 6.622572102509503e-17 4.3911633690067406e-16
2.27993475514486e-18 -6.658315013563535e-17 -4.3906344908313724e-16
2.1096893167744898e-18 -6.696775894372515e-17 -4.390058026704144e-16
0.0 -0.0 -0.0
0.0 -0.0 -0.0
-9.7563219686372e-19 3.409590366325412e-17 2.1940903370535082e-16
0.0 -0.0 -0.0
0.0 -0.0 -0.0

SCALARS Gamma float
LOOKUP_TABLE default
0.11592854564049285
0.07937974897426348
0.48752888631341856
0.6460487902664106
0.7662716802737252
0.8110278189668395
0.8230107098724816
0.835458772029295
0.8230281262461724
0.7994900930404669
0.7603658871811749
0.7175211021287502
0.6765082031255866
0.6216324781389079
0.5806830795328245
0.5409229071592171
0.42957149130453753
0.33310253063285405
0.23846626669412346
0.1809232108634499
0.11592854564049285
0.07937974897426348
0.48752888631341856
0.6460487902664106
0.7662716802737252
0.8110278189668395
0.8230107098724816
0.835458772029295
0.8230281262461724
0.7994900930404669
0.7603658871811749
0.7175211021287502
0.6765082031255866
0.6216324781389079
0.5806830795328245
0.5409229071592171
0.42957149130453753
0.33310253063285405
0.23846626669412346
0.1809232108634499

VECTORS Ftot float
-1.920519204533834 2.804963933227464 -0.4945908213421443
-1.9173196362143627 2.2201819879207267 -0.3914779865533835
-17.69142579733627 13.238856072425737 -2.3343675192847817
-30.40447962746444 17.314540482629216 -3.0530206456565296
-43.71767436318974 20.471313470515863 -3.6096448953926275
-53.84186217402014 21.841218902959373 -3.851196184151518
-61.88042315506857 22.35226247989755 -3.941306955083482
-69.84453027208984 22.794010171208175 -4.019198991727221
-75.40962759250614 22.28876885376424 -3.930111315693163
-79.27367763592791 21.473929875921584 -3.786433218966595
-80.73607409353568 20.285130995049276 -3.5768159016327763
-80.88747296676355 18.96050928129567 -3.3432493542657276
-80.32796327927228 17.88762518605021 -3.1540709411009606
-77.28245797451761 16.26114397562709 -2.8672784200879993
-75.12003157830462 15.178893878885598 -2.676448528158126
-72.46706224858063 13.964879096461734 -2.46238496703788
-59.147171652962484 11.93896167399279 -2.1051610647692516
-46.9432241619367 9.974091589607115 -1.7587014553051346
-34.24229326192921 7.810957076525253 -1.3772824777471306
-26.399858564922496 6.271279427910612 -1.1057957667025993
-1.920519204533834 2.804963933227464 -0.4945908213421443
-1.9173196362143627 2.2201819879207267 -0.3914779865533835
-17.69142579733627 13.238856072425737 -2.3343675192847817
-30.40447962746444 17.314540482629216 -3.0530206456565296
-43.71767436318974 20.471313470515863 -3.6096448953926275
-53.84186217402014 21.841218902959373 -3.851196184151518
-61.88042315506857 22.35226247989755 -3.941306955083482
-69.84453027208984 22.794010171208175 -4.019198991727221
-75.40962759250614 22.28876885376424 -3.930111315693163
-79.27367763592791 21.473929875921584 -3.786433218966595
-80.73607409353568 20.285130995049276 -3.5768159016327763
-80.88747296676355 18.96050928129567 -3.3432493542657276
-80.32796327927228 17.88762518605021 -3.1540709411009606
-77.28245797451761 16.26114397562709 -2.8672784200879993
-75.12003157830462 15.178893878885598 -2.676448528158126
-72.46706224858063 13.964879096461734 -2.46238496703788
-59.147171652962484 11.93896167399279 -2.1051610647692516
-46.9432241619367 9.974091589607115 -1.7587014553051346
-34.24229326192921 7.810957076525253 -1.3772824777471306
-26.399858564922496 6.271279427910612 -1.1057957667025993

VECTORS D float
-0.021630750444323398 -0.014242924766623189 0.0018544463046715584
0.2526593755740597 0.2749033219713453 -0.038221442536570734
0.7665417536104528 1.1403301578892135 -0.16228123674000267
0.5775937392180314 1.0743368263644149 -0.1544203051198653
0.45144793310400727 0.998344617466669 -0.14408202831514488
0.4231069867504663 1.0780157063299753 -0.15610675720790843
0.43783101035383387 1.260913788371134 -0.18376139229915792
0.45105679053800324 1.4476528141065832 -0.21146086292830296
0.40300183429809544 1.4272402600071092 -0.20914321391019386
0.37707369557215653 1.46244640532659 -0.21518560929886782
0.37093697378056667 1.565816580009159 -0.2315435898907748
0.3591250392144332 1.6410004977539328 -0.24405194661822371
0.38863513290816337 1.9122248256190777 -0.28618610211814827
0.36316182805864217 1.913516060652121 -0.2882953298529953
0.37043090859758715 2.0776527830299565 -0.3151535942592278
0.34063437892765064 2.0207633511976644 -0.3085540006330053
0.42283342077035685 2.6325509978327157 -0.4050178185974778
0.44425395184547783 2.888293199163516 -0.4468619024254688
0.41782092289766243 2.818046954457168 -0.438119737187728
0.3642749797342146 2.5326389223163774 -0.3953595519927156
-0.021630750444323398 -0.014242924766623189 0.0018544463046715584
0.2526593755740597 0.2749033219713453 -0.038221442536570734
0.7665417536104528 1.1403301578892135 -0.16228123674000267
0.5775937392180314 1.0743368263644149 -0.1544203051198653
0.45144793310400727 0.998344617466669 -0.14408202831514488
0.4231069867504663 1.0780157063299753 -0.15610675720790843
0.43783101035383387 1.260913788371134 -0.18376139229915792
0.45105679053800324 1.4476528141065832 -0.21146086292830296
0.40300183429809544 1.4272402600071092 -0.20914321391019386
0.37707369557215653 1.46244640532659 -0.21518560929886782
0.37093697378056667 1.565816580009159 -0.2315435898907748
0.3591250392144332 1.6410004977539328 -0.24405194661822371
0.38863513290816337 1.9122248256190777 -0.28618610211814827
0.36316182805864217 1.913516060652121 -0.2882953298529953
0.37043090859758715 2.0776527830299565 -0.3151535942592278
0.34063437892765064 2.0207633511976644 -0.3085540006330053
0.42283342077035685 2.6325509978327157 -0.4050178185974778
0.44425395184547783 2.888293199163516 -0.4468619024254688
0.41782092289766243 2.818046954457168 -0.438119737187728
0.3642749797342146 2.5326389223163774 -0.3953595519927156

VECTORS L float
-1.8988884540895103 2.819206857994087 -0.49644526764681585
-2.169979011788423 1.9452786659493815 -0.3532565440168128
-18.457967550946726 12.098525914536527 -2.172086282544779
-30.982073366682478 16.240203656264807 -2.898600340536666
-44.16912229629375 19.4729688530492 -3.465562867077483
-54.264969160770626 20.763203196629398 -3.69508942694361
-62.31825416542241 21.091348691526413 -3.7575455627843235
-70.29558706262786 21.346357357101592 -3.8077381287989187
-75.81262942680425 20.861528593757136 -3.7209681017829688
-79.65075133150009 20.011483470594996 -3.571247609667728
-81.10701106731626 18.71931441504012 -3.3452723117420033
-81.24659800597799 17.31950878354174 -3.099197407647504
-80.71659841218047 15.975400360431136 -2.867884838982813
-77.64561980257626 14.347627914974966 -2.578983090235004
-75.49046248690222 13.101241095855645 -2.3612949338988987
-72.80769662750829 11.944115745264073 -2.1538309664048754
-59.570005073732844 9.306410676160073 -1.7001432461717738
-47.387478113782194 7.085798390443603 -1.3118395528796667
-34.66011418482688 4.992910122068086 -0.9391627405594027
-26.764133544656712 3.738640505594234 -0.7104362147098836
-1.8988884540895103 2.819206857994087 -0.49644526764681585
-2.169979011788423 1.9452786659493815 -0.3532565440168128
-18.457967550946726 12.098525914536527 -2.172086282544779
-30.982073366682478 16.240203656264807 -2.898600340536666
-44.16912229629375 19.4729688530492 -3.465562867077483
-54.264969160770626 20.763203196629398 -3.69508942694361
-62.31825416542241 21.091348691526413 -3.7575455627843235
-70.29558706262786 21.346357357101592 -3.8077381287989187
-75.81262942680425 20.861528593757136 -3.7209681017829688
-79.65075133150009 20.011483470594996 -3.571247609667728
-81.10701106731626 18.71931441504012 -3.3452723117420033
-81.24659800597799 17.31950878354174 -3.099197407647504
-80.71659841218047 15.975400360431136 -2.867884838982813
-77.64561980257626 14.347627914974966 -2.578983090235004
-75.49046248690222 13.101241095855645 -2.3612949338988987
-72.80769662750829 11.944115745264073 -2.1538309664048754
-59.570005073732844 9.306410676160073 -1.7001432461717738
-47.387478113782194 7.085798390443603 -1.3118395528796667
-34.66011418482688 4.992910122068086 -0.9391627405594027
-26.764133544656712 3.738640505594234 -0.7104362147098836

SCALARS mu float
LOOKUP_TABLE default
-0.048985138060153637
0.5372803279995856
1.2936550668253552
0.856782121141687
0.6552242297283217
0.6305456561672177
0.6870253304188063
0.7570570581326969
0.7370852203179764
0.7657242382550488
0.8496080233312013
0.9371568473672601
1.1580510732314833
1.2313902218011774
1.4250213155608824
1.4900299384977775
2.121598169982515
2.6061310421188373
2.936388275551706
3.156829224161749
-0.048985138060153637
0.5372803279995856
1.2936550668253552
0.856782121141687
0.6552242297283217
0.6305456561672177
0.6870253304188063
0.7570570581326969
0.7370852203179764
0.7657242382550488
0.8496080233312013
0.9371568473672601
1.1580510732314833
1.2313902218011774
1.4250213155608824
1.4900299384977775
2.121598169982515
2.6061310421188373
2.936388275551706
3.156829224161749