# vtk DataFile Version 4.0
[MyVLM domain - lattices] 
ASCII
DATASET UNSTRUCTURED_GRID
POINTS 62 float
0.00022673658128986117 0.00957269689525704 0.009532499999999885
-0.003724999406033424 0.010193598365867333 0.019321458333333118
-0.00549739299719125 0.01127244364322225 0.02869824999999969
-0.005451904080891177 0.012778971530094734 0.037662874999999596
-0.004354059046121628 0.013848370910937885 0.04621533333333284
-0.0029556321221654493 0.01400317620085668 0.05435562499999942
-0.0016722727371407085 0.01353036412872103 0.06208374999999934
-0.0006485493516483927 0.012907294203932176 0.0693997083333326
0.0001374053121431227 0.0122133527304945 0.0763034999999992
0.0007511984436382017 0.011416515406367967 0.08279512499999915
0.0012455433643025467 0.010556571721314535 0.08887458333333242
0.0016598526811940704 0.009714711822837016 0.09454187499999903
0.002022453218220871 0.008982560626999342 0.09979699999999898
0.002352563731918074 0.008415224441117423 0.10463995833333226
0.002662053738196183 0.00795890942946685 0.10907074999999887
0.002957000443680671 0.007496015253946259 0.11308937499999884
0.0032390594424296184 0.006912800012521689 0.11669583333333211
0.0035066635059833096 0.006138329173825772 0.11989012499999877
0.0037560624618667195 0.005160518770430229 0.12267224999999872
0.003982215822832984 0.00402540614121447 0.12504220833333207
0.004179548496302947 0.002825080565776359 0.1269999999999987
0.008285994416043337 -0.005721730134920547 0.009532499999999913
0.007508437091591354 -0.003969538240973738 0.019321458333333142
0.00973309288421085 -0.0032636142307342735 0.028698249999999717
0.010440442308044806 -0.007056598455757933 0.03766287499999963
0.01004693542569484 -0.008743635055551565 0.04621533333333288
0.0094954698488839 -0.009221717647475898 0.05435562499999947
0.009038213335578684 -0.009265399611462829 0.06208374999999939
0.008539133039147835 -0.008996302442301967 0.06939970833333264
0.008012046218423283 -0.008462139875867655 0.07630349999999925
0.007469873605570215 -0.0077559158227675255 0.08279512499999918
0.0069256484677951155 -0.0069537097512494695 0.08887458333333245
0.0064559301991455546 -0.0060943289284267725 0.09454187499999905
0.006108090109537901 -0.005214201712214326 0.09979699999999901
0.005835591307912621 -0.004367955861814532 0.10463995833333228
0.005646315885461864 -0.0035960199123261354 0.1090707499999989
0.005556570152728891 -0.0029345419214113952 0.11308937499999885
0.005484703593381549 -0.002431188433521947 0.11669583333333214
0.005393245002100456 -0.002103071345115816 0.11989012499999878
0.005297730961761147 -0.0019361913096156075 0.12267224999999875
0.00521698140800628 -0.0019008688713604276 0.12504220833333207
0.005155604557614359 -0.001959564864450535 0.1269999999999987
0.005485628962270063 -0.00116343873331981 0.01442697916666652
0.005312774690522743 -2.9176925754305703e-5 0.02400985416666642
0.006196413562335568 -0.0008636528607699537 0.033180562499999657
0.006457021259275767 -0.0025966697616119825 0.04193910416666625
0.006414690581931144 -0.003255563874660977 0.05028547916666617
0.006371643086760199 -0.0034909764309048077 0.058219687499999416
0.006301402129423808 -0.0035434309785801446 0.06574172916666601
0.00614279921665101 -0.003406835002510274 0.07285160416666592
0.005916795403470228 -0.0031280373698803847 0.07954931249999919
0.005647913503504593 -0.0027694736992960618 0.0858348541666658
0.005381266505789829 -0.0023591040618596458 0.09170822916666575
0.005171795853183163 -0.0019035399340108661 0.09716943749999901
0.005025757650311314 -0.0014185859567462265 0.10221847916666563
0.004932542381279714 -0.0009397241814797172 0.10685535416666557
0.00490346403705614 -0.000517095102224935 0.11108006249999887
0.004914985140555201 -0.0002110469747915093 0.11489260416666548
0.0049224460918573685 -6.895626869572902e-5 0.11829297916666547
0.004916956732429355 -0.00010236750249228393 0.12128118749999875
0.004910301924250248 -0.000290656953910426 0.1238572291666654
0.004909940276999731 -0.0005913518125552572 0.1260211041666654

CELLS 40 140
4 0 21 22 1
4 1 22 23 2
4 2 23 24 3
4 3 24 25 4
4 4 25 26 5
4 5 26 27 6
4 6 27 28 7
4 7 28 29 8
4 8 29 30 9
4 9 30 31 10
4 10 31 32 11
4 11 32 33 12
4 12 33 34 13
4 13 34 35 14
4 14 35 36 15
4 15 36 37 16
4 16 37 38 17
4 17 38 39 18
4 18 39 40 19
4 19 40 41 20
1 42
1 43
1 44
1 45
1 46
1 47
1 48
1 49
1 50
1 51
1 52
1 53
1 54
1 55
1 56
1 57
1 58
1 59
1 60
1 61

CELL_TYPES 40
9
9
9
9
9
9
9
9
9
9
9
9
9
9
9
9
9
9
9
9
1
1
1
1
1
1
1
1
1
1
1
1
1
1
1
1
1
1
1
1

CELL_DATA 40

VECTORS S float
0.0 -0.0 0.0
0.0 -0.0 0.0
-7.49734083554701e-18 8.680397056299916e-17 -4.3545847893932036e-16
6.29007241385717e-18 -8.780323463460224e-17 4.3527721429220526e-16
1.1022349510845289e-17 -1.7703483481606212e-16 8.70286205965556e-16
-9.87517137503556e-18 1.7781204065161585e-16 -8.701415197602247e-16
8.800519267790769e-18 -1.7782698996830381e-16 8.701499972536011e-16
-8.01921631562188e-18 1.780356894259847e-16 -8.701148721182218e-16
-7.25452030941455e-18 1.7801220521971537e-16 -8.701263884912963e-16
0.0 -0.0 0.0
-6.02979884562352e-18 1.774883169520769e-16 -8.702427500947148e-16
5.4796219124841e-18 -1.7691494871799127e-16 8.703631310463573e-16
2.52186083682204e-18 -8.811372246780613e-17 4.352526145079878e-16
0.0 -0.0 0.0
2.1247923158649097e-18 -8.734336024877165e-17 4.3540997804749566e-16
1.94835871712916e-18 -8.695148673754887e-17 4.3548922966899223e-16
0.0 -0.0 0.0
0.0 -0.0 0.0
1.0146485631573999e-18 -4.286764513656442e-17 2.1786496291292944e-16
1.02459623322332e-18 -4.2738725899077815e-17 2.1789024321294335e-16
0.0 -0.0 0.0
0.0 -0.0 0.0
-7.49734083554701e-18 8.680397056299916e-17 -4.3545847893932036e-16
6.29007241385717e-18 -8.780323463460224e-17 4.3527721429220526e-16
1.1022349510845289e-17 -1.7703483481606212e-16 8.70286205965556e-16
-9.87517137503556e-18 1.7781204065161585e-16 -8.701415197602247e-16
8.800519267790769e-18 -1.7782698996830381e-16 8.701499972536011e-16
-8.01921631562188e-18 1.780356894259847e-16 -8.701148721182218e-16
-7.25452030941455e-18 1.7801220521971537e-16 -8.701263884912963e-16
0.0 -0.0 0.0
-6.02979884562352e-18 1.774883169520769e-16 -8.702427500947148e-16
5.4796219124841e-18 -1.7691494871799127e-16 8.703631310463573e-16
2.52186083682204e-18 -8.811372246780613e-17 4.352526145079878e-16
0.0 -0.0 0.0
2.1247923158649097e-18 -8.734336024877165e-17 4.3540997804749566e-16
1.94835871712916e-18 -8.695148673754887e-17 4.3548922966899223e-16
0.0 -0.0 0.0
0.0 -0.0 0.0
1.0146485631573999e-18 -4.286764513656442e-17 2.1786496291292944e-16
1.02459623322332e-18 -4.2738725899077815e-17 2.1789024321294335e-16

SCALARS Gamma float
LOOKUP_TABLE default
0.11457127260665222
0.07922375667485854
0.4877580508648517
0.6468118215630229
0.7688903954182255
0.8133550578873593
0.82525965044723
0.8379493144460258
0.8257359569483514
0.8021784958554509
0.7627314428176575
0.7207999370147499
0.6802491958660066
0.6256256686044246
0.5846581884204048
0.5445801172691265
0.43287214263712587
0.3356233546013748
0.23893501826813138
0.18136947295242248
0.11457127260665222
0.07922375667485854
0.4877580508648517
0.6468118215630229
0.7688903954182255
0.8133550578873593
0.82525965044723
0.8379493144460258
0.8257359569483514
0.8021784958554509
0.7627314428176575
0.7207999370147499
0.6802491958660066
0.6256256686044246
0.5846581884204048
0.5445801172691265
0.43287214263712587
0.3356233546013748
0.23893501826813138
0.18136947295242248

VECTORS Ftot float
-1.8960375854192286 -2.7721463914887736 -0.48880420329307656
-1.9123936260595 -2.2156072094497508 -0.39067132967817797
-17.696586949401606 -13.240073570860195 -2.3345821971076974
-30.438524580711455 -17.323424301814484 -3.0545871026705633
-43.87872821963898 -20.510976101388017 -3.6166384873411923
-54.00381117124179 -21.872014918074264 -3.856626352514498
-62.08957542389679 -22.397892177195768 -3.9493527018386345
-70.09579216421065 -22.83995804227686 -4.027300841102658
-75.7018787914956 -22.337638715254144 -3.938728390817236
-79.58584737267014 -21.51826727856918 -3.7942510993078202
-81.02206346583746 -20.321364539833727 -3.5832048531849074
-81.29924243125745 -19.00028328314363 -3.3502625839222007
-80.8177463468057 -17.930160072851212 -3.1615709892652912
-77.82496074722403 -16.303610142765503 -2.8747663511217163
-75.68056656790591 -15.215064848444316 -2.6828264460096554
-73.00088629968182 -13.995091288466226 -2.467712191634565
-59.645811118853246 -11.969730292591155 -2.110586402387227
-47.332858102774345 -10.008363146177832 -1.7647444553993914
-34.32005753428343 -7.821526489572743 -1.379146150437626
-26.47464059456623 -6.280873088368618 -1.1074873878850784
-1.8960375854192286 -2.7721463914887736 -0.48880420329307656
-1.9123936260595 -2.2156072094497508 -0.39067132967817797
-17.696586949401606 -13.240073570860195 -2.3345821971076974
-30.438524580711455 -17.323424301814484 -3.0545871026705633
-43.87872821963898 -20.510976101388017 -3.6166384873411923
-54.00381117124179 -21.872014918074264 -3.856626352514498
-62.08957542389679 -22.397892177195768 -3.9493527018386345
-70.09579216421065 -22.83995804227686 -4.027300841102658
-75.7018787914956 -22.337638715254144 -3.938728390817236
-79.58584737267014 -21.51826727856918 -3.7942510993078202
-81.02206346583746 -20.321364539833727 -3.5832048531849074
-81.29924243125745 -19.00028328314363 -3.3502625839222007
-80.8177463468057 -17.930160072851212 -3.1615709892652912
-77.82496074722403 -16.303610142765503 -2.8747663511217163
-75.68056656790591 -15.215064848444316 -2.6828264460096554
-73.00088629968182 -13.995091288466226 -2.467712191634565
-59.645811118853246 -11.969730292591155 -2.110586402387227
-47.332858102774345 -10.008363146177832 -1.7647444553993914
-34.32005753428343 -7.821526489572743 -1.379146150437626
-26.47464059456623 -6.280873088368618 -1.1074873878850784

VECTORS D float
-0.02177286034924111 0.01408836024389649 0.003160037016119703
0.2524460172071162 -0.27110545479537457 -0.058164572150520046
0.7673500454979745 -1.1285966426853775 -0.23818517630675187
0.5781922579427318 -1.0641398052662085 -0.22301141661009413
0.4517222293569543 -0.989642463526483 -0.20703560405310317
0.42318893051358514 -1.068183899715306 -0.22308442684807103
0.43742842931951487 -1.2479325502429772 -0.2594560559975331
0.45045033050039773 -1.43262624554977 -0.29728357512868026
0.4025879734893613 -1.4132940240045921 -0.2924910355933346
0.37636752694195014 -1.4474514782318753 -0.2985523482959617
0.3705280448568809 -1.551248136611347 -0.3189485123422557
0.3579206595639441 -1.6242871531208058 -0.3324152160936685
0.38754294294647407 -1.895877945828456 -0.3860521153029919
0.3618382302199172 -1.897359851881359 -0.38432176096796133
0.3684986394983072 -2.058546505245155 -0.41474325619242386
0.3391691234234918 -2.0054258283859614 -0.4019286092822195
0.42203202611299107 -2.6235257608623495 -0.5232231409036412
0.4444612829613258 -2.8853480972879515 -0.5728726382872309
0.4180929158740372 -2.8029370922081784 -0.5534599431366202
0.36439679546031906 -2.5194941296595528 -0.4959071457379687
-0.02177286034924111 0.01408836024389649 0.003160037016119703
0.2524460172071162 -0.27110545479537457 -0.058164572150520046
0.7673500454979745 -1.1285966426853775 -0.23818517630675187
0.5781922579427318 -1.0641398052662085 -0.22301141661009413
0.4517222293569543 -0.989642463526483 -0.20703560405310317
0.42318893051358514 -1.068183899715306 -0.22308442684807103
0.43742842931951487 -1.2479325502429772 -0.2594560559975331
0.45045033050039773 -1.43262624554977 -0.29728357512868026
0.4025879734893613 -1.4132940240045921 -0.2924910355933346
0.37636752694195014 -1.4474514782318753 -0.2985523482959617
0.3705280448568809 -1.551248136611347 -0.3189485123422557
0.3579206595639441 -1.6242871531208058 -0.3324152160936685
0.38754294294647407 -1.895877945828456 -0.3860521153029919
0.3618382302199172 -1.897359851881359 -0.38432176096796133
0.3684986394983072 -2.058546505245155 -0.41474325619242386
0.3391691234234918 -2.0054258283859614 -0.4019286092822195
0.42203202611299107 -2.6235257608623495 -0.5232231409036412
0.4444612829613258 -2.8853480972879515 -0.5728726382872309
0.4180929158740372 -2.8029370922081784 -0.5534599431366202
0.36439679546031906 -2.5194941296595528 -0.4959071457379687

VECTORS L float
-1.8742647250699875 -2.78623475173267 -0.4919642403091963
-2.164839643266616 -1.9445017546543764 -0.33250675752765796
-18.463936994899584 -12.111476928174815 -2.096397020800945
-31.016716838654183 -16.259284496548275 -2.8315756860604697
-44.33045044899594 -19.521333637861535 -3.4096028832880894
-54.42700010175538 -20.80383101835896 -3.633541925666427
-62.52700385321633 -21.149959626952793 -3.6898966458411024
-70.54624249471105 -21.407331796727096 -3.730017265973979
-76.10446676498495 -20.924344691249544 -3.6462373552239007
-79.9622148996121 -20.07081580033731 -3.4956987510118593
-81.39259151069436 -18.770116403222385 -3.264256340842652
-81.6571630908214 -17.375996130022827 -3.0178473678285336
-81.2052892897522 -16.03428212702276 -2.7755188739623
-78.18679897744394 -14.406250290884143 -2.490444590153755
-76.04906520740421 -13.15651834319916 -2.268083189817232
-73.34005542310533 -11.989665460080268 -2.0657835823523465
-60.06784314496625 -9.346204531728807 -1.587363261483586
-47.77731938573567 -7.123015048889881 -1.1918718171121607
-34.73815045015748 -5.0185893973645666 -0.8256862073010061
-26.83903739002656 -3.761378958709067 -0.6115802421471102
-1.8742647250699875 -2.78623475173267 -0.4919642403091963
-2.164839643266616 -1.9445017546543764 -0.33250675752765796
-18.463936994899584 -12.111476928174815 -2.096397020800945
-31.016716838654183 -16.259284496548275 -2.8315756860604697
-44.33045044899594 -19.521333637861535 -3.4096028832880894
-54.42700010175538 -20.80383101835896 -3.633541925666427
-62.52700385321633 -21.149959626952793 -3.6898966458411024
-70.54624249471105 -21.407331796727096 -3.730017265973979
-76.10446676498495 -20.924344691249544 -3.6462373552239007
-79.9622148996121 -20.07081580033731 -3.4956987510118593
-81.39259151069436 -18.770116403222385 -3.264256340842652
-81.6571630908214 -17.375996130022827 -3.0178473678285336
-81.2052892897522 -16.03428212702276 -2.7755188739623
-78.18679897744394 -14.406250290884143 -2.490444590153755
-76.04906520740421 -13.15651834319916 -2.268083189817232
-73.34005542310533 -11.989665460080268 -2.0657835823523465
-60.06784314496625 -9.346204531728807 -1.587363261483586
-47.77731938573567 -7.123015048889881 -1.1918718171121607
-34.73815045015748 -5.0185893973645666 -0.8256862073010061
-26.83903739002656 -3.761378958709067 -0.6115802421471102

SCALARS mu float
LOOKUP_TABLE default
-0.049303719880663434
0.5369685376336735
1.2956882123568825
0.8583234436813161
0.6566225206800111
0.6316220854008119
0.6868206376227166
0.7566942723752519
0.7370724987958243
0.7651739008576177
0.8497304903262155
0.9360973148748775
1.158213520601825
1.2312280044091095
1.423224662314073
1.4900412467806894
2.129487502695906
2.6213925296362723
2.940865158614587
3.1613595116559594
-0.049303719880663434
0.5369685376336735
1.2956882123568825
0.8583234436813161
0.6566225206800111
0.6316220854008119
0.6868206376227166
0.7566942723752519
0.7370724987958243
0.7651739008576177
0.8497304903262155
0.9360973148748775
1.158213520601825
1.2312280044091095
1.423224662314073
1.4900412467806894
2.129487502695906
2.6213925296362723
2.940865158614587
3.1613595116559594