# vtk DataFile Version 4.0
[MyVLM domain - lattices] 
ASCII
DATASET UNSTRUCTURED_GRID
POINTS 62 float
0.00022673658128986117 0.005735085617241436 0.01223167507177069
-0.003724999406033424 0.002970521215233399 0.021642647792753975
-0.00549739299719125 0.0007772525315652978 0.03082293654495457
-0.005451904080891177 -0.0008731566574932769 0.03976219138935966
-0.004354059046121628 -0.0027933629755954037 0.048164629504280285
-0.0029556321221654493 -0.005432037309546157 0.05586694804193756
-0.0016722727371407085 -0.008519509744889202 0.06296729882427068
-0.0006485493516483927 -0.011607209073178203 0.06962894841910296
0.0001374053121431227 -0.014620536570348787 0.07587904854150808
0.0007511984436382017 -0.01758958523671378 0.08170664623511238
0.0012455433643025467 -0.02047696518235903 0.08712535030690712
0.0016598526811940704 -0.023206382624795636 0.09216292942277782
0.002022453218220871 -0.025691738306518185 0.09685072114964888
0.002352563731918074 -0.02788124923718316 0.10120757295464664
0.002662053738196183 -0.02982546508726455 0.10521508626236661
0.002957000443680671 -0.03163489402667815 0.10883303938831619
0.0032390594424296184 -0.033416418481439406 0.11202253031085962
0.0035066635059833096 -0.035236695107233165 0.11475929799141188
0.0037560624618667195 -0.03710707911908158 0.11703920946970117
0.003982215822832984 -0.038984309569359075 0.1188780104429694
0.004179548496302947 -0.04078185084157401 0.12030719729982339
0.008285994416043337 -0.008636974602165209 0.0070006729468252895
0.007508437091591354 -0.010338473741398135 0.016798569780541093
0.00973309288421085 -0.012882173787908763 0.025851311947513667
0.010440442308044806 -0.019512495402281768 0.032978026899851895
0.01004693542569484 -0.02402290427105709 0.040437708385607084
0.0094954698488839 -0.027256298677360666 0.04792356651920728
0.009038213335578684 -0.029940520716719293 0.055170688442634806
0.008539133039147835 -0.032189857210315725 0.06213747715481021
0.008012046218423283 -0.03404914440366122 0.06880761359695119
0.007469873605570215 -0.03560577738525799 0.07514928855822184
0.0069256484677951155 -0.0369312474700119 0.08113648132798788
0.0064559301991455546 -0.038062021560462164 0.08675591903918917
0.006108090109537901 -0.03903233111572877 0.09199514245963049
0.005835591307912621 -0.03989350943802428 0.09683546779527992
0.005646315885461864 -0.040683546923450165 0.10126306767276855
0.005556570152728891 -0.0414364116350474 0.10526557872823374
0.005484703593381549 -0.04219689547289554 0.10882669804331033
0.005393245002100456 -0.04298107835982385 0.11194057300471917
0.005297730961761147 -0.043775805213157735 0.11461199167098313
0.00521698140800628 -0.04455318646742371 0.11685110501378118
0.005155604557614359 -0.04527794684543531 0.11867075218401467
0.005485628962270063 -0.006027592274776899 0.013159006380827974
0.005312774690522743 -0.008239271105140248 0.022551903690234104
0.006196413562335568 -0.012159988962062445 0.03088414305955136
0.006457021259275767 -0.01678408983163816 0.038521753343752116
0.006414690581931144 -0.020257876141299355 0.046139425282582615
0.006371643086760199 -0.023192750654584402 0.05351462646896681
0.006301402129423808 -0.025814731574896558 0.0605650930044636
0.00614279921665101 -0.028118093810682226 0.06729290865198691
0.005916795403470228 -0.030146860896727527 0.07368205015526744
0.005647913503504593 -0.031959703123110306 0.07971116327508107
0.005381266505789829 -0.03358289436232211 0.08537068510390201
0.005171795853183163 -0.03502264736998583 0.09065835438361071
0.005025757650311314 -0.03629381365062007 0.09556876560862836
0.004932542381279714 -0.03742973542610888 0.10008978320264482
0.00490346403705614 -0.03847752934867943 0.1042042581067112
0.004914985140555201 -0.03949390422899329 0.107891550001726
0.0049224460918573685 -0.04052337938585385 0.111135455180795
0.004916956732429355 -0.04157680311815744 0.11393202518602748
0.004910301924250248 -0.04263479546627313 0.11628831374587044
0.004909940276999731 -0.04365744504368877 0.11821884741702257

CELLS 40 140
4 0 21 22 1
4 1 22 23 2
4 2 23 24 3
4 3 24 25 4
4 4 25 26 5
4 5 26 27 6
4 6 27 28 7
4 7 28 29 8
4 8 29 30 9
4 9 30 31 10
4 10 31 32 11
4 11 32 33 12
4 12 33 34 13
4 13 34 35 14
4 14 35 36 15
4 15 36 37 16
4 16 37 38 17
4 17 38 39 18
4 18 39 40 19
4 19 40 41 20
1 42
1 43
1 44
1 45
1 46
1 47
1 48
1 49
1 50
1 51
1 52
1 53
1 54
1 55
1 56
1 57
1 58
1 59
1 60
1 61

CELL_TYPES 40
9
9
9
9
9
9
9
9
9
9
9
9
9
9
9
9
9
9
9
9
1
1
1
1
1
1
1
1
1
1
1
1
1
1
1
1
1
1
1
1

CELL_DATA 40

VECTORS S float
0.0 -0.0 0.0
-4.86646111055025e-18 1.148481700991245e-16 -1.8997374017862392e-16
0.0 -0.0 0.0
0.0 -0.0 0.0
0.0 -0.0 0.0
0.0 -0.0 0.0
0.0 -0.0 0.0
1.555296067188492e-17 -9.297997909572654e-16 1.5134972993151361e-15
1.4173774429379768e-17 -9.298612664437358e-16 1.5134730754691754e-15
1.279433665926476e-17 -9.293660447975103e-16 1.5137895100082207e-15
1.1631699475984389e-17 -9.286184217821395e-16 1.514257623780774e-15
1.055112080094264e-17 -9.276518160978172e-16 1.5148578820550502e-15
0.0 -0.0 0.0
4.40588595730578e-18 -4.625633175128975e-16 7.582062190996623e-16
4.07701420111848e-18 -4.619763347060789e-16 7.58565850370126e-16
3.72317482347088e-18 -4.612349752998162e-16 7.590186695664498e-16
0.0 -0.0 0.0
3.78608938833647e-18 -4.597876417532808e-16 7.59895976590949e-16
0.0 -0.0 0.0
0.0 -0.0 0.0
0.0 -0.0 0.0
-4.86646111055025e-18 1.148481700991245e-16 -1.8997374017862392e-16
0.0 -0.0 0.0
0.0 -0.0 0.0
0.0 -0.0 0.0
0.0 -0.0 0.0
0.0 -0.0 0.0
1.555296067188492e-17 -9.297997909572654e-16 1.5134972993151361e-15
1.4173774429379768e-17 -9.298612664437358e-16 1.5134730754691754e-15
1.279433665926476e-17 -9.293660447975103e-16 1.5137895100082207e-15
1.1631699475984389e-17 -9.286184217821395e-16 1.514257623780774e-15
1.055112080094264e-17 -9.276518160978172e-16 1.5148578820550502e-15
0.0 -0.0 0.0
4.40588595730578e-18 -4.625633175128975e-16 7.582062190996623e-16
4.07701420111848e-18 -4.619763347060789e-16 7.58565850370126e-16
3.72317482347088e-18 -4.612349752998162e-16 7.590186695664498e-16
0.0 -0.0 0.0
3.78608938833647e-18 -4.597876417532808e-16 7.59895976590949e-16
0.0 -0.0 0.0
0.0 -0.0 0.0

SCALARS Gamma float
LOOKUP_TABLE default
0.13973307455260825
0.10109557450887258
0.5052425461575457
0.6720885282790352
0.7989274694873684
0.8444199599752531
0.857162474487376
0.8689819614075939
0.8545858332796777
0.8318331636415728
0.7941624226479014
0.7497279747335888
0.7082408807899527
0.6538313160459562
0.6116819815806167
0.5693677103929081
0.451235959396688
0.3499608122064061
0.255043546602774
0.19356174127804415
0.13973307455260825
0.10109557450887258
0.5052425461575457
0.6720885282790352
0.7989274694873684
0.8444199599752531
0.857162474487376
0.8689819614075939
0.8545858332796777
0.8318331636415728
0.7941624226479014
0.7497279747335888
0.7082408807899527
0.6538313160459562
0.6116819815806167
0.5693677103929081
0.451235959396688
0.3499608122064061
0.255043546602774
0.19356174127804415

VECTORS Ftot float
-2.255619609672453 -2.8362762203183145 -1.637524839296912
-2.468879614395192 -2.3253760508237367 -1.3425564889101924
-18.017281638379654 -11.681419390270454 -6.744270629489556
-31.229463321732432 -15.262784271989995 -8.811972608016603
-45.120858734168934 -18.022996107946113 -10.405581654526259
-55.56796784257486 -19.22939087940081 -11.102094000574585
-64.02012959469594 -19.68829954149639 -11.367045040168918
-72.24590624040572 -20.071512326210613 -11.588293044580581
-77.91330357389668 -19.699985111098098 -11.373791706924097
-82.17386015457043 -18.9847239057831 -10.960835457494587
-84.08500550860433 -17.99166252243528 -10.387491200496903
-84.34290443788605 -16.775536282803806 -9.685360388677104
-83.9672044084571 -15.835968603057996 -9.142900735853988
-81.19747608643418 -14.417860941629172 -8.324155895788188
-79.06245113312342 -13.420638693652961 -7.748409362477239
-76.23291175984714 -12.33214159845811 -7.119965271554366
-62.122819739736904 -10.55106422448148 -6.091659770241408
-49.3247929441469 -8.86680048834373 -5.119249648795953
-36.64228275243181 -7.06768985708118 -4.080532641534603
-28.271123232821918 -5.652028874930364 -3.263200392408581
-2.255619609672453 -2.8362762203183145 -1.637524839296912
-2.468879614395192 -2.3253760508237367 -1.3425564889101924
-18.017281638379654 -11.681419390270454 -6.744270629489556
-31.229463321732432 -15.262784271989995 -8.811972608016603
-45.120858734168934 -18.022996107946113 -10.405581654526259
-55.56796784257486 -19.22939087940081 -11.102094000574585
-64.02012959469594 -19.68829954149639 -11.367045040168918
-72.24590624040572 -20.071512326210613 -11.588293044580581
-77.91330357389668 -19.699985111098098 -11.373791706924097
-82.17386015457043 -18.9847239057831 -10.960835457494587
-84.08500550860433 -17.99166252243528 -10.387491200496903
-84.34290443788605 -16.775536282803806 -9.685360388677104
-83.9672044084571 -15.835968603057996 -9.142900735853988
-81.19747608643418 -14.417860941629172 -8.324155895788188
-79.06245113312342 -13.420638693652961 -7.748409362477239
-76.23291175984714 -12.33214159845811 -7.119965271554366
-62.122819739736904 -10.55106422448148 -6.091659770241408
-49.3247929441469 -8.86680048834373 -5.119249648795953
-36.64228275243181 -7.06768985708118 -4.080532641534603
-28.271123232821918 -5.652028874930364 -3.263200392408581

VECTORS D float
-0.015822837212765693 0.009062783676385968 0.005873953348584751
0.24873459977472245 -0.23800843982801256 -0.1502591411434387
0.841974002235656 -1.105878262659687 -0.6911737934015713
0.6086855668572666 -1.0012276119378107 -0.6228185936852065
0.4419083764541586 -0.8647497501052965 -0.5367375483316796
0.41341977032672833 -0.932548498876133 -0.5778183421585792
0.4079541929670613 -1.0395469770776842 -0.6431876438179911
0.42045206536474533 -1.1942955864196227 -0.7380225002955906
0.3853263818064579 -1.203973931314201 -0.7433169918835419
0.35670010423968834 -1.2239616390423926 -0.754445793903369
0.3560176697167677 -1.3334559777925306 -0.8204765534241849
0.33978444567490795 -1.382033640103743 -0.8486810136532604
0.3721144043002624 -1.6355493279505229 -1.0021690271892811
0.34634398863384097 -1.6364212347102711 -1.0003536876718184
0.34837711125527626 -1.7581493084237307 -1.0726078842127609
0.3238462426895038 -1.7352962811711312 -1.056080839248857
0.4114986241421854 -2.3250585498838303 -1.411743429083288
0.4397908300365804 -2.601939342753764 -1.576537682379924
0.41792407831665107 -2.5711047951665296 -1.5549568398633402
0.3594356800099258 -2.2839202742976394 -1.3790802813911116
-0.015822837212765693 0.009062783676385968 0.005873953348584751
0.24873459977472245 -0.23800843982801256 -0.1502591411434387
0.841974002235656 -1.105878262659687 -0.6911737934015713
0.6086855668572666 -1.0012276119378107 -0.6228185936852065
0.4419083764541586 -0.8647497501052965 -0.5367375483316796
0.41341977032672833 -0.932548498876133 -0.5778183421585792
0.4079541929670613 -1.0395469770776842 -0.6431876438179911
0.42045206536474533 -1.1942955864196227 -0.7380225002955906
0.3853263818064579 -1.203973931314201 -0.7433169918835419
0.35670010423968834 -1.2239616390423926 -0.754445793903369
0.3560176697167677 -1.3334559777925306 -0.8204765534241849
0.33978444567490795 -1.382033640103743 -0.8486810136532604
0.3721144043002624 -1.6355493279505229 -1.0021690271892811
0.34634398863384097 -1.6364212347102711 -1.0003536876718184
0.34837711125527626 -1.7581493084237307 -1.0726078842127609
0.3238462426895038 -1.7352962811711312 -1.056080839248857
0.4114986241421854 -2.3250585498838303 -1.411743429083288
0.4397908300365804 -2.601939342753764 -1.576537682379924
0.41792407831665107 -2.5711047951665296 -1.5549568398633402
0.3594356800099258 -2.2839202742976394 -1.3790802813911116

VECTORS L float
-2.239796772459687 -2.8453390039947 -1.6433987926454967
-2.7176142141699153 -2.087367610995725 -1.1922973477667542
-18.85925564061531 -10.575541127610764 -6.053096836087982
-31.838148888589703 -14.261556660052188 -8.189154014331399
-45.56276711062309 -17.15824635784082 -9.86884410619458
-55.981387612901585 -18.296842380524676 -10.524275658416006
-64.42808378766303 -18.64875256441871 -10.723857396350931
-72.66635830577046 -18.87721673979099 -10.850270544284992
-78.29862995570316 -18.4960111797839 -10.63047471504056
-82.53056025881014 -17.76076226674071 -10.206389663591219
-84.4410231783211 -16.658206544642752 -9.56701464707272
-84.68268888356097 -15.393502642700065 -8.836679375023849
-84.33931881275738 -14.200419275107476 -8.140731708664708
-81.54382007506803 -12.781439706918901 -7.323802208116371
-79.41082824437869 -11.662489385229234 -6.67580147826448
-76.55675800253665 -10.59684531728698 -6.063884432305511
-62.53431836387912 -8.226005674597653 -4.679916341158123
-49.764583774183485 -6.264861145589966 -3.5427119664160314
-37.06020683074846 -4.49658506191465 -2.525575801671263
-28.63055891283185 -3.368108600632726 -1.8841201110174701
-2.239796772459687 -2.8453390039947 -1.6433987926454967
-2.7176142141699153 -2.087367610995725 -1.1922973477667542
-18.85925564061531 -10.575541127610764 -6.053096836087982
-31.838148888589703 -14.261556660052188 -8.189154014331399
-45.56276711062309 -17.15824635784082 -9.86884410619458
-55.981387612901585 -18.296842380524676 -10.524275658416006
-64.42808378766303 -18.64875256441871 -10.723857396350931
-72.66635830577046 -18.87721673979099 -10.850270544284992
-78.29862995570316 -18.4960111797839 -10.63047471504056
-82.53056025881014 -17.76076226674071 -10.206389663591219
-84.4410231783211 -16.658206544642752 -9.56701464707272
-84.68268888356097 -15.393502642700065 -8.836679375023849
-84.33931881275738 -14.200419275107476 -8.140731708664708
-81.54382007506803 -12.781439706918901 -7.323802208116371
-79.41082824437869 -11.662489385229234 -6.67580147826448
-76.55675800253665 -10.59684531728698 -6.063884432305511
-62.53431836387912 -8.226005674597653 -4.679916341158123
-49.764583774183485 -6.264861145589966 -3.5427119664160314
-37.06020683074846 -4.49658506191465 -2.525575801671263
-28.63055891283185 -3.368108600632726 -1.8841201110174701

SCALARS mu float
LOOKUP_TABLE default
-0.037635197805611025
0.5541194402662946
1.4856602627016278
0.9423009082620292
0.6682375173847815
0.6409397963470245
0.663982047830244
0.7309909760599439
0.7269123975672722
0.7478994133547915
0.8430887210188027
0.9184099888329689
1.1510873871539506
1.2223329784894628
1.3985368049967135
1.482251050627774
2.1680553413150507
2.713975919298922
3.094542607832027
3.2861091166702945
-0.037635197805611025
0.5541194402662946
1.4856602627016278
0.9423009082620292
0.6682375173847815
0.6409397963470245
0.663982047830244
0.7309909760599439
0.7269123975672722
0.7478994133547915
0.8430887210188027
0.9184099888329689
1.1510873871539506
1.2223329784894628
1.3985368049967135
1.482251050627774
2.1680553413150507
2.713975919298922
3.094542607832027
3.2861091166702945