# vtk DataFile Version 4.0
[MyVLM domain - lattices] 
ASCII
DATASET UNSTRUCTURED_GRID
POINTS 62 float
0.00022673658128986117 -0.01223167507177062 0.005735085617241353
-0.003724999406033424 -0.021642647792753877 0.00297052121523332
-0.00549739299719125 -0.03082293654495445 0.0007772525315652163
-0.005451904080891177 -0.03976219138935951 -0.000873156657493367
-0.004354059046121628 -0.04816462950428011 -0.002793362975595492
-0.0029556321221654493 -0.055866948041937356 -0.00543203730954624
-0.0016722727371407085 -0.06296729882427048 -0.008519509744889273
-0.0006485493516483927 -0.06962894841910275 -0.011607209073178262
0.0001374053121431227 -0.07587904854150784 -0.014620536570348832
0.0007511984436382017 -0.08170664623511213 -0.017589585236713806
0.0012455433643025467 -0.08712535030690685 -0.020476965182359048
0.0016598526811940704 -0.09216292942277755 -0.02320638262479564
0.002022453218220871 -0.0968507211496486 -0.025691738306518185
0.002352563731918074 -0.10120757295464636 -0.027881249237183145
0.002662053738196183 -0.10521508626236632 -0.029825465087264524
0.002957000443680671 -0.1088330393883159 -0.03163489402667811
0.0032390594424296184 -0.1120225303108593 -0.033416418481439364
0.0035066635059833096 -0.11475929799141153 -0.03523669510723311
0.0037560624618667195 -0.11703920946970085 -0.037107079119081524
0.003982215822832984 -0.1188780104429691 -0.03898430956935899
0.004179548496302947 -0.12030719729982307 -0.04078185084157392
0.008285994416043337 -0.007000672946825296 -0.008636974602165146
0.007508437091591354 -0.016798569780541065 -0.01033847374139808
0.00973309288421085 -0.025851311947513615 -0.012882173787908704
0.010440442308044806 -0.032978026899851846 -0.019512495402281668
0.01004693542569484 -0.04043770838560702 -0.02402290427105696
0.0094954698488839 -0.0479235665192072 -0.02725629867736053
0.009038213335578684 -0.05517068844263471 -0.02994052071671914
0.008539133039147835 -0.0621374771548101 -0.03218985721031557
0.008012046218423283 -0.06880761359695105 -0.034049144403661066
0.007469873605570215 -0.07514928855822169 -0.03560577738525784
0.0069256484677951155 -0.0811364813279877 -0.036931247470011745
0.0064559301991455546 -0.08675591903918897 -0.03806202156046202
0.006108090109537901 -0.09199514245963028 -0.03903233111572863
0.005835591307912621 -0.09683546779527971 -0.03989350943802414
0.005646315885461864 -0.10126306767276831 -0.04068354692345003
0.005556570152728891 -0.10526557872823349 -0.04143641163504726
0.005484703593381549 -0.10882669804331005 -0.04219689547289541
0.005393245002100456 -0.11194057300471891 -0.04298107835982372
0.005297730961761147 -0.11461199167098286 -0.043775805213157604
0.00521698140800628 -0.11685110501378089 -0.044553186467423574
0.005155604557614359 -0.11867075218401438 -0.04527794684543517
0.005485628962270063 -0.013159006380827948 -0.006027592274776875
0.005312774690522743 -0.02255190369023405 -0.008239271105140226
0.006196413562335568 -0.030884143059551287 -0.012159988962062405
0.006457021259275767 -0.03852175334375203 -0.016784089831638094
0.006414690581931144 -0.046139425282582525 -0.020257876141299275
0.006371643086760199 -0.05351462646896669 -0.023192750654584315
0.006301402129423808 -0.060565093004463465 -0.02581473157489646
0.00614279921665101 -0.06729290865198674 -0.028118093810682126
0.005916795403470228 -0.07368205015526727 -0.03014686089672742
0.005647913503504593 -0.07971116327508088 -0.0319597031231102
0.005381266505789829 -0.0853706851039018 -0.033582894362322
0.005171795853183163 -0.0906583543836105 -0.03502264736998572
0.005025757650311314 -0.09556876560862813 -0.03629381365061996
0.004932542381279714 -0.10008978320264458 -0.037429735426108765
0.00490346403705614 -0.10420425810671095 -0.03847752934867931
0.004914985140555201 -0.10789155000172572 -0.03949390422899318
0.0049224460918573685 -0.11113545518079472 -0.040523379385853736
0.004916956732429355 -0.11393202518602721 -0.04157680311815733
0.004910301924250248 -0.11628831374587015 -0.042634795466273
0.004909940276999731 -0.11821884741702225 -0.043657445043688646

CELLS 40 140
4 0 21 22 1
4 1 22 23 2
4 2 23 24 3
4 3 24 25 4
4 4 25 26 5
4 5 26 27 6
4 6 27 28 7
4 7 28 29 8
4 8 29 30 9
4 9 30 31 10
4 10 31 32 11
4 11 32 33 12
4 12 33 34 13
4 13 34 35 14
4 14 35 36 15
4 15 36 37 16
4 16 37 38 17
4 17 38 39 18
4 18 39 40 19
4 19 40 41 20
1 42
1 43
1 44
1 45
1 46
1 47
1 48
1 49
1 50
1 51
1 52
1 53
1 54
1 55
1 56
1 57
1 58
1 59
1 60
1 61

CELL_TYPES 40
9
9
9
9
9
9
9
9
9
9
9
9
9
9
9
9
9
9
9
9
1
1
1
1
1
1
1
1
1
1
1
1
1
1
1
1
1
1
1
1

CELL_DATA 40

VECTORS S float
8.62978684517605e-18 -3.8157383372869036e-16 -2.2702899043481116e-16
-2.18541569130686e-18 9.517772666659449e-17 5.711721236994611e-17
-1.4290906000933748e-17 7.594862476478805e-16 4.602578786511174e-16
2.384252942385649e-17 -1.5171639992706055e-15 -9.236279304957933e-16
2.093260131620577e-17 -1.515722255252988e-15 -9.260623586006397e-16
-1.874830662021336e-17 1.5149529660720499e-15 9.273670430160975e-16
-1.699107188551702e-17 1.5145550990470728e-15 9.280505246540942e-16
1.546799039352445e-17 -1.5143744241985948e-15 -9.283719435067e-16
0.0 -0.0 -0.0
0.0 -0.0 -0.0
0.0 -0.0 -0.0
-1.0531282163502069e-17 1.5156919694098137e-15 9.262885980333776e-16
4.85212121069092e-18 -7.581829812555563e-16 -4.625969401922208e-16
0.0 -0.0 -0.0
4.09083487217496e-18 -7.589576128042662e-16 -4.613323230140177e-16
0.0 -0.0 -0.0
3.76588635907143e-18 -7.597610865931318e-16 -4.600106679412621e-16
0.0 -0.0 -0.0
0.0 -0.0 -0.0
0.0 -0.0 -0.0
8.62978684517605e-18 -3.8157383372869036e-16 -2.2702899043481116e-16
-2.18541569130686e-18 9.517772666659449e-17 5.711721236994611e-17
-1.4290906000933748e-17 7.594862476478805e-16 4.602578786511174e-16
2.384252942385649e-17 -1.5171639992706055e-15 -9.236279304957933e-16
2.093260131620577e-17 -1.515722255252988e-15 -9.260623586006397e-16
-1.874830662021336e-17 1.5149529660720499e-15 9.273670430160975e-16
-1.699107188551702e-17 1.5145550990470728e-15 9.280505246540942e-16
1.546799039352445e-17 -1.5143744241985948e-15 -9.283719435067e-16
0.0 -0.0 -0.0
0.0 -0.0 -0.0
0.0 -0.0 -0.0
-1.0531282163502069e-17 1.5156919694098137e-15 9.262885980333776e-16
4.85212121069092e-18 -7.581829812555563e-16 -4.625969401922208e-16
0.0 -0.0 -0.0
4.09083487217496e-18 -7.589576128042662e-16 -4.613323230140177e-16
0.0 -0.0 -0.0
3.76588635907143e-18 -7.597610865931318e-16 -4.600106679412621e-16
0.0 -0.0 -0.0
0.0 -0.0 -0.0
0.0 -0.0 -0.0

SCALARS Gamma float
LOOKUP_TABLE default
0.11722079180475094
0.08164006581151555
0.49106620465411427
0.6477096165765971
0.769210421304298
0.8146572894134307
0.8262520273667696
0.839024174927368
0.827693072247745
0.805209969797286
0.7614811012035926
0.7199896789349213
0.6798423786074194
0.6255870113011133
0.5849463995791179
0.5451137260305123
0.43344809884271124
0.3362123840855932
0.24126094212178853
0.18309204637885035
0.11722079180475094
0.08164006581151555
0.49106620465411427
0.6477096165765971
0.769210421304298
0.8146572894134307
0.8262520273667696
0.839024174927368
0.827693072247745
0.805209969797286
0.7614811012035926
0.7199896789349213
0.6798423786074194
0.6255870113011133
0.5849463995791179
0.5451137260305123
0.43344809884271124
0.3362123840855932
0.24126094212178853
0.18309204637885035

VECTORS Ftot float
-1.9396108611989404 1.4365391347762984 -2.4881587684935926
-1.977400431602695 1.1517127916042553 -1.994825070785563
-17.8093581741373 6.750300499699502 -11.69186343183716
-30.45297388275594 8.789573385493247 -15.223987680529543
-43.85884992339709 10.401426288854712 -18.015798803479015
-54.05871628888799 11.10161494792326 -19.22856113586927
-62.1328743920308 11.366866768317005 -19.68799076559137
-70.1527397191614 11.591578951956858 -20.077203684735345
-75.84793076149164 11.34269657605151 -19.646126764558826
-79.8532053095814 10.930364653307342 -18.931946924783357
-80.87706831028734 10.309049525020592 -17.85579755507953
-81.19972553107262 9.642199565647076 -16.70077954441935
-80.76512411244225 9.101173435514848 -15.76369479880796
-77.81914200450298 8.277230964014846 -14.336584575656081
-75.71953173299254 7.725860739535171 -13.381583333076623
-73.07603710560248 7.107155950735484 -12.30995520398939
-59.7295568636376 6.079191600784315 -10.529468721504445
-47.420282463990254 5.084491566555649 -8.806597723929888
-34.673046980831906 3.9914147973422742 -6.913333223079077
-26.740278232739545 3.2027174464133354 -5.54726933947517
-1.9396108611989404 1.4365391347762984 -2.4881587684935926
-1.977400431602695 1.1517127916042553 -1.994825070785563
-17.8093581741373 6.750300499699502 -11.69186343183716
-30.45297388275594 8.789573385493247 -15.223987680529543
-43.85884992339709 10.401426288854712 -18.015798803479015
-54.05871628888799 11.10161494792326 -19.22856113586927
-62.1328743920308 11.366866768317005 -19.68799076559137
-70.1527397191614 11.591578951956858 -20.077203684735345
-75.84793076149164 11.34269657605151 -19.646126764558826
-79.8532053095814 10.930364653307342 -18.931946924783357
-80.87706831028734 10.309049525020592 -17.85579755507953
-81.19972553107262 9.642199565647076 -16.70077954441935
-80.76512411244225 9.101173435514848 -15.76369479880796
-77.81914200450298 8.277230964014846 -14.336584575656081
-75.71953173299254 7.725860739535171 -13.381583333076623
-73.07603710560248 7.107155950735484 -12.30995520398939
-59.7295568636376 6.079191600784315 -10.529468721504445
-47.420282463990254 5.084491566555649 -8.806597723929888
-34.673046980831906 3.9914147973422742 -6.913333223079077
-26.740278232739545 3.2027174464133354 -5.54726933947517

VECTORS D float
-0.02134086737912496 -0.00760966412981429 0.011978565264372206
0.2523647976891879 0.1472965568703467 -0.23579283513877172
0.7791229430015388 0.6200380946724343 -0.9989530967451832
0.5784664928564758 0.5729595359857257 -0.9262187168814561
0.45099046287578093 0.531161801620538 -0.8591790314229308
0.42270573153317276 0.573581441226443 -0.928460737837574
0.4362036578382553 0.6682926312313459 -1.0826505862430924
0.4491644850685636 0.7666624697485108 -1.2431077568767481
0.401327786451138 0.7558810299130747 -1.226901384084687
0.3743413418583435 0.7723254686875096 -1.255158734399803
0.37084058758138566 0.8285984722852908 -1.3494529233145434
0.35826675105747474 0.8665925303234876 -1.4139376577638274
0.3876893128090522 1.0095007221919376 -1.650476008933448
0.3618591300353741 1.0085135056403487 -1.6524510108014083
0.36834642077868107 1.092089618867571 -1.7933772346919452
0.33892886108662396 1.062110067596884 -1.7479601785188397
0.4218440821546394 1.3880583135901936 -2.289086208426216
0.4444397371533742 1.5254863777788223 -2.520410058102799
0.4186452906564236 1.4893362170478845 -2.464694535197964
0.364143087016842 1.3343756079290838 -2.211290107626518
-0.02134086737912496 -0.00760966412981429 0.011978565264372206
0.2523647976891879 0.1472965568703467 -0.23579283513877172
0.7791229430015388 0.6200380946724343 -0.9989530967451832
0.5784664928564758 0.5729595359857257 -0.9262187168814561
0.45099046287578093 0.531161801620538 -0.8591790314229308
0.42270573153317276 0.573581441226443 -0.928460737837574
0.4362036578382553 0.6682926312313459 -1.0826505862430924
0.4491644850685636 0.7666624697485108 -1.2431077568767481
0.401327786451138 0.7558810299130747 -1.226901384084687
0.3743413418583435 0.7723254686875096 -1.255158734399803
0.37084058758138566 0.8285984722852908 -1.3494529233145434
0.35826675105747474 0.8665925303234876 -1.4139376577638274
0.3876893128090522 1.0095007221919376 -1.650476008933448
0.3618591300353741 1.0085135056403487 -1.6524510108014083
0.36834642077868107 1.092089618867571 -1.7933772346919452
0.33892886108662396 1.062110067596884 -1.7479601785188397
0.4218440821546394 1.3880583135901936 -2.289086208426216
0.4444397371533742 1.5254863777788223 -2.520410058102799
0.4186452906564236 1.4893362170478845 -2.464694535197964
0.364143087016842 1.3343756079290838 -2.211290107626518

VECTORS L float
-1.9182699938198158 1.4441487989061133 -2.5001373337579653
-2.229765229291883 1.0044162347339087 -1.7590322356467922
-18.588481117138844 6.13026240502707 -10.69291033509198
-31.031440375612423 8.216613849507521 -14.297768963648085
-44.309840386272874 9.870264487234177 -17.156619772056086
-54.48142202042116 10.528033506696817 -18.3001003980317
-62.56907804986905 10.698574137085657 -18.60534017934828
-70.60190420423 10.824916482208351 -18.834095927858602
-76.24925854794279 10.586815546138439 -18.419225380474142
-80.22754665143977 10.158039184619838 -17.67678819038356
-81.24790889786873 9.480451052735301 -16.506344631764986
-81.5579922821301 8.775607035323588 -15.286841886655528
-81.15281342525131 8.091672713322911 -14.11321878987451
-78.18100113453838 7.2687174583745 -12.684133564854674
-76.08787815377123 6.633771120667602 -11.588206098384681
-73.41496596668911 6.0450458831386 -10.561995025470551
-60.151400945792226 4.691133287194122 -8.240382513078227
-47.86472220114364 3.5590051887768275 -6.28618766582709
-35.091692271488334 2.5020785802943895 -4.448638687881113
-27.104421319756394 1.8683418384842516 -3.335979231848652
-1.9182699938198158 1.4441487989061133 -2.5001373337579653
-2.229765229291883 1.0044162347339087 -1.7590322356467922
-18.588481117138844 6.13026240502707 -10.69291033509198
-31.031440375612423 8.216613849507521 -14.297768963648085
-44.309840386272874 9.870264487234177 -17.156619772056086
-54.48142202042116 10.528033506696817 -18.3001003980317
-62.56907804986905 10.698574137085657 -18.60534017934828
-70.60190420423 10.824916482208351 -18.834095927858602
-76.24925854794279 10.586815546138439 -18.419225380474142
-80.22754665143977 10.158039184619838 -17.67678819038356
-81.24790889786873 9.480451052735301 -16.506344631764986
-81.5579922821301 8.775607035323588 -15.286841886655528
-81.15281342525131 8.091672713322911 -14.11321878987451
-78.18100113453838 7.2687174583745 -12.684133564854674
-76.08787815377123 6.633771120667602 -11.588206098384681
-73.41496596668911 6.0450458831386 -10.561995025470551
-60.151400945792226 4.691133287194122 -8.240382513078227
-47.86472220114364 3.5590051887768275 -6.28618766582709
-35.091692271488334 2.5020785802943895 -4.448638687881113
-27.104421319756394 1.8683418384842516 -3.335979231848652

SCALARS mu float
LOOKUP_TABLE default
-0.0484463526076862
0.5386791965752034
1.3207426279437555
0.8605490579553505
0.6565584457601962
0.6320464176939247
0.685917708084302
0.7556847189079813
0.7362815745369365
0.7633438636810282
0.8497387818062014
0.9363946795111958
1.1582066150722181
1.2312190643469196
1.4230482406288507
1.4899811693688887
2.1308059352133557
2.6251160622651994
2.9628779688538356
3.1784105307605124
-0.0484463526076862
0.5386791965752034
1.3207426279437555
0.8605490579553505
0.6565584457601962
0.6320464176939247
0.685917708084302
0.7556847189079813
0.7362815745369365
0.7633438636810282
0.8497387818062014
0.9363946795111958
1.1582066150722181
1.2312190643469196
1.4230482406288507
1.4899811693688887
2.1308059352133557
2.6251160622651994
2.9628779688538356
3.1784105307605124