# vtk DataFile Version 4.0
[MyVLM domain - lattices] 
ASCII
DATASET UNSTRUCTURED_GRID
POINTS 62 float
0.00022673658128986117 -0.005683564743512531 0.012255699649745159
-0.003724999406033424 -0.014669815844557227 0.016187177112088388
-0.00549739299719125 -0.023112130963983436 0.020408011687956758
-0.005451904080891177 -0.03102086004080396 0.024889767153619853
-0.004354059046121628 -0.03869178589670779 0.02881978688542462
-0.0029556321221654493 -0.04628821137947379 0.03174939999656598
-0.0016722727371407085 -0.053711984667162746 0.033948276401500256
-0.0006485493516483927 -0.06079983919195137 0.03586498730867378
0.0001374053121431227 -0.067524623238766 0.03757413144215095
0.0007511984436382017 -0.07389728976398025 0.039045615801618916
0.0012455433643025467 -0.0799042299606029 0.04031683027699183
0.0016598526811940704 -0.0855176751627484 0.04146406865075859
0.002022453218220871 -0.09070628780349234 0.04257343018042463
0.002352563731918074 -0.09545122041570842 0.04369669785633345
0.002662053738196183 -0.0997708715748011 0.04478332200801106
0.002957000443680671 -0.103705462965263 0.04572279446554168
0.0032390594424296184 -0.10729389660872989 0.04640823280290983
0.0035066635059833096 -0.11056043354378678 0.04677298036443071
0.0037560624618667195 -0.11350920673070541 0.046805681935082125
0.003982215822832984 -0.11612447047224396 0.04654959846248971
0.004179548496302947 -0.11837472837979554 0.04609126556314502
0.008285994416043337 -0.01091456686845791 -0.00211636056966134
0.007508437091591354 -0.01951389385677009 0.002878182155456988
0.00973309288421085 -0.02808375556142432 0.006748585368482836
0.010440442308044806 -0.03780502453031169 0.006250428408831553
0.01004693542569484 -0.04641870701538096 0.007590245589963152
0.0094954698488839 -0.054231592902204036 0.009925138628751691
0.009038213335578684 -0.061508595048798596 0.012527265429670385
0.008539133039147835 -0.06829131045624409 0.015282339171536471
0.008012046218423283 -0.07459605818332286 0.01814552360883872
0.007469873605570215 -0.08045464744087076 0.02102942365307489
0.0069256484677951155 -0.0858930989395221 0.023862547989339133
0.0064559301991455546 -0.09092468554633704 0.026608429715092217
0.006108090109537901 -0.0955618664935107 0.02923283737121418
0.005835591307912621 -0.0998233255750751 0.031684437655492455
0.005646315885461864 -0.10372289016439917 0.033925240171825556
0.005556570152728891 -0.10727292362534545 0.03592127685717253
0.005484703593381549 -0.11048972887627918 0.037627755811453785
0.005393245002100456 -0.11337915853047946 0.0390285971118401
0.005297730961761147 -0.11593642452942343 0.040136955841006045
0.00521698140800628 -0.11815137590143215 0.04098072156442513
0.005155604557614359 -0.12001117349560426 0.04159516955928377
0.005485628962270063 -0.01395484534546922 0.0038410426899025615
0.005312774690522743 -0.022571861882890485 0.008184436421483077
0.006196413562335568 -0.03147491640999942 0.010536852521689972
0.006457021259275767 -0.04029798007182372 0.011903947004428575
0.006414690581931144 -0.04836636212861707 0.014139417442266895
0.006371643086760199 -0.05590259498745554 0.01663186107166656
0.006301402129423808 -0.06298894254678028 0.01915525968922433
0.00614279921665101 -0.06962332104367727 0.02171533838649379
0.005916795403470228 -0.0758217537344159 0.024268073628688838
0.005647913503504593 -0.0816055948582202 0.026754795125731597
0.005381266505789829 -0.0869844073226161 0.029149229005130558
0.005171795853183163 -0.091960452385723 0.03144516251126281
0.005025757650311314 -0.09653913555311978 0.03362774413960975
0.004932542381279714 -0.10073259240111654 0.035663631668287316
0.00490346403705614 -0.10455797198866225 0.03750570844506837
0.004914985140555201 -0.10803591463485834 0.03909726565929131
0.0049224460918573685 -0.11118262404659905 0.04039378399215277
0.004916956732429355 -0.1140020486817751 0.04138441514475641
0.004910301924250248 -0.11648713481193952 0.04208853907673317
0.004909940276999731 -0.1186233558803936 0.04254606717459518

CELLS 40 140
4 0 21 22 1
4 1 22 23 2
4 2 23 24 3
4 3 24 25 4
4 4 25 26 5
4 5 26 27 6
4 6 27 28 7
4 7 28 29 8
4 8 29 30 9
4 9 30 31 10
4 10 31 32 11
4 11 32 33 12
4 12 33 34 13
4 13 34 35 14
4 14 35 36 15
4 15 36 37 16
4 16 37 38 17
4 17 38 39 18
4 18 39 40 19
4 19 40 41 20
1 42
1 43
1 44
1 45
1 46
1 47
1 48
1 49
1 50
1 51
1 52
1 53
1 54
1 55
1 56
1 57
1 58
1 59
1 60
1 61

CELL_TYPES 40
9
9
9
9
9
9
9
9
9
9
9
9
9
9
9
9
9
9
9
9
1
1
1
1
1
1
1
1
1
1
1
1
1
1
1
1
1
1
1
1

CELL_DATA 40

VECTORS S float
-2.33527979762076e-18 1.0957355097417117e-16 -1.772385509012763e-17
1.1723666743803e-18 -5.4820128664979146e-17 8.65256959264188e-18
0.0 -0.0 0.0
0.0 -0.0 0.0
5.4356284381642895e-18 -4.3915168711305716e-16 6.581394954332087e-17
4.8469178616246896e-18 -4.392089525595485e-16 6.547694009374525e-17
8.767310547625109e-18 -8.784793323679892e-16 1.3060666938968117e-16
-1.19982277381075e-17 1.3177737741783418e-15 -1.9561533520199576e-16
0.0 -0.0 0.0
-3.2653666487315498e-18 4.392366762062442e-16 -6.538888255042504e-17
0.0 -0.0 0.0
0.0 -0.0 0.0
-2.4988153394858797e-18 4.391229777469134e-16 -6.618151284033797e-17
-4.56463712404787e-18 8.78139831048275e-16 -1.3308082670108586e-16
2.11030027060292e-18 -4.3901185510399733e-16 6.692805104115719e-17
1.93588744223036e-18 -4.3895346337123424e-16 6.731519620013353e-17
0.0 -0.0 0.0
1.9689241170394697e-18 -4.388360239022891e-16 6.807564739834522e-17
1.0190407760431599e-18 -2.1939246307476874e-16 3.4201100540716997e-17
0.0 -0.0 0.0
-2.33527979762076e-18 1.0957355097417117e-16 -1.772385509012763e-17
1.1723666743803e-18 -5.4820128664979146e-17 8.65256959264188e-18
0.0 -0.0 0.0
0.0 -0.0 0.0
5.4356284381642895e-18 -4.3915168711305716e-16 6.581394954332087e-17
4.8469178616246896e-18 -4.392089525595485e-16 6.547694009374525e-17
8.767310547625109e-18 -8.784793323679892e-16 1.3060666938968117e-16
-1.19982277381075e-17 1.3177737741783418e-15 -1.9561533520199576e-16
0.0 -0.0 0.0
-3.2653666487315498e-18 4.392366762062442e-16 -6.538888255042504e-17
0.0 -0.0 0.0
0.0 -0.0 0.0
-2.4988153394858797e-18 4.391229777469134e-16 -6.618151284033797e-17
-4.56463712404787e-18 8.78139831048275e-16 -1.3308082670108586e-16
2.11030027060292e-18 -4.3901185510399733e-16 6.692805104115719e-17
1.93588744223036e-18 -4.3895346337123424e-16 6.731519620013353e-17
0.0 -0.0 0.0
1.9689241170394697e-18 -4.388360239022891e-16 6.807564739834522e-17
1.0190407760431599e-18 -2.1939246307476874e-16 3.4201100540716997e-17
0.0 -0.0 0.0

SCALARS Gamma float
LOOKUP_TABLE default
0.11429740910210127
0.07966988155497133
0.4885778153659709
0.6464147728793398
0.7677301233029574
0.813310777464209
0.8246529816540905
0.8348774046692309
0.8232541183780768
0.80039728999343
0.7619113406815231
0.7195877861829216
0.6789381774676035
0.6244188650384056
0.5835791336781657
0.5436721847392667
0.4322621675580136
0.33518964117271727
0.24020783150047376
0.18223153752328183
0.11429740910210127
0.07966988155497133
0.4885778153659709
0.6464147728793398
0.7677301233029574
0.813310777464209
0.8246529816540905
0.8348774046692309
0.8232541183780768
0.80039728999343
0.7619113406815231
0.7195877861829216
0.6789381774676035
0.6244188650384056
0.5835791336781657
0.5436721847392667
0.4322621675580136
0.33518964117271727
0.24020783150047376
0.18223153752328183

VECTORS Ftot float
-1.8917393931065842 -0.4877938247939375 -2.766416250275617
-1.924958421137386 -0.39254994745412386 -2.226261380288438
-17.73137439074243 -2.338174088824386 -13.260444201050815
-30.415934251527844 -3.0530408735776478 -17.314655200870515
-43.80079187762665 -3.6126975399331283 -20.48862587800017
-53.997973751801595 -3.8562069273188904 -21.869636239587283
-62.04193707381643 -3.948120980187388 -22.39090673658777
-69.80550587181072 -4.019224293853031 -22.7941536666943
-75.45206937610192 -3.9323951117563656 -22.30172090485721
-79.3947893201256 -3.790366584231185 -21.496237098836588
-80.93779097126738 -3.5821155897432537 -20.315187019879886
-81.16271965159561 -3.3488447229704597 -18.992242194104886
-80.65244507743155 -3.159411036638724 -17.917910372788562
-77.66692062602883 -2.872921854373394 -16.29314948189007
-75.53438049564762 -2.6815184150418054 -15.20764663619654
-72.87446453429368 -2.466807550354686 -13.989960812822092
-59.55893482200634 -2.1099630818496617 -11.966195266158424
-47.27021057456566 -1.764058672087328 -10.004473875747724
-34.51693798027327 -1.3832639990517452 -7.844879969553774
-26.61039401231172 -1.1101079198779964 -6.295734863817653
-1.8917393931065842 -0.4877938247939375 -2.766416250275617
-1.924958421137386 -0.39254994745412386 -2.226261380288438
-17.73137439074243 -2.338174088824386 -13.260444201050815
-30.415934251527844 -3.0530408735776478 -17.314655200870515
-43.80079187762665 -3.6126975399331283 -20.48862587800017
-53.997973751801595 -3.8562069273188904 -21.869636239587283
-62.04193707381643 -3.948120980187388 -22.39090673658777
-69.80550587181072 -4.019224293853031 -22.7941536666943
-75.45206937610192 -3.9323951117563656 -22.30172090485721
-79.3947893201256 -3.790366584231185 -21.496237098836588
-80.93779097126738 -3.5821155897432537 -20.315187019879886
-81.16271965159561 -3.3488447229704597 -18.992242194104886
-80.65244507743155 -3.159411036638724 -17.917910372788562
-77.66692062602883 -2.872921854373394 -16.29314948189007
-75.53438049564762 -2.6815184150418054 -15.20764663619654
-72.87446453429368 -2.466807550354686 -13.989960812822092
-59.55893482200634 -2.1099630818496617 -11.966195266158424
-47.27021057456566 -1.764058672087328 -10.004473875747724
-34.51693798027327 -1.3832639990517452 -7.844879969553774
-26.61039401231172 -1.1101079198779964 -6.295734863817653

VECTORS D float
-0.021880722445721444 0.0018605442850994477 0.01438536096415646
0.2525821394142942 -0.03799740021003844 -0.27496354993379385
0.7701230897475114 -0.16233433555339735 -1.1470999791165883
0.5777868796472874 -0.15450975870677994 -1.075150663474408
0.4514744262300543 -0.14419683734437172 -0.9994588090047761
0.4231567163985717 -0.1563169376794166 -1.07987337543933
0.4377295489935014 -0.18321795088865134 -1.2617341429534301
0.4515771013109791 -0.21093905842159036 -1.4487007562472394
0.4032372518047726 -0.20881762528766903 -1.4281266774870196
0.37707094548276326 -0.21501096919707421 -1.4631230052572481
0.37086585598929184 -0.2316098298785791 -1.5670107957904897
0.3585918480053523 -0.2441222615787443 -1.6410991355126872
0.3880177557428244 -0.28616490957529583 -1.9133919202620715
0.3623221021741754 -0.28824153807394065 -1.9144023281132336
0.3691201728088831 -0.3148673089191065 -2.076998114217617
0.33962128468811653 -0.30858143061678844 -2.021985583712246
0.42228068239774386 -0.40579958219316725 -2.6424244211559578
0.44452416248234905 -0.44851630329505326 -2.9041272921082535
0.4184832181406273 -0.4401317865457373 -2.8358165865357705
0.36435612000557355 -0.3966166718396807 -2.544844549486438
-0.021880722445721444 0.0018605442850994477 0.01438536096415646
0.2525821394142942 -0.03799740021003844 -0.27496354993379385
0.7701230897475114 -0.16233433555339735 -1.1470999791165883
0.5777868796472874 -0.15450975870677994 -1.075150663474408
0.4514744262300543 -0.14419683734437172 -0.9994588090047761
0.4231567163985717 -0.1563169376794166 -1.07987337543933
0.4377295489935014 -0.18321795088865134 -1.2617341429534301
0.4515771013109791 -0.21093905842159036 -1.4487007562472394
0.4032372518047726 -0.20881762528766903 -1.4281266774870196
0.37707094548276326 -0.21501096919707421 -1.4631230052572481
0.37086585598929184 -0.2316098298785791 -1.5670107957904897
0.3585918480053523 -0.2441222615787443 -1.6410991355126872
0.3880177557428244 -0.28616490957529583 -1.9133919202620715
0.3623221021741754 -0.28824153807394065 -1.9144023281132336
0.3691201728088831 -0.3148673089191065 -2.076998114217617
0.33962128468811653 -0.30858143061678844 -2.021985583712246
0.42228068239774386 -0.40579958219316725 -2.6424244211559578
0.44452416248234905 -0.44851630329505326 -2.9041272921082535
0.4184832181406273 -0.4401317865457373 -2.8358165865357705
0.36435612000557355 -0.3966166718396807 -2.544844549486438

VECTORS L float
-1.8698586706608626 -0.4896543690790371 -2.7808016112397738
-2.177540560551681 -0.3545525472440854 -1.9512978303546449
-18.501497480489945 -2.175839753270989 -12.113344221934229
-30.99372113117514 -2.8985311148708686 -16.239504537396108
-44.25226630385671 -3.468500702588757 -19.489167068995393
-54.42113046820017 -3.6998899896394732 -20.789762864147953
-62.47966662280995 -3.7649030292987375 -21.129172593634348
-70.25708297312171 -3.808285235431444 -21.34545291044707
-75.85530662790671 -3.7235774864686975 -20.873594227370198
-79.77186026560837 -3.575355615034112 -20.033114093579343
-81.30865682725667 -3.350505759864675 -18.7481762240894
-81.52131149960097 -3.1047224613917157 -17.351143058592204
-81.04046283317437 -2.8732461270634286 -16.00451845252649
-78.02924272820299 -2.584680316299454 -14.378747153776832
-75.90350066845652 -2.3666511061226987 -13.130648521978925
-73.2140858189818 -2.1582261197378974 -11.96797522910985
-59.98121550440409 -1.7041634996564943 -9.323770845002466
-47.71473473704801 -1.315542368792274 -7.10034658363947
-34.935421198413906 -0.9431322125060076 -5.009063383018005
-26.974750132317297 -0.7134912480383157 -3.750890314331215
-1.8698586706608626 -0.4896543690790371 -2.7808016112397738
-2.177540560551681 -0.3545525472440854 -1.9512978303546449
-18.501497480489945 -2.175839753270989 -12.113344221934229
-30.99372113117514 -2.8985311148708686 -16.239504537396108
-44.25226630385671 -3.468500702588757 -19.489167068995393
-54.42113046820017 -3.6998899896394732 -20.789762864147953
-62.47966662280995 -3.7649030292987375 -21.129172593634348
-70.25708297312171 -3.808285235431444 -21.34545291044707
-75.85530662790671 -3.7235774864686975 -20.873594227370198
-79.77186026560837 -3.575355615034112 -20.033114093579343
-81.30865682725667 -3.350505759864675 -18.7481762240894
-81.52131149960097 -3.1047224613917157 -17.351143058592204
-81.04046283317437 -2.8732461270634286 -16.00451845252649
-78.02924272820299 -2.584680316299454 -14.378747153776832
-75.90350066845652 -2.3666511061226987 -13.130648521978925
-73.2140858189818 -2.1582261197378974 -11.96797522910985
-59.98121550440409 -1.7041634996564943 -9.323770845002466
-47.71473473704801 -1.315542368792274 -7.10034658363947
-34.935421198413906 -0.9431322125060076 -5.009063383018005
-26.974750132317297 -0.7134912480383157 -3.750890314331215

SCALARS mu float
LOOKUP_TABLE default
-0.049529922227951884
0.5374272468567522
1.30093476622014
0.8575918641646538
0.6559656943599443
0.6315887392241634
0.6870214664636912
0.7574507215365799
0.7373024370452054
0.7657662740181715
0.849864086429676
0.9367492634621283
1.1582581967752605
1.2313838428270942
1.4238704376790199
1.4901763073944567
2.128126172652546
2.618657853260334
2.952924654004193
3.169927134450371
-0.049529922227951884
0.5374272468567522
1.30093476622014
0.8575918641646538
0.6559656943599443
0.6315887392241634
0.6870214664636912
0.7574507215365799
0.7373024370452054
0.7657662740181715
0.849864086429676
0.9367492634621283
1.1582581967752605
1.2313838428270942
1.4238704376790199
1.4901763073944567
2.128126172652546
2.618657853260334
2.952924654004193
3.169927134450371