# vtk DataFile Version 4.0
[MyVLM domain - lattices] 
ASCII
DATASET UNSTRUCTURED_GRID
POINTS 62 float
0.00022673658128986117 0.011049961276807916 -0.0077719648660749645
-0.003724999406033424 0.02079802174627005 -0.006683598672347846
-0.00549739299719125 0.030219698394380726 -0.006117791080508472
-0.005451904080891177 0.03930973641938743 -0.00604474062891221
-0.004354059046121628 0.04791796294704936 -0.005612774626077333
-0.0029556321221654493 0.0559614669486508 -0.00435168126220273
-0.0016722727371407085 0.06349008141019286 -0.0025440774448135597
-0.0006485493516483927 0.070586698940575 -0.0006600705197422705
0.0001374053121431227 0.07726510482681932 0.001222159265344646
0.0007511984436382017 0.08351973810723552 0.003134149691381014
0.0012455433643025467 0.08935750815421103 0.005036715760360858
0.0016598526811940704 0.09479251348890426 0.006849900785555208
0.002022453218220871 0.09984066461101856 0.008483471839255212
0.002352563731918074 0.10451153063039734 0.009883159802776284
0.002662053738196183 0.10879577034549727 0.011101941262604094
0.002957000443680671 0.11267296267191408 0.012255629943457712
0.0032390594424296184 0.11612335653563521 0.013456239752302545
0.0035066635059833096 0.11913463428455504 0.01477362756558546
0.0037560624618667195 0.12170469755975069 0.016219693768116973
0.003982215822832984 0.12384154066122319 0.0177491004316406
0.004179548496302947 0.12556115472455734 0.01927115731963904
0.008285994416043337 0.008394111894557806 0.0072901054511232705
0.007508437091591354 0.018338618884444373 0.0072643680650401315
0.00973309288421085 0.027695538434107204 0.008197431411997936
0.010440442308044806 0.035865325838359344 0.013489482478571574
0.01004693542569484 0.04399490228112815 0.01663600800581934
0.0094954698488839 0.05192850645538005 0.018520374262520525
0.009038213335578684 0.05953163857818414 0.01990536742235387
0.008539133039147835 0.06678317929860506 0.02091076127632112
0.008012046218423283 0.07367484321335854 0.0215835446814365
0.007469873605570215 0.08019048036285169 0.022015308609926856
0.0069256484677951155 0.08631687968606536 0.022280976711967757
0.0064559301991455546 0.09204730237178513 0.02241876668508559
0.006108090109537901 0.09737542270204368 0.022464553458584436
0.005835591307912621 0.10229175466600546 0.022472134873256507
0.005646315885461864 0.10678927792222483 0.022481325263909974
0.005556570152728891 0.11086171542636256 0.022527723517986955
0.005484703593381549 0.11450078996983894 0.02265827201802273
0.005393245002100456 0.11770353010301761 0.022889822692317898
0.005297730961761147 0.12047236678692022 0.023208588875825942
0.00521698140800628 0.12281245380493652 0.023585342010506827
0.005155604557614359 0.12473030976481604 0.023983113234740876
0.005485628962270063 0.014005771920010561 0.0036509821262584244
0.005312774690522743 0.02364002401203819 0.004198001084782235
0.006196413562335568 0.032526503453895975 0.00661227624528598
0.006457021259275767 0.04085104796561241 0.0098398695247729
0.006414690581931144 0.0489562070131531 0.01193808636459244
0.006371643086760199 0.05672899793244204 0.013547683293450862
0.006301402129423808 0.06412765424764193 0.014905529766433643
0.00614279921665101 0.07115323391291063 0.016005625827359402
0.005916795403470228 0.07779760170783569 0.016894108603851963
0.005647913503504593 0.08404991580102471 0.017632465177178213
0.005381266505789829 0.08990532097708334 0.018248230842134512
0.005171795853183163 0.09536266916517616 0.01874791663197756
0.005025757650311314 0.10041921591819541 0.019147087079694293
0.004932542381279714 0.10506879984257315 0.019480685184609978
0.00490346403705614 0.10930271413289668 0.019798089693969075
0.004914985140555201 0.1131104794245192 0.020158732037973665
0.0049224460918573685 0.11648386887984498 0.020609268931113738
0.004916956732429355 0.11942087781426491 0.021161069504766747
0.004910301924250248 0.121925087499568 0.02179382335734448
0.004909940276999731 0.12400387326187978 0.022465702935877845

CELLS 40 140
4 0 21 22 1
4 1 22 23 2
4 2 23 24 3
4 3 24 25 4
4 4 25 26 5
4 5 26 27 6
4 6 27 28 7
4 7 28 29 8
4 8 29 30 9
4 9 30 31 10
4 10 31 32 11
4 11 32 33 12
4 12 33 34 13
4 13 34 35 14
4 14 35 36 15
4 15 36 37 16
4 16 37 38 17
4 17 38 39 18
4 18 39 40 19
4 19 40 41 20
1 42
1 43
1 44
1 45
1 46
1 47
1 48
1 49
1 50
1 51
1 52
1 53
1 54
1 55
1 56
1 57
1 58
1 59
1 60
1 61

CELL_TYPES 40
9
9
9
9
9
9
9
9
9
9
9
9
9
9
9
9
9
9
9
9
1
1
1
1
1
1
1
1
1
1
1
1
1
1
1
1
1
1
1
1

CELL_DATA 40

VECTORS S float
2.1534324657289398e-18 1.0380239065891358e-16 3.93240138616107e-17
0.0 0.0 0.0
1.4603732599870458e-17 8.277314232282259e-16 3.217271005304635e-16
0.0 0.0 0.0
0.0 0.0 0.0
-9.53817139720136e-18 -8.263539445136162e-16 -3.254367632800523e-16
1.7297497687725238e-17 1.6524290548828347e-15 6.516307512977047e-16
-1.574027656198205e-17 -1.6523205664415992e-15 -6.519452509926831e-16
-1.423703563937343e-17 -1.6523528127040456e-15 -6.518980825629711e-16
0.0 0.0 0.0
0.0 0.0 0.0
-5.35526305794012e-18 -8.266182021533243e-16 -3.2486085367030287e-16
0.0 0.0 0.0
0.0 0.0 0.0
4.20176699495665e-18 8.273652754843267e-16 3.2297051149892295e-16
3.85336313975646e-18 8.276512428380398e-16 3.222413335408308e-16
0.0 0.0 0.0
-3.9209733723888495e-18 -8.281988174658833e-16 -3.208305626603194e-16
2.03103731789869e-18 4.1421508481882597e-16 1.6011547302243788e-16
-2.05096685241491e-18 -4.1431041379149605e-16 -1.5986838606848633e-16
2.1534324657289398e-18 1.0380239065891358e-16 3.93240138616107e-17
0.0 0.0 0.0
1.4603732599870458e-17 8.277314232282259e-16 3.217271005304635e-16
0.0 0.0 0.0
0.0 0.0 0.0
-9.53817139720136e-18 -8.263539445136162e-16 -3.254367632800523e-16
1.7297497687725238e-17 1.6524290548828347e-15 6.516307512977047e-16
-1.574027656198205e-17 -1.6523205664415992e-15 -6.519452509926831e-16
-1.423703563937343e-17 -1.6523528127040456e-15 -6.518980825629711e-16
0.0 0.0 0.0
0.0 0.0 0.0
-5.35526305794012e-18 -8.266182021533243e-16 -3.2486085367030287e-16
0.0 0.0 0.0
0.0 0.0 0.0
4.20176699495665e-18 8.273652754843267e-16 3.2297051149892295e-16
3.85336313975646e-18 8.276512428380398e-16 3.222413335408308e-16
0.0 0.0 0.0
-3.9209733723888495e-18 -8.281988174658833e-16 -3.208305626603194e-16
2.03103731789869e-18 4.1421508481882597e-16 1.6011547302243788e-16
-2.05096685241491e-18 -4.1431041379149605e-16 -1.5986838606848633e-16

SCALARS Gamma float
LOOKUP_TABLE default
0.11417150220940195
0.0790506436556356
0.48762399773618365
0.646919101903372
0.7670333629955508
0.8124584445899032
0.8236219452917867
0.8358724070243779
0.8235943244272295
0.8004927288370992
0.7620546430236776
0.7198923200893016
0.6774886723964684
0.622970743283965
0.5822078300777593
0.5424562769959662
0.4313885688047125
0.3345075036441323
0.23959309760997582
0.18175296367244295
0.11417150220940195
0.0790506436556356
0.48762399773618365
0.646919101903372
0.7670333629955508
0.8124584445899032
0.8236219452917867
0.8358724070243779
0.8235943244272295
0.8004927288370992
0.7620546430236776
0.7198923200893016
0.6774886723964684
0.622970743283965
0.5822078300777593
0.5424562769959662
0.4313885688047125
0.3345075036441323
0.23959309760997582
0.18175296367244295

VECTORS Ftot float
-1.8904450860059567 -0.9602534134290229 2.6382745703504895
-1.9039906232176318 -0.7660810299197194 2.10479033117699
-17.683757683117935 -4.594642495605238 12.623676507142145
-30.44975346779162 -6.018698337930774 16.536237777974023
-43.75295842771018 -7.110690390906321 19.536461285748263
-53.93241516889167 -7.589928515336003 20.85315721116061
-61.95239643361991 -7.770343470811581 21.34884322746168
-69.90550452520294 -7.922652586061484 21.767309082387904
-75.48800341054411 -7.747306966111391 21.285550950974745
-79.39929283101922 -7.4650509046823466 20.510058795694242
-80.94007883704141 -7.053917066335045 19.380477858461315
-81.17765583814989 -6.593810981893516 18.116346780904518
-80.46329372735524 -6.2171829115261685 17.081569662037456
-77.46899278797555 -5.653046321234836 15.53161711872388
-75.33829813498728 -5.276874741685267 14.498094198070856
-72.69305840817624 -4.854678721262787 13.338120165376475
-59.42304934463994 -4.152483035856994 11.40885337568558
-47.16150752052192 -3.470968754136798 9.536408275623486
-34.41918497985569 -2.720255306398105 7.473840029480479
-26.532998311049326 -2.183337293801396 5.998669913772555
-1.8904450860059567 -0.9602534134290229 2.6382745703504895
-1.9039906232176318 -0.7660810299197194 2.10479033117699
-17.683757683117935 -4.594642495605238 12.623676507142145
-30.44975346779162 -6.018698337930774 16.536237777974023
-43.75295842771018 -7.110690390906321 19.536461285748263
-53.93241516889167 -7.589928515336003 20.85315721116061
-61.95239643361991 -7.770343470811581 21.34884322746168
-69.90550452520294 -7.922652586061484 21.767309082387904
-75.48800341054411 -7.747306966111391 21.285550950974745
-79.39929283101922 -7.4650509046823466 20.510058795694242
-80.94007883704141 -7.053917066335045 19.380477858461315
-81.17765583814989 -6.593810981893516 18.116346780904518
-80.46329372735524 -6.2171829115261685 17.081569662037456
-77.46899278797555 -5.653046321234836 15.53161711872388
-75.33829813498728 -5.276874741685267 14.498094198070856
-72.69305840817624 -4.854678721262787 13.338120165376475
-59.42304934463994 -4.152483035856994 11.40885337568558
-47.16150752052192 -3.470968754136798 9.536408275623486
-34.41918497985569 -2.720255306398105 7.473840029480479
-26.532998311049326 -2.183337293801396 5.998669913772555

VECTORS D float
-0.021929318941874044 0.005543914082271545 -0.013433222504845549
0.25134151906636787 -0.10351583141917972 0.25590466519818666
0.766993636637724 -0.4294425700798299 1.0700439570806624
0.5784211201263654 -0.40397101040415967 1.009839097366366
0.451312949196806 -0.3739242855226998 0.93718255882055
0.4230353193343123 -0.40372004038812515 1.0127333530152671
0.4380558735886453 -0.4717469003540631 1.1846448509346104
0.45134979693323196 -0.5410652117496672 1.36040381485973
0.40318300934141815 -0.5327257407614279 1.3414838433572678
0.37695379360565273 -0.5448142242186507 1.3744937988861854
0.37065367433014823 -0.5823685107604659 1.4724877263537035
0.3581564311084394 -0.6084133757986661 1.5422219799764354
0.3884483849227707 -0.7085416232047436 1.799762762509177
0.36278629439983634 -0.7072180880654682 1.8018116573020673
0.36974617459210773 -0.7656575229426529 1.9566023448716308
0.3400546593827456 -0.74325625375056 1.904928214294548
0.4224244963739813 -0.9682290619747748 2.4883146052744736
0.4444071788248115 -1.061325697216724 2.734297416655913
0.4182333712699177 -1.0341816494582874 2.67009917276319
0.3643162302309911 -0.9271282462476971 2.398045644023913
-0.021929318941874044 0.005543914082271545 -0.013433222504845549
0.25134151906636787 -0.10351583141917972 0.25590466519818666
0.766993636637724 -0.4294425700798299 1.0700439570806624
0.5784211201263654 -0.40397101040415967 1.009839097366366
0.451312949196806 -0.3739242855226998 0.93718255882055
0.4230353193343123 -0.40372004038812515 1.0127333530152671
0.4380558735886453 -0.4717469003540631 1.1846448509346104
0.45134979693323196 -0.5410652117496672 1.36040381485973
0.40318300934141815 -0.5327257407614279 1.3414838433572678
0.37695379360565273 -0.5448142242186507 1.3744937988861854
0.37065367433014823 -0.5823685107604659 1.4724877263537035
0.3581564311084394 -0.6084133757986661 1.5422219799764354
0.3884483849227707 -0.7085416232047436 1.799762762509177
0.36278629439983634 -0.7072180880654682 1.8018116573020673
0.36974617459210773 -0.7656575229426529 1.9566023448716308
0.3400546593827456 -0.74325625375056 1.904928214294548
0.4224244963739813 -0.9682290619747748 2.4883146052744736
0.4444071788248115 -1.061325697216724 2.734297416655913
0.4182333712699177 -1.0341816494582874 2.67009917276319
0.3643162302309911 -0.9271282462476971 2.398045644023913

VECTORS L float
-1.8685157670640826 -0.9657973275112945 2.6517077928553348
-2.1553321422839997 -0.6625651985005399 1.848885665978804
-18.45075131975566 -4.165199925525409 11.553632550061481
-31.028174587917995 -5.614727327526616 15.526398680607661
-44.204271376906995 -6.736766105383621 18.599278726927714
-54.35545048822598 -7.186208474947877 19.840423858145346
-62.390452307208555 -7.298596570457521 20.16419837652707
-70.35685432213619 -7.381587374311818 20.40690526752818
-75.89118641988553 -7.214581225349964 19.94406710761748
-79.7762466246249 -6.920236680463696 19.13556499680806
-81.31073251137155 -6.4715485555745795 17.90799013210761
-81.53581226925834 -5.985397606094851 16.574124800928082
-80.85174211227803 -5.508641288321428 15.28180689952828
-77.83177908237539 -4.945828233169369 13.729805461421813
-75.70804430957939 -4.511217218742615 12.541491853199224
-73.03311306755899 -4.111422467512227 11.433191951081929
-59.84547384101393 -3.1842539738822198 8.920538770411106
-47.605914699346734 -2.409643056920074 6.802110858967573
-34.83741835112562 -1.6860736569398185 4.80374085671729
-26.89731454128032 -1.2562090475536987 3.600624269748642
-1.8685157670640826 -0.9657973275112945 2.6517077928553348
-2.1553321422839997 -0.6625651985005399 1.848885665978804
-18.45075131975566 -4.165199925525409 11.553632550061481
-31.028174587917995 -5.614727327526616 15.526398680607661
-44.204271376906995 -6.736766105383621 18.599278726927714
-54.35545048822598 -7.186208474947877 19.840423858145346
-62.390452307208555 -7.298596570457521 20.16419837652707
-70.35685432213619 -7.381587374311818 20.40690526752818
-75.89118641988553 -7.214581225349964 19.94406710761748
-79.7762466246249 -6.920236680463696 19.13556499680806
-81.31073251137155 -6.4715485555745795 17.90799013210761
-81.53581226925834 -5.985397606094851 16.574124800928082
-80.85174211227803 -5.508641288321428 15.28180689952828
-77.83177908237539 -4.945828233169369 13.729805461421813
-75.70804430957939 -4.511217218742615 12.541491853199224
-73.03311306755899 -4.111422467512227 11.433191951081929
-59.84547384101393 -3.1842539738822198 8.920538770411106
-47.605914699346734 -2.409643056920074 6.802110858967573
-34.83741835112562 -1.6860736569398185 4.80374085671729
-26.89731454128032 -1.2562090475536987 3.600624269748642

SCALARS mu float
LOOKUP_TABLE default
-0.049606320427073365
0.5357794773890658
1.295735161240893
0.8584452883193038
0.6555644000005799
0.631166477307848
0.6872184685427697
0.7573085914628397
0.7372911202606142
0.7656514562963738
0.8496935949364255
0.9362625271415148
1.158204847301613
1.231421504596565
1.4244230837225957
1.4900836322485285
2.1259687507888505
2.6143886049547187
2.947075462496622
3.1651148054325726
-0.049606320427073365
0.5357794773890658
1.295735161240893
0.8584452883193038
0.6555644000005799
0.631166477307848
0.6872184685427697
0.7573085914628397
0.7372911202606142
0.7656514562963738
0.8496935949364255
0.9362625271415148
1.158204847301613
1.231421504596565
1.4244230837225957
1.4900836322485285
2.1259687507888505
2.6143886049547187
2.947075462496622
3.1651148054325726