# vtk DataFile Version 4.0
[MyVLM domain - lattices] 
ASCII
DATASET UNSTRUCTURED_GRID
POINTS 62 float
0.00022673658128986117 -0.01223167507177051 0.0057350856172413076
-0.003724999406033424 -0.02164264779275368 0.00297052121523329
-0.00549739299719125 -0.030822936544954164 0.0007772525315652007
-0.005451904080891177 -0.03976219138935915 -0.0008731566574933739
-0.004354059046121628 -0.04816462950427967 -0.002793362975595492
-0.0029556321221654493 -0.055866948041936836 -0.005432037309546223
-0.0016722727371407085 -0.0629672988242699 -0.008519509744889235
-0.0006485493516483927 -0.0696289484191021 -0.011607209073178207
0.0001374053121431227 -0.07587904854150715 -0.014620536570348756
0.0007511984436382017 -0.08170664623511138 -0.017589585236713716
0.0012455433643025467 -0.08712535030690605 -0.020476965182358933
0.0016598526811940704 -0.09216292942277671 -0.02320638262479551
0.002022453218220871 -0.09685072114964771 -0.025691738306518035
0.002352563731918074 -0.10120757295464543 -0.027881249237182982
0.002662053738196183 -0.10521508626236534 -0.02982546508726435
0.002957000443680671 -0.10883303938831489 -0.031634894026677934
0.0032390594424296184 -0.11202253031085826 -0.03341641848143917
0.0035066635059833096 -0.1147592979914105 -0.0352366951072329
0.0037560624618667195 -0.11703920946969977 -0.0371070791190813
0.003982215822832984 -0.11887801044296802 -0.03898430956935876
0.004179548496302947 -0.12030719729982198 -0.04078185084157367
0.008285994416043337 -0.007000672946825229 -0.008636974602165087
0.007508437091591354 -0.016798569780540906 -0.010338473741398013
0.00973309288421085 -0.02585131194751338 -0.012882173787908622
0.010440442308044806 -0.03297802689985154 -0.01951249540228154
0.01004693542569484 -0.04043770838560665 -0.02402290427105681
0.0094954698488839 -0.047923566519206755 -0.027256298677360354
0.009038213335578684 -0.05517068844263419 -0.02994052071671895
0.008539133039147835 -0.062137477154809516 -0.03218985721031537
0.008012046218423283 -0.06880761359695041 -0.03404914440366085
0.007469873605570215 -0.07514928855822098 -0.035605777385257616
0.0069256484677951155 -0.08113648132798695 -0.036931247470011516
0.0064559301991455546 -0.08675591903918817 -0.03806202156046178
0.006108090109537901 -0.09199514245962943 -0.03903233111572839
0.005835591307912621 -0.09683546779527881 -0.039893509438023896
0.005646315885461864 -0.10126306767276737 -0.040683546923449776
0.005556570152728891 -0.10526557872823251 -0.041436411635047014
0.005484703593381549 -0.10882669804330904 -0.042196895472895145
0.005393245002100456 -0.11194057300471787 -0.042981078359823455
0.005297730961761147 -0.11461199167098181 -0.04377580521315733
0.00521698140800628 -0.11685110501377984 -0.0445531864674233
0.005155604557614359 -0.11867075218401327 -0.0452779468454349
0.005485628962270063 -0.013159006380827828 -0.006027592274776838
0.005312774690522743 -0.02255190369023384 -0.008239271105140175
0.006196413562335568 -0.030884143059551006 -0.012159988962062333
0.006457021259275767 -0.03852175334375168 -0.01678408983163799
0.006414690581931144 -0.046139425282582094 -0.020257876141299147
0.006371643086760199 -0.05351462646896621 -0.02319275065458417
0.006301402129423808 -0.060565093004462896 -0.025814731574896308
0.00614279921665101 -0.06729290865198613 -0.02811809381068196
0.005916795403470228 -0.07368205015526659 -0.03014686089672723
0.005647913503504593 -0.07971116327508015 -0.03195970312311001
0.005381266505789829 -0.08537068510390103 -0.0335828943623218
0.005171795853183163 -0.09065835438360965 -0.035022647369985505
0.005025757650311314 -0.09556876560862725 -0.03629381365061973
0.004932542381279714 -0.10008978320264365 -0.03742973542610854
0.00490346403705614 -0.10420425810670998 -0.03847752934867908
0.004914985140555201 -0.10789155000172473 -0.039493904228992946
0.0049224460918573685 -0.1111354551807937 -0.040523379385853486
0.004916956732429355 -0.11393202518602616 -0.04157680311815708
0.004910301924250248 -0.11628831374586908 -0.042634795466272746
0.004909940276999731 -0.11821884741702117 -0.043657445043688375

CELLS 40 140
4 0 21 22 1
4 1 22 23 2
4 2 23 24 3
4 3 24 25 4
4 4 25 26 5
4 5 26 27 6
4 6 27 28 7
4 7 28 29 8
4 8 29 30 9
4 9 30 31 10
4 10 31 32 11
4 11 32 33 12
4 12 33 34 13
4 13 34 35 14
4 14 35 36 15
4 15 36 37 16
4 16 37 38 17
4 17 38 39 18
4 18 39 40 19
4 19 40 41 20
1 42
1 43
1 44
1 45
1 46
1 47
1 48
1 49
1 50
1 51
1 52
1 53
1 54
1 55
1 56
1 57
1 58
1 59
1 60
1 61

CELL_TYPES 40
9
9
9
9
9
9
9
9
9
9
9
9
9
9
9
9
9
9
9
9
1
1
1
1
1
1
1
1
1
1
1
1
1
1
1
1
1
1
1
1

CELL_DATA 40

VECTORS S float
4.78967886322347e-18 -1.9061716179634056e-16 -1.137803286223421e-16
-2.34859294181389e-18 9.511201547650332e-17 5.722010369851988e-17
3.026889808373855e-17 -1.5178431945411546e-15 -9.223228564217339e-16
2.519419234298034e-17 -1.5159774417466937e-15 -9.25538367476672e-16
2.1872964569485698e-17 -1.5147380812693545e-15 -9.27649577942783e-16
0.0 -0.0 -0.0
0.0 -0.0 -0.0
0.0 -0.0 -0.0
2.874946533749914e-17 -3.0276254505204146e-15 -1.858610255847109e-15
0.0 -0.0 -0.0
-1.1832697738083149e-17 1.514610458231672e-15 9.280402835887735e-16
0.0 -0.0 -0.0
0.0 -0.0 -0.0
-4.5457608067226e-18 7.582931232863137e-16 4.624194853770628e-16
0.0 -0.0 -0.0
-3.8538378964292995e-18 7.591111149932639e-16 4.610817370577187e-16
0.0 -0.0 -0.0
3.91670664938723e-18 -7.599068463257407e-16 -4.59768582590526e-16
-2.01704517540757e-18 3.8014653858848404e-16 2.2956429825477555e-16
0.0 -0.0 -0.0
4.78967886322347e-18 -1.9061716179634056e-16 -1.137803286223421e-16
-2.34859294181389e-18 9.511201547650332e-17 5.722010369851988e-17
3.026889808373855e-17 -1.5178431945411546e-15 -9.223228564217339e-16
2.519419234298034e-17 -1.5159774417466937e-15 -9.25538367476672e-16
2.1872964569485698e-17 -1.5147380812693545e-15 -9.27649577942783e-16
0.0 -0.0 -0.0
0.0 -0.0 -0.0
0.0 -0.0 -0.0
2.874946533749914e-17 -3.0276254505204146e-15 -1.858610255847109e-15
0.0 -0.0 -0.0
-1.1832697738083149e-17 1.514610458231672e-15 9.280402835887735e-16
0.0 -0.0 -0.0
0.0 -0.0 -0.0
-4.5457608067226e-18 7.582931232863137e-16 4.624194853770628e-16
0.0 -0.0 -0.0
-3.8538378964292995e-18 7.591111149932639e-16 4.610817370577187e-16
0.0 -0.0 -0.0
3.91670664938723e-18 -7.599068463257407e-16 -4.59768582590526e-16
-2.01704517540757e-18 3.8014653858848404e-16 2.2956429825477555e-16
0.0 -0.0 -0.0

SCALARS Gamma float
LOOKUP_TABLE default
0.11526410015822112
0.07944594364784197
0.4875598336316834
0.6452496474909485
0.7659930529948655
0.8114617057248886
0.8229568126082136
0.8356261596267334
0.8232082705018641
0.7991987194045953
0.7611130715651652
0.7188480356592333
0.6781989703172911
0.6235942542088463
0.5827978668121384
0.5430309133023733
0.43186452761971456
0.33493989279681075
0.23993758026262474
0.18200155191946493
0.11526410015822112
0.07944594364784197
0.4875598336316834
0.6452496474909485
0.7659930529948655
0.8114617057248886
0.8229568126082136
0.8356261596267334
0.8232082705018641
0.7991987194045953
0.7611130715651652
0.7188480356592333
0.6781989703172911
0.6235942542088463
0.5827978668121384
0.5430309133023733
0.43186452761971456
0.33493989279681075
0.23993758026262474
0.18200155191946493

VECTORS Ftot float
-1.9076545291484428 1.41524825346593 -2.4512818803261185
-1.918837938514356 1.127738656729803 -1.9533006511155053
-17.695336809317855 6.723227052868434 -11.644970846389747
-30.355286540806148 8.780241782605408 -15.207824870211768
-43.69001898000562 10.387497526785648 -17.99167347988888
-53.86054866749217 11.088210226113839 -19.20534347663405
-61.89889455739428 11.355178448421892 -19.66774600167794
-69.88770634006065 11.581821879975159 -20.060303940329963
-75.4411052941252 11.320959561944319 -19.60847715172035
-79.25745431144449 10.904293792788591 -18.886790869767864
-80.83586428037398 10.306906766526032 -17.85208618849862
-81.06228056987423 9.63645144941006 -16.69082351504905
-80.55646764625907 9.093062056512462 -15.749645478256399
-77.55466320525304 8.267761344233103 -14.32018271306576
-75.42222966011967 7.717145906748831 -13.366488799911233
-72.77678872332059 7.099448136058284 -12.29660487735317
-59.4936766505931 6.072512066026708 -10.51789942793336
-47.22606146100303 5.076631897917084 -8.792984378517248
-34.473168655921356 3.980079559278877 -6.8937000148373935
-26.572776246504926 3.194129922034552 -5.5323953109398865
-1.9076545291484428 1.41524825346593 -2.4512818803261185
-1.918837938514356 1.127738656729803 -1.9533006511155053
-17.695336809317855 6.723227052868434 -11.644970846389747
-30.355286540806148 8.780241782605408 -15.207824870211768
-43.69001898000562 10.387497526785648 -17.99167347988888
-53.86054866749217 11.088210226113839 -19.20534347663405
-61.89889455739428 11.355178448421892 -19.66774600167794
-69.88770634006065 11.581821879975159 -20.060303940329963
-75.4411052941252 11.320959561944319 -19.60847715172035
-79.25745431144449 10.904293792788591 -18.886790869767864
-80.83586428037398 10.306906766526032 -17.85208618849862
-81.06228056987423 9.63645144941006 -16.69082351504905
-80.55646764625907 9.093062056512462 -15.749645478256399
-77.55466320525304 8.267761344233103 -14.32018271306576
-75.42222966011967 7.717145906748831 -13.366488799911233
-72.77678872332059 7.099448136058284 -12.29660487735317
-59.4936766505931 6.072512066026708 -10.51789942793336
-47.22606146100303 5.076631897917084 -8.792984378517248
-34.473168655921356 3.980079559278877 -6.8937000148373935
-26.572776246504926 3.194129922034552 -5.5323953109398865

VECTORS D float
-0.021668055423656737 -0.007768113667614799 0.012101852485701737
0.2525670789135625 0.14759750475841876 -0.2349719421838943
0.7666011403998272 0.6092897163965889 -0.9775341372810709
0.5766868905475069 0.5713922433870905 -0.9202088436849194
0.4511987025332111 0.5312144464537547 -0.8567693200401992
0.422940883105695 0.5734966925512811 -0.9261084244290769
0.43834130472763044 0.67091825363223 -1.0846822904387372
0.45154105879195044 0.7697075913818752 -1.2457876365141793
0.4031546934907973 0.7577353623392432 -1.2280941519130422
0.3774145434178252 0.7755727924191913 -1.259391518677523
0.3709332332815231 0.8294175496490288 -1.3489235071433479
0.35875602052023803 0.8678083855563519 -1.413953591338368
0.3882458497308719 1.0103756683845095 -1.6496372991621635
0.36259360111924793 1.0094537011203681 -1.6517762771867912
0.3694711423035055 1.0937319968897163 -1.7937506471424849
0.3398226305270083 1.062874975324706 -1.747045093188649
0.4222859009327519 1.3864630352877434 -2.2837321369865298
0.44439338025900477 1.5216708856165224 -2.511236324199713
0.4183578801303253 1.4836359684473461 -2.4531481396202084
0.3643265208633804 1.3303355120505316 -2.2027968864646206
-0.021668055423656737 -0.007768113667614799 0.012101852485701737
0.2525670789135625 0.14759750475841876 -0.2349719421838943
0.7666011403998272 0.6092897163965889 -0.9775341372810709
0.5766868905475069 0.5713922433870905 -0.9202088436849194
0.4511987025332111 0.5312144464537547 -0.8567693200401992
0.422940883105695 0.5734966925512811 -0.9261084244290769
0.43834130472763044 0.67091825363223 -1.0846822904387372
0.45154105879195044 0.7697075913818752 -1.2457876365141793
0.4031546934907973 0.7577353623392432 -1.2280941519130422
0.3774145434178252 0.7755727924191913 -1.259391518677523
0.3709332332815231 0.8294175496490288 -1.3489235071433479
0.35875602052023803 0.8678083855563519 -1.413953591338368
0.3882458497308719 1.0103756683845095 -1.6496372991621635
0.36259360111924793 1.0094537011203681 -1.6517762771867912
0.3694711423035055 1.0937319968897163 -1.7937506471424849
0.3398226305270083 1.062874975324706 -1.747045093188649
0.4222859009327519 1.3864630352877434 -2.2837321369865298
0.44439338025900477 1.5216708856165224 -2.511236324199713
0.4183578801303253 1.4836359684473461 -2.4531481396202084
0.3643265208633804 1.3303355120505316 -2.2027968864646206

VECTORS L float
-1.885986473724787 1.4230163671335454 -2.4633837328118204
-2.1714050174279187 0.9801411519713842 -1.718328708931611
-18.461937949717683 6.113937336471846 -10.667436709108676
-30.93197343135366 8.20884953921832 -14.287616026526846
-44.14121768253883 9.856283080331897 -17.13490415984868
-54.28348955059786 10.514713533562558 -18.27923505220497
-62.33723586212192 10.684260194789664 -18.583063711239202
-70.33924739885259 10.812114288593284 -18.81451630381578
-75.844259987616 10.563224199605079 -18.38038299980731
-79.63486885486232 10.1287210003694 -17.62739935109034
-81.2067975136555 9.477489216877 -16.50316268135527
-81.42103659039448 8.768643063853709 -15.27686992371068
-80.94471349598994 8.082686388127952 -14.100008179094234
-77.9172568063723 7.258307643112735 -12.668406435878971
-75.79170080242318 6.623413909859117 -11.572738152768752
-73.1166113538476 6.036573160733578 -10.549559784164522
-59.91596255152585 4.686049030738964 -8.234167290946829
-47.67045484126204 3.554961012300563 -6.281748054317537
-34.891526536051686 2.4964435908315323 -4.440551875217185
-26.9371027673683 1.8637944099840202 -3.329598424475266
-1.885986473724787 1.4230163671335454 -2.4633837328118204
-2.1714050174279187 0.9801411519713842 -1.718328708931611
-18.461937949717683 6.113937336471846 -10.667436709108676
-30.93197343135366 8.20884953921832 -14.287616026526846
-44.14121768253883 9.856283080331897 -17.13490415984868
-54.28348955059786 10.514713533562558 -18.27923505220497
-62.33723586212192 10.684260194789664 -18.583063711239202
-70.33924739885259 10.812114288593284 -18.81451630381578
-75.844259987616 10.563224199605079 -18.38038299980731
-79.63486885486232 10.1287210003694 -17.62739935109034
-81.2067975136555 9.477489216877 -16.50316268135527
-81.42103659039448 8.768643063853709 -15.27686992371068
-80.94471349598994 8.082686388127952 -14.100008179094234
-77.9172568063723 7.258307643112735 -12.668406435878971
-75.79170080242318 6.623413909859117 -11.572738152768752
-73.1166113538476 6.036573160733578 -10.549559784164522
-59.91596255152585 4.686049030738964 -8.234167290946829
-47.67045484126204 3.554961012300563 -6.281748054317537
-34.891526536051686 2.4964435908315323 -4.440551875217185
-26.9371027673683 1.8637944099840202 -3.329598424475266

SCALARS mu float
LOOKUP_TABLE default
-0.04909503410422306
0.5372495661548623
1.293525421837056
0.8553748065063063
0.655013271149877
0.6306931138417821
0.6874127027163593
0.757455886932425
0.7372299093437833
0.7660390367976014
0.8497588187012278
0.9368629666838493
1.1582389401887634
1.2314134543524065
1.4241752559999377
1.4900819958103448
2.1270831355262394
2.61710824072935
2.950347664409996
3.16760528237315
-0.04909503410422306
0.5372495661548623
1.293525421837056
0.8553748065063063
0.655013271149877
0.6306931138417821
0.6874127027163593
0.757455886932425
0.7372299093437833
0.7660390367976014
0.8497588187012278
0.9368629666838493
1.1582389401887634
1.2314134543524065
1.4241752559999377
1.4900819958103448
2.1270831355262394
2.61710824072935
2.950347664409996
3.16760528237315