# vtk DataFile Version 4.0
[MyVLM domain - lattices] 
ASCII
DATASET UNSTRUCTURED_GRID
POINTS 62 float
0.00022673658128986117 0.013455529609587638 -0.0012057383729371
-0.003724999406033424 0.02135341451690525 0.004610844634181893
-0.00549739299719125 0.02922992204449213 0.009811686706424282
-0.005451904080891177 0.037065600669716425 0.014419969265767975
-0.004354059046121628 0.04430456052278542 0.019098176061625217
-0.0029556321221654493 0.05063989264167684 0.024212066952085377
-0.0016722727371407085 0.05625606211197666 0.02954180500869321
-0.0006485493516483927 0.061459909711694 0.03472171163190188
0.0001374053121431227 0.06630246397342172 0.03969097338466909
0.0007511984436382017 0.07076314007259962 0.044474122305617377
0.0012455433643025467 0.07486751420024242 0.049040677877220024
0.0016598526811940704 0.07866777437719356 0.05332844483814652
0.002022453218220871 0.08222281596423753 0.057267234430594845
0.002352563731918074 0.08556806061293254 0.0608148327740648
0.002662053738196183 0.08866893031219744 0.06401244833748718
0.002957000443680671 0.09144983302180572 0.06695016820637342
0.0032390594424296184 0.09383765685642777 0.06971512373272643
0.0035066635059833096 0.09578680597820174 0.0723616539201254
0.0037560624618667195 0.09728951296258886 0.07489901562466963
0.003982215822832984 0.09837537004060377 0.07729194219873457
0.004179548496302947 0.09910357106015691 0.0794698891614134
0.008285994416043337 0.003624461417334601 0.01051047246421919
0.007508437091591354 0.012249525791729967 0.015460436728987524
0.00973309288421085 0.01988632414942643 0.020946953065624593
0.010440442308044806 0.02431554205174015 0.029614897429528067
0.01004693542569484 0.02978269900956166 0.036404656691165334
0.0094954698488839 0.03571121863968355 0.04200336782662877
0.009038213335578684 0.041603227626444805 0.047004373148514224
0.008539133039147835 0.04738054917992308 0.05150084012706911
0.008012046218423283 0.053012513501886495 0.05552931960452042
0.007469873605570215 0.05843933883094408 0.05916105670977744
0.0069256484677951155 0.06361212222755452 0.062454331696726935
0.0064559301991455546 0.06850591886125164 0.06543887265669367
0.006108090109537901 0.07309731303492652 0.0681425853308303
0.005835591307912621 0.07735119070181887 0.07060731701051386
0.005646315885461864 0.08124156490048948 0.07286403775040017
0.005556570152728891 0.0847452001073588 0.07494043856919098
0.005484703593381549 0.08783145685825675 0.07687303415838612
0.005393245002100456 0.09048933583816188 0.0786749329911785
0.005297730961761147 0.09272783565359784 0.0803354109459152
0.00521698140800628 0.0945660338909257 0.08183173224051245
0.005155604557614359 0.09602806026086375 0.08313514020553334
0.005485628962270063 0.010303863219210823 0.010164729230108117
0.005312774690522743 0.01837386079810832 0.015455587590555313
0.006196413562335568 0.024862640164713536 0.021989650932206277
0.006457021259275767 0.030458110547050915 0.02894710096118417
0.006414690581931144 0.03642827576402474 0.034816789570886617
0.006371643086760199 0.04235491169400483 0.04009713686077594
0.006301402129423808 0.04808341278034679 0.044972394558418144
0.00614279921665101 0.05361769521631806 0.04943789552641744
0.005916795403470228 0.05892764513056413 0.053529528079147515
0.005647913503504593 0.06397312968104223 0.05729512067529381
0.005381266505789829 0.06873617648048182 0.06075609197195355
0.005171795853183163 0.0732125357537457 0.06391750665391416
0.005025757650311314 0.07739204847342578 0.06679147177858652
0.004932542381279714 0.08125190721650687 0.06940516817428675
0.00490346403705614 0.08475988229469349 0.07179700568782925
0.004914985140555201 0.08787718259688501 0.07401321376522887
0.0049224460918573685 0.09057335511548568 0.07609008488769321
0.004916956732429355 0.09284097917700872 0.07803646266950953
0.004910301924250248 0.0946933114545954 0.07983654842283588
0.004909940276999731 0.09615765294451613 0.08145780608728567

CELLS 40 140
4 0 21 22 1
4 1 22 23 2
4 2 23 24 3
4 3 24 25 4
4 4 25 26 5
4 5 26 27 6
4 6 27 28 7
4 7 28 29 8
4 8 29 30 9
4 9 30 31 10
4 10 31 32 11
4 11 32 33 12
4 12 33 34 13
4 13 34 35 14
4 14 35 36 15
4 15 36 37 16
4 16 37 38 17
4 17 38 39 18
4 18 39 40 19
4 19 40 41 20
1 42
1 43
1 44
1 45
1 46
1 47
1 48
1 49
1 50
1 51
1 52
1 53
1 54
1 55
1 56
1 57
1 58
1 59
1 60
1 61

CELL_TYPES 40
9
9
9
9
9
9
9
9
9
9
9
9
9
9
9
9
9
9
9
9
1
1
1
1
1
1
1
1
1
1
1
1
1
1
1
1
1
1
1
1

CELL_DATA 40

VECTORS S float
-4.54972586632342e-18 -1.4033395485700432e-16 -1.720159518330984e-16
0.0 0.0 0.0
1.43119880130286e-17 5.562589443721753e-16 6.922658875216082e-16
0.0 0.0 0.0
0.0 0.0 0.0
-1.94014397849992e-17 -1.1051300795640004e-15 -1.3905950928509645e-15
0.0 0.0 0.0
-3.1592703699547217e-17 -2.2096944360041282e-15 -2.7817309151141018e-15
2.849893715895438e-17 2.2099171704189845e-15 2.7815873874470213e-15
1.290645727015349e-17 1.1053665901980842e-15 1.390482558509326e-15
1.174937504505191e-17 1.1060300744698187e-15 1.3899651245403192e-15
0.0 0.0 0.0
9.84772404854632e-18 1.1079544001580074e-15 1.3884465025292188e-15
-4.49218132923447e-18 -5.545553630129112e-16 -6.937644231881132e-16
1.2448782902766789e-17 1.6655117941294547e-15 2.0798229824696697e-15
-1.1414190679800949e-17 -1.6673344898626544e-15 -2.078368004506101e-15
-3.82158798541804e-18 -5.563924886673307e-16 -6.92295962172867e-16
-3.87299013857811e-18 -5.569491094685307e-16 -6.91847956295752e-16
-2.0061354457483897e-18 -2.787209586087488e-16 -3.457250771321722e-16
-2.04747117241297e-18 -2.7886619741448445e-16 -3.4560769393437536e-16
-4.54972586632342e-18 -1.4033395485700432e-16 -1.720159518330984e-16
0.0 0.0 0.0
1.43119880130286e-17 5.562589443721753e-16 6.922658875216082e-16
0.0 0.0 0.0
0.0 0.0 0.0
-1.94014397849992e-17 -1.1051300795640004e-15 -1.3905950928509645e-15
0.0 0.0 0.0
-3.1592703699547217e-17 -2.2096944360041282e-15 -2.7817309151141018e-15
2.849893715895438e-17 2.2099171704189845e-15 2.7815873874470213e-15
1.290645727015349e-17 1.1053665901980842e-15 1.390482558509326e-15
1.174937504505191e-17 1.1060300744698187e-15 1.3899651245403192e-15
0.0 0.0 0.0
9.84772404854632e-18 1.1079544001580074e-15 1.3884465025292188e-15
-4.49218132923447e-18 -5.545553630129112e-16 -6.937644231881132e-16
1.2448782902766789e-17 1.6655117941294547e-15 2.0798229824696697e-15
-1.1414190679800949e-17 -1.6673344898626544e-15 -2.078368004506101e-15
-3.82158798541804e-18 -5.563924886673307e-16 -6.92295962172867e-16
-3.87299013857811e-18 -5.569491094685307e-16 -6.91847956295752e-16
-2.0061354457483897e-18 -2.787209586087488e-16 -3.457250771321722e-16
-2.04747117241297e-18 -2.7886619741448445e-16 -3.4560769393437536e-16

SCALARS Gamma float
LOOKUP_TABLE default
0.11581503215875658
0.08049601373283707
0.4895212161218934
0.6496559514456243
0.7711997153570624
0.8162247949044904
0.8255581972034236
0.8352593507140312
0.8247696040795969
0.8023560077630547
0.7640023789572575
0.7214224127578129
0.6806527730874959
0.6260297295203225
0.5851585773161693
0.545187873049792
0.43344489168505496
0.33617561600413526
0.24125860627805865
0.18242824176703146
0.11581503215875658
0.08049601373283707
0.4895212161218934
0.6496559514456243
0.7711997153570624
0.8162247949044904
0.8255581972034236
0.8352593507140312
0.8247696040795969
0.8023560077630547
0.7640023789572575
0.7214224127578129
0.6806527730874959
0.6260297295203225
0.5851585773161693
0.545187873049792
0.43344489168505496
0.33617561600413526
0.24125860627805865
0.18242824176703146

VECTORS Ftot float
-1.9175572944096302 -2.178602649913458 1.8280646800242386
-1.9473240851704796 -1.7459441051321436 1.4650210546725364
-17.756184241996202 -10.321481521665133 8.660751338032375
-30.569428780571272 -13.50354294966301 11.330817908648859
-43.996498769972085 -15.967865066077215 13.398629687634044
-54.185849224437604 -17.033730029643174 14.292996585447032
-62.085318838325996 -17.412125377197665 14.610507982019207
-69.80820244441855 -17.72070837738328 14.869439863662535
-75.57719619640389 -17.35427335587768 14.561964372266747
-79.58384890438376 -16.73234877440075 14.040107685329371
-81.15809938815053 -15.816394249206288 13.271530581063528
-81.36864778953941 -14.782536379485622 12.404020823891184
-80.86288323931825 -13.948287194243308 11.70400264024441
-77.87040754042273 -12.682423806768783 10.641817138693705
-75.73849891821683 -11.834928815766464 9.930684404319063
-73.07337036176399 -10.885370236090083 9.133910150331385
-59.71558454954871 -9.309763894922026 7.811819450576677
-47.40206294206615 -7.78565450237763 6.5329398214188386
-34.66181062124007 -6.112098952741904 5.128659976964801
-26.63945740067582 -4.899225255327696 4.11093810479991
-1.9175572944096302 -2.178602649913458 1.8280646800242386
-1.9473240851704796 -1.7459441051321436 1.4650210546725364
-17.756184241996202 -10.321481521665133 8.660751338032375
-30.569428780571272 -13.50354294966301 11.330817908648859
-43.996498769972085 -15.967865066077215 13.398629687634044
-54.185849224437604 -17.033730029643174 14.292996585447032
-62.085318838325996 -17.412125377197665 14.610507982019207
-69.80820244441855 -17.72070837738328 14.869439863662535
-75.57719619640389 -17.35427335587768 14.561964372266747
-79.58384890438376 -16.73234877440075 14.040107685329371
-81.15809938815053 -15.816394249206288 13.271530581063528
-81.36864778953941 -14.782536379485622 12.404020823891184
-80.86288323931825 -13.948287194243308 11.70400264024441
-77.87040754042273 -12.682423806768783 10.641817138693705
-75.73849891821683 -11.834928815766464 9.930684404319063
-73.07337036176399 -10.885370236090083 9.133910150331385
-59.71558454954871 -9.309763894922026 7.811819450576677
-47.40206294206615 -7.78565450237763 6.5329398214188386
-34.66181062124007 -6.112098952741904 5.128659976964801
-26.63945740067582 -4.899225255327696 4.11093810479991

VECTORS D float
-0.021609991253686223 0.011392562258522781 -0.008722701386270624
0.2526023102819496 -0.21897507775671965 0.17105407825177493
0.773596218188504 -0.9161044385642748 0.720127334185926
0.5806213619586434 -0.8598269247413737 0.6772347845589763
0.45149051313384536 -0.7952512339671173 0.626505464305589
0.42302137453845856 -0.8586757201915011 0.6765025621659204
0.43668781308731025 -0.9992380276737083 0.7887734453243115
0.4507730636830137 -1.1473795588775286 0.9063123516734756
0.40243323733217834 -1.1311385624136339 0.8945444687047148
0.3759950825156575 -1.157781886413802 0.9168907899706698
0.3701010557898178 -1.2405762478306226 0.9840291382252392
0.3575825326805842 -1.2975604949286756 1.0310692299466786
0.38733033431875397 -1.5134643559151355 1.2049691272388576
0.361585674342566 -1.5129926182987983 1.2070579497477076
0.36806819582107053 -1.6394157231337012 1.3106328010956145
0.33870583559372613 -1.5956994545298204 1.2782619234133648
0.4215951218217857 -2.08706448744143 1.6750290405925001
0.444172491735776 -2.2952926359701573 1.8452622462430102
0.41837997735699 -2.2422792791297224 1.8052809718705916
0.3642875499281691 -2.0066882308832015 1.6170115940531296
-0.021609991253686223 0.011392562258522781 -0.008722701386270624
0.2526023102819496 -0.21897507775671965 0.17105407825177493
0.773596218188504 -0.9161044385642748 0.720127334185926
0.5806213619586434 -0.8598269247413737 0.6772347845589763
0.45149051313384536 -0.7952512339671173 0.626505464305589
0.42302137453845856 -0.8586757201915011 0.6765025621659204
0.43668781308731025 -0.9992380276737083 0.7887734453243115
0.4507730636830137 -1.1473795588775286 0.9063123516734756
0.40243323733217834 -1.1311385624136339 0.8945444687047148
0.3759950825156575 -1.157781886413802 0.9168907899706698
0.3701010557898178 -1.2405762478306226 0.9840291382252392
0.3575825326805842 -1.2975604949286756 1.0310692299466786
0.38733033431875397 -1.5134643559151355 1.2049691272388576
0.361585674342566 -1.5129926182987983 1.2070579497477076
0.36806819582107053 -1.6394157231337012 1.3106328010956145
0.33870583559372613 -1.5956994545298204 1.2782619234133648
0.4215951218217857 -2.08706448744143 1.6750290405925001
0.444172491735776 -2.2952926359701573 1.8452622462430102
0.41837997735699 -2.2422792791297224 1.8052809718705916
0.3642875499281691 -2.0066882308832015 1.6170115940531296

VECTORS L float
-1.8959473031559444 -2.189995212171981 1.8367873814105098
-2.199926395452429 -1.526969027375424 1.2939669764207613
-18.529780460184703 -9.405377083100857 7.940624003846446
-31.15005014252992 -12.64371602492164 10.653583124089884
-44.44798928310593 -15.172613832110102 12.772124223328458
-54.60887059897607 -16.17505430945167 13.616494023281112
-62.522006651413335 -16.412887349523963 13.821734536694901
-70.25897550810157 -16.573328818505747 13.963127511989063
-75.97962943373606 -16.223134793464048 13.667419903562031
-79.95984398689941 -15.574566887986952 13.123216895358699
-81.52820044394038 -14.575818001375673 12.287501442838293
-81.72623032222002 -13.484975884556954 11.372951593944512
-81.25021357363701 -12.434822838328174 10.499033513005552
-78.2319932147653 -11.169431188469984 9.434759188945998
-76.10656711403793 -10.195513092632767 8.62005160322345
-73.41207619735773 -9.289670781560265 7.855648226918024
-60.13717967137051 -7.222699407480597 6.136790409984179
-47.84623543380193 -5.490361866407474 4.6876775751758295
-35.080190598597056 -3.8698196736121804 3.323379005094209
-27.00374495060399 -2.8925370244444943 2.49392651074678
-1.8959473031559444 -2.189995212171981 1.8367873814105098
-2.199926395452429 -1.526969027375424 1.2939669764207613
-18.529780460184703 -9.405377083100857 7.940624003846446
-31.15005014252992 -12.64371602492164 10.653583124089884
-44.44798928310593 -15.172613832110102 12.772124223328458
-54.60887059897607 -16.17505430945167 13.616494023281112
-62.522006651413335 -16.412887349523963 13.821734536694901
-70.25897550810157 -16.573328818505747 13.963127511989063
-75.97962943373606 -16.223134793464048 13.667419903562031
-79.95984398689941 -15.574566887986952 13.123216895358699
-81.52820044394038 -14.575818001375673 12.287501442838293
-81.72623032222002 -13.484975884556954 11.372951593944512
-81.25021357363701 -12.434822838328174 10.499033513005552
-78.2319932147653 -11.169431188469984 9.434759188945998
-76.10656711403793 -10.195513092632767 8.62005160322345
-73.41207619735773 -9.289670781560265 7.855648226918024
-60.13717967137051 -7.222699407480597 6.136790409984179
-47.84623543380193 -5.490361866407474 4.6876775751758295
-35.080190598597056 -3.8698196736121804 3.323379005094209
-27.00374495060399 -2.8925370244444943 2.49392651074678

SCALARS mu float
LOOKUP_TABLE default
-0.04896301725133495
0.5380374497565713
1.3089899823392321
0.864118119674438
0.6577020436710169
0.6328448411487272
0.6862660636384296
0.7568243552955127
0.7368311709476392
0.76481189117132
0.8495878913436007
0.9357513565963392
1.158109226739441
1.2310415605288918
1.4226736153199033
1.4896770868463896
2.1305553261520407
2.6249194993526968
2.962769269845106
3.1718449679564436
-0.04896301725133495
0.5380374497565713
1.3089899823392321
0.864118119674438
0.6577020436710169
0.6328448411487272
0.6862660636384296
0.7568243552955127
0.7368311709476392
0.76481189117132
0.8495878913436007
0.9357513565963392
1.158109226739441
1.2310415605288918
1.4226736153199033
1.4896770868463896
2.1305553261520407
2.6249194993526968
2.962769269845106
3.1718449679564436