# vtk DataFile Version 4.0
[MyVLM domain - lattices] 
ASCII
DATASET UNSTRUCTURED_GRID
POINTS 62 float
0.00022673658128986117 0.009532499999999746 -0.009572696895256918
-0.003724999406033424 0.019321458333332844 -0.010193598365867192
-0.00549739299719125 0.028698249999999283 -0.011272443643222087
-0.005451904080891177 0.03766287499999906 -0.012778971530094545
-0.004354059046121628 0.04621533333333219 -0.013848370910937673
-0.0029556321221654493 0.05435562499999867 -0.01400317620085646
-0.0016722727371407085 0.062083749999998473 -0.013530364128720811
-0.0006485493516483927 0.06939970833333164 -0.01290729420393196
0.0001374053121431227 0.07630349999999815 -0.012213352730494282
0.0007511984436382017 0.082795124999998 -0.011416515406367752
0.0012455433643025467 0.08887458333333118 -0.010556571721314325
0.0016598526811940704 0.09454187499999772 -0.00971471182283681
0.002022453218220871 0.0997969999999976 -0.008982560626999137
0.002352563731918074 0.1046399583333308 -0.008415224441117222
0.002662053738196183 0.10907074999999739 -0.00795890942946665
0.002957000443680671 0.11308937499999729 -0.007496015253946061
0.0032390594424296184 0.11669583333333051 -0.006912800012521498
0.0035066635059833096 0.11989012499999711 -0.0061383291738255855
0.0037560624618667195 0.12267224999999704 -0.005160518770430052
0.003982215822832984 0.12504220833333035 -0.004025406141214305
0.004179548496302947 0.12699999999999695 -0.0028250805657762056
0.008285994416043337 0.009532499999999784 0.0057217301349204875
0.007508437091591354 0.01932145833333288 0.003969538240973709
0.00973309288421085 0.028698249999999325 0.0032636142307342604
0.010440442308044806 0.03766287499999912 0.0070565984557578836
0.01004693542569484 0.04621533333333225 0.008743635055551504
0.0094954698488839 0.05435562499999873 0.00922171764747584
0.009038213335578684 0.062083749999998536 0.009265399611462775
0.008539133039147835 0.0693997083333317 0.008996302442301924
0.008012046218423283 0.0763034999999982 0.008462139875867627
0.007469873605570215 0.08279512499999804 0.007755915822767511
0.0069256484677951155 0.08887458333333122 0.006953709751249471
0.0064559301991455546 0.09454187499999776 0.006094328928426787
0.006108090109537901 0.09979699999999764 0.005214201712214357
0.005835591307912621 0.10463995833333084 0.004367955861814579
0.005646315885461864 0.10907074999999741 0.0035960199123261953
0.005556570152728891 0.1130893749999973 0.002934541921411467
0.005484703593381549 0.11669583333333054 0.0024311884335220277
0.005393245002100456 0.11989012499999714 0.0021030713451159035
0.005297730961761147 0.12267224999999705 0.0019361913096157001
0.00521698140800628 0.12504220833333035 0.001900868871360523
0.005155604557614359 0.12699999999999695 0.0019595648644506313
0.005485628962270063 0.014426979166666326 0.0011634387333198095
0.005312774690522743 0.02400985416666609 2.9176925754328007e-5
0.006196413562335568 0.0331805624999992 0.0008636528607699746
0.006457021259275767 0.04193910416666567 0.0025966697616119907
0.006414690581931144 0.050285479166665474 0.003255563874660985
0.006371643086760199 0.05821968749999862 0.0034909764309048203
0.006301402129423808 0.06574172916666511 0.003543430978580164
0.00614279921665101 0.07285160416666493 0.0034068350025103023
0.005916795403470228 0.07954931249999812 0.0031280373698804225
0.005647913503504593 0.08583485416666463 0.00276947369929611
0.005381266505789829 0.09170822916666449 0.0023591040618597043
0.005171795853183163 0.09716943749999768 0.001903539934010935
0.005025757650311314 0.10221847916666424 0.001418585956746306
0.004932542381279714 0.1068553541666641 0.0009397241814798067
0.00490346403705614 0.11108006249999733 0.0005170951022250335
0.004914985140555201 0.11489260416666391 0.0002110469747916152
0.0049224460918573685 0.11829297916666386 6.895626869583982e-5
0.004916956732429355 0.12128118749999708 0.00010236750249239716
0.004910301924250248 0.12385722916666368 0.0002906569539105394
0.004909940276999731 0.12602110416666365 0.0005913518125553691

CELLS 40 140
4 0 21 22 1
4 1 22 23 2
4 2 23 24 3
4 3 24 25 4
4 4 25 26 5
4 5 26 27 6
4 6 27 28 7
4 7 28 29 8
4 8 29 30 9
4 9 30 31 10
4 10 31 32 11
4 11 32 33 12
4 12 33 34 13
4 13 34 35 14
4 14 35 36 15
4 15 36 37 16
4 16 37 38 17
4 17 38 39 18
4 18 39 40 19
4 19 40 41 20
1 42
1 43
1 44
1 45
1 46
1 47
1 48
1 49
1 50
1 51
1 52
1 53
1 54
1 55
1 56
1 57
1 58
1 59
1 60
1 61

CELL_TYPES 40
9
9
9
9
9
9
9
9
9
9
9
9
9
9
9
9
9
9
9
9
1
1
1
1
1
1
1
1
1
1
1
1
1
1
1
1
1
1
1
1

CELL_DATA 40

VECTORS S float
1.1362200845942299e-18 5.451822124265847e-17 1.03904026618551e-17
-1.13287064435038e-18 -5.448110211938284e-17 -1.058366793602888e-17
0.0 0.0 0.0
-1.2251866781172459e-17 -8.706732192760621e-16 -1.7503983037253699e-16
-5.39736266750713e-18 -4.351933525761459e-16 -8.827706754884137e-17
4.7748561298424496e-18 4.351509630311489e-16 8.852155910994764e-17
-4.35420657562565e-18 -4.351029456184442e-16 -8.877890461423213e-17
-7.94359504660482e-18 -8.701708981663819e-16 -1.7776504859802923e-16
0.0 0.0 0.0
-3.2665567702973198e-18 -4.351143281877147e-16 -8.876979958225135e-17
0.0 0.0 0.0
0.0 0.0 0.0
-2.4996234516477298e-18 -4.3527947848640414e-16 -8.798155372836365e-17
2.28227028863722e-18 4.3535378874416363e-16 8.761904001804982e-17
2.10950279737287e-18 4.3543284698696494e-16 8.722965131208084e-17
0.0 0.0 0.0
0.0 0.0 0.0
0.0 0.0 0.0
0.0 0.0 0.0
0.0 0.0 0.0
1.1362200845942299e-18 5.451822124265847e-17 1.03904026618551e-17
-1.13287064435038e-18 -5.448110211938284e-17 -1.058366793602888e-17
0.0 0.0 0.0
-1.2251866781172459e-17 -8.706732192760621e-16 -1.7503983037253699e-16
-5.39736266750713e-18 -4.351933525761459e-16 -8.827706754884137e-17
4.7748561298424496e-18 4.351509630311489e-16 8.852155910994764e-17
-4.35420657562565e-18 -4.351029456184442e-16 -8.877890461423213e-17
-7.94359504660482e-18 -8.701708981663819e-16 -1.7776504859802923e-16
0.0 0.0 0.0
-3.2665567702973198e-18 -4.351143281877147e-16 -8.876979958225135e-17
0.0 0.0 0.0
0.0 0.0 0.0
-2.4996234516477298e-18 -4.3527947848640414e-16 -8.798155372836365e-17
2.28227028863722e-18 4.3535378874416363e-16 8.761904001804982e-17
2.10950279737287e-18 4.3543284698696494e-16 8.722965131208084e-17
0.0 0.0 0.0
0.0 0.0 0.0
0.0 0.0 0.0
0.0 0.0 0.0
0.0 0.0 0.0

SCALARS Gamma float
LOOKUP_TABLE default
0.1149749451973803
0.07906826910999391
0.4874521167665431
0.6460371036344275
0.7681766564004766
0.8135267873735066
0.8237112031343927
0.8351204275685746
0.8220774117039594
0.7983137705077578
0.7601570152449607
0.71777487483452
0.6770051745377221
0.6223277359258679
0.5815663201584838
0.5400476938667845
0.4298520931694138
0.33334906580164025
0.23872234694475275
0.18113992515871044
0.1149749451973803
0.07906826910999391
0.4874521167665431
0.6460371036344275
0.7681766564004766
0.8135267873735066
0.8237112031343927
0.8351204275685746
0.8220774117039594
0.7983137705077578
0.7601570152449607
0.71777487483452
0.6770051745377221
0.6223277359258679
0.5815663201584838
0.5400476938667845
0.4298520931694138
0.33334906580164025
0.23872234694475275
0.18113992515871044

VECTORS Ftot float
-1.904411199942407 -0.4908113138226666 2.7835292809452126
-1.9082900339722877 -0.39009379560913326 2.2123318509837775
-17.68394967248024 -2.3333019875611183 13.23281314173344
-30.396908735538474 -3.0519386014112517 17.308403904773392
-43.83650320416987 -3.61495342610934 20.50141964425896
-54.002149444645895 -3.855464628966836 21.865426456439085
-61.95138288672113 -3.944436279443772 22.370009760250323
-69.8300241994751 -4.020018683861024 22.79865887630488
-75.3352326016462 -3.9295148122561634 22.28538591466721
-79.15242767527172 -3.7842494177106207 21.46154492356147
-80.71722547234089 -3.576732725833219 20.284659281649937
-80.9239338834016 -3.3441363983050336 18.965539958029467
-80.3977462091356 -3.1554116788761335 17.89522888781988
-77.38152896732745 -2.8689071685793155 16.270381067335034
-75.24858311626019 -2.6781538900148565 15.18856546657993
-72.33569536173317 -2.460842864718632 13.956133399614949
-59.18580361069349 -2.1053742904685357 11.94017093702492
-46.97959901989086 -1.7591600771451472 9.97669256331071
-34.28136343809254 -1.3780828397615439 7.815496155066906
-26.43402059776083 -1.1064625722603756 6.275061070147809
-1.904411199942407 -0.4908113138226666 2.7835292809452126
-1.9082900339722877 -0.39009379560913326 2.2123318509837775
-17.68394967248024 -2.3333019875611183 13.23281314173344
-30.396908735538474 -3.0519386014112517 17.308403904773392
-43.83650320416987 -3.61495342610934 20.50141964425896
-54.002149444645895 -3.855464628966836 21.865426456439085
-61.95138288672113 -3.944436279443772 22.370009760250323
-69.8300241994751 -4.020018683861024 22.79865887630488
-75.3352326016462 -3.9295148122561634 22.28538591466721
-79.15242767527172 -3.7842494177106207 21.46154492356147
-80.71722547234089 -3.576732725833219 20.284659281649937
-80.9239338834016 -3.3441363983050336 18.965539958029467
-80.3977462091356 -3.1554116788761335 17.89522888781988
-77.38152896732745 -2.8689071685793155 16.270381067335034
-75.24858311626019 -2.6781538900148565 15.18856546657993
-72.33569536173317 -2.460842864718632 13.956133399614949
-59.18580361069349 -2.1053742904685357 11.94017093702492
-46.97959901989086 -1.7591600771451472 9.97669256331071
-34.28136343809254 -1.3780828397615439 7.815496155066906
-26.43402059776083 -1.1064625722603756 6.275061070147809

VECTORS D float
-0.02182767452895258 0.0031483217285116004 -0.014132258692664155
0.25248965092656706 -0.05792266718965712 0.2711397078966257
0.7663384403006744 -0.2369031632486133 1.1269335170598236
0.577461226810209 -0.22170081260775532 1.0623523903752454
0.4516951765394627 -0.206259143116278 0.9892109891506597
0.4230031452399664 -0.22194234066380128 1.0681990361105458
0.43783210994273386 -0.25903598155035246 1.2480544519337102
0.4515260223600518 -0.29698156081444516 1.4335662361524109
0.4035697203334958 -0.2920910265822259 1.4135523006461521
0.3776057721310053 -0.29837251626991146 1.448608500640498
0.3710519205314005 -0.31818387814746535 1.5507228531840132
0.35909555584397024 -0.33209366966273973 1.6256183220418836
0.388556006823123 -0.3852935793833012 1.8951602640024303
0.3629954889318461 -0.383708407109213 1.8970814443349686
0.37006670711878537 -0.41448499793241556 2.060076169355602
0.34093476238342535 -0.40061783982482413 2.0040554268212345
0.42269965618910327 -0.5199041852453092 2.613045223330373
0.44423979152573234 -0.56833888429335 2.868716043404015
0.41788866058164315 -0.5527212744753627 2.8003791457701355
0.364267161773516 -0.49521037050320954 2.5169984526892133
-0.02182767452895258 0.0031483217285116004 -0.014132258692664155
0.25248965092656706 -0.05792266718965712 0.2711397078966257
0.7663384403006744 -0.2369031632486133 1.1269335170598236
0.577461226810209 -0.22170081260775532 1.0623523903752454
0.4516951765394627 -0.206259143116278 0.9892109891506597
0.4230031452399664 -0.22194234066380128 1.0681990361105458
0.43783210994273386 -0.25903598155035246 1.2480544519337102
0.4515260223600518 -0.29698156081444516 1.4335662361524109
0.4035697203334958 -0.2920910265822259 1.4135523006461521
0.3776057721310053 -0.29837251626991146 1.448608500640498
0.3710519205314005 -0.31818387814746535 1.5507228531840132
0.35909555584397024 -0.33209366966273973 1.6256183220418836
0.388556006823123 -0.3852935793833012 1.8951602640024303
0.3629954889318461 -0.383708407109213 1.8970814443349686
0.37006670711878537 -0.41448499793241556 2.060076169355602
0.34093476238342535 -0.40061783982482413 2.0040554268212345
0.42269965618910327 -0.5199041852453092 2.613045223330373
0.44423979152573234 -0.56833888429335 2.868716043404015
0.41788866058164315 -0.5527212744753627 2.8003791457701355
0.364267161773516 -0.49521037050320954 2.5169984526892133

VECTORS L float
-1.8825835254134542 -0.4939596355511782 2.7976615396378772
-2.160779684898855 -0.3321711284194761 1.9411921430871515
-18.450288112780914 -2.0963988243125047 12.105879624673612
-30.974369962348685 -2.8302377888034957 16.246051514398147
-44.28819838070933 -3.408694282993063 19.5122086551083
-54.425152589885876 -3.633522288303036 20.797227420328543
-62.389214996663874 -3.685400297893419 21.12195530831661
-70.28155022183515 -3.7230371230465775 21.365092640152465
-75.7388023219797 -3.637423785673937 20.87183361402106
-79.53003344740274 -3.48587690144071 20.012936422920976
-81.08827739287227 -3.2585488476857534 18.733936428465924
-81.2830294392456 -3.0120427286422946 17.339921635987587
-80.78630221595873 -2.770118099492832 16.00006862381745
-77.7445244562593 -2.485198761470103 14.373299623000065
-75.61864982337897 -2.263668892082441 13.128489297224323
-72.6766301241166 -2.060225024893807 11.952077972793717
-59.60850326688261 -1.5854701052232267 9.32712571369455
-47.4238388114166 -1.1908211928517973 7.107976519906695
-34.699252098674194 -0.8253615652861812 5.015117009296771
-26.79828775953435 -0.6112522017571662 3.7580626174585983
-1.8825835254134542 -0.4939596355511782 2.7976615396378772
-2.160779684898855 -0.3321711284194761 1.9411921430871515
-18.450288112780914 -2.0963988243125047 12.105879624673612
-30.974369962348685 -2.8302377888034957 16.246051514398147
-44.28819838070933 -3.408694282993063 19.5122086551083
-54.425152589885876 -3.633522288303036 20.797227420328543
-62.389214996663874 -3.685400297893419 21.12195530831661
-70.28155022183515 -3.7230371230465775 21.365092640152465
-75.7388023219797 -3.637423785673937 20.87183361402106
-79.53003344740274 -3.48587690144071 20.012936422920976
-81.08827739287227 -3.2585488476857534 18.733936428465924
-81.2830294392456 -3.0120427286422946 17.339921635987587
-80.78630221595873 -2.770118099492832 16.00006862381745
-77.7445244562593 -2.485198761470103 14.373299623000065
-75.61864982337897 -2.263668892082441 13.128489297224323
-72.6766301241166 -2.060225024893807 11.952077972793717
-59.60850326688261 -1.5854701052232267 9.32712571369455
-47.4238388114166 -1.1908211928517973 7.107976519906695
-34.699252098674194 -0.8253615652861812 5.015117009296771
-26.79828775953435 -0.6112522017571662 3.7580626174585983

SCALARS mu float
LOOKUP_TABLE default
-0.04939750017440859
0.5368888392958091
1.2936970087501483
0.8568619228458049
0.656252462369156
0.6316361470439046
0.6870586022906351
0.757418033143337
0.7374315603591219
0.7661882531852944
0.8496731064545868
0.9371513546984517
1.1581478775016023
1.2314456880796587
1.4247297057830781
1.4899450315604192
2.1222016597490048
2.607680248735588
2.9388058322626565
3.1589736985555597
-0.04939750017440859
0.5368888392958091
1.2936970087501483
0.8568619228458049
0.656252462369156
0.6316361470439046
0.6870586022906351
0.757418033143337
0.7374315603591219
0.7661882531852944
0.8496731064545868
0.9371513546984517
1.1581478775016023
1.2314456880796587
1.4247297057830781
1.4899450315604192
2.1222016597490048
2.607680248735588
2.9388058322626565
3.1589736985555597