# vtk DataFile Version 4.0
[MyVLM domain - lattices] 
ASCII
DATASET UNSTRUCTURED_GRID
POINTS 62 float
0.00022673658128986117 0.007771964866075118 0.01104996127680804
-0.003724999406033424 0.0066835986723479904 0.02079802174627026
-0.00549739299719125 0.00611779108050862 0.030219698394381017
-0.005451904080891177 0.006044740628912365 0.0393097364193878
-0.004354059046121628 0.005612774626077493 0.04791796294704981
-0.0029556321221654493 0.004351681262202877 0.05596146694865133
-0.0016722727371407085 0.0025440774448136846 0.06349008141019344
-0.0006485493516483927 0.0006600705197423711 0.07058669894057565
0.0001374053121431227 -0.0012221592653445731 0.07726510482682002
0.0007511984436382017 -0.0031341496913809674 0.08351973810723627
0.0012455433643025467 -0.005036715760360837 0.08935750815421183
0.0016598526811940704 -0.006849900785555218 0.09479251348890509
0.002022453218220871 -0.00848347183925524 0.09984066461101944
0.002352563731918074 -0.00988315980277633 0.10451153063039824
0.002662053738196183 -0.011101941262604158 0.10879577034549821
0.002957000443680671 -0.012255629943457795 0.11267296267191508
0.0032390594424296184 -0.01345623975230264 0.11612335653563623
0.0035066635059833096 -0.014773627565585576 0.1191346342845561
0.0037560624618667195 -0.016219693768117115 0.12170469755975175
0.003982215822832984 -0.01774910043164076 0.12384154066122424
0.004179548496302947 -0.01927115731963923 0.12556115472455842
0.008285994416043337 -0.00729010545112339 0.00839411189455786
0.007508437091591354 -0.00726436806504024 0.01833861888444452
0.00973309288421085 -0.008197431411998047 0.02769553843410743
0.010440442308044806 -0.013489482478571771 0.03586532583835963
0.01004693542569484 -0.01663600800581958 0.0439949022811285
0.0094954698488839 -0.018520374262520792 0.05192850645538048
0.009038213335578684 -0.019905367422354152 0.05953163857818462
0.008539133039147835 -0.02091076127632141 0.0667831792986056
0.008012046218423283 -0.021583544681436792 0.07367484321335914
0.007469873605570215 -0.022015308609927148 0.08019048036285234
0.0069256484677951155 -0.022280976711968048 0.08631687968606608
0.0064559301991455546 -0.022418766685085877 0.09204730237178589
0.006108090109537901 -0.022464553458584717 0.09737542270204448
0.005835591307912621 -0.02247213487325678 0.10229175466600629
0.005646315885461864 -0.02248132526391024 0.10678927792222573
0.005556570152728891 -0.022527723517987222 0.11086171542636351
0.005484703593381549 -0.022658272018022993 0.11450078996983991
0.005393245002100456 -0.022889822692318162 0.1177035301030186
0.005297730961761147 -0.023208588875826205 0.12047236678692126
0.00521698140800628 -0.023585342010507097 0.12281245380493756
0.005155604557614359 -0.02398311323474115 0.12473030976481712
0.005485628962270063 -0.003650982126258472 0.014005771920010679
0.005312774690522743 -0.004198001084782281 0.02364002401203839
0.006196413562335568 -0.006612276245286057 0.032526503453896245
0.006457021259275767 -0.009839869524773025 0.04085104796561275
0.006414690581931144 -0.011938086364592593 0.04895620701315351
0.006371643086760199 -0.013547683293451034 0.05672899793244251
0.006301402129423808 -0.01490552976643383 0.06412765424764247
0.00614279921665101 -0.0160056258273596 0.07115323391291123
0.005916795403470228 -0.01689410860385217 0.07779760170783634
0.005647913503504593 -0.017632465177178425 0.08404991580102542
0.005381266505789829 -0.018248230842134727 0.0899053209770841
0.005171795853183163 -0.01874791663197778 0.09536266916517697
0.005025757650311314 -0.01914708707969451 0.10041921591819626
0.004932542381279714 -0.019480685184610196 0.10506879984257406
0.00490346403705614 -0.01979808969396929 0.10930271413289762
0.004914985140555201 -0.020158732037973883 0.1131104794245202
0.0049224460918573685 -0.02060926893111396 0.11648386887984599
0.004916956732429355 -0.021161069504766976 0.11942087781426593
0.004910301924250248 -0.021793823357344724 0.12192508749956905
0.004909940276999731 -0.022465702935878094 0.12400387326188084

CELLS 40 140
4 0 21 22 1
4 1 22 23 2
4 2 23 24 3
4 3 24 25 4
4 4 25 26 5
4 5 26 27 6
4 6 27 28 7
4 7 28 29 8
4 8 29 30 9
4 9 30 31 10
4 10 31 32 11
4 11 32 33 12
4 12 33 34 13
4 13 34 35 14
4 14 35 36 15
4 15 36 37 16
4 16 37 38 17
4 17 38 39 18
4 18 39 40 19
4 19 40 41 20
1 42
1 43
1 44
1 45
1 46
1 47
1 48
1 49
1 50
1 51
1 52
1 53
1 54
1 55
1 56
1 57
1 58
1 59
1 60
1 61

CELL_TYPES 40
9
9
9
9
9
9
9
9
9
9
9
9
9
9
9
9
9
9
9
9
1
1
1
1
1
1
1
1
1
1
1
1
1
1
1
1
1
1
1
1

CELL_DATA 40

VECTORS S float
0.0 -0.0 0.0
2.32698334629982e-18 -3.983895297223238e-17 1.0360209755917401e-16
0.0 -0.0 0.0
0.0 -0.0 0.0
0.0 -0.0 0.0
0.0 -0.0 0.0
0.0 -0.0 0.0
-1.6089647933074578e-17 6.53039411848881e-16 -1.6518850658219246e-15
2.1819677579292658e-17 -9.794624705372181e-16 2.4778872689185378e-15
0.0 -0.0 0.0
6.00430615182228e-18 -3.2586013016636333e-16 8.262203272109733e-16
0.0 -0.0 0.0
-1.005066551314496e-17 6.493412604480685e-16 -1.6533900122132418e-15
4.5787969826057994e-18 -3.2394856813859506e-16 8.269808129818721e-16
-4.2724139730756794e-18 3.233568620333821e-16 -8.2721399376206095e-16
0.0 -0.0 0.0
0.0 -0.0 0.0
-1.9874519076766e-18 1.6056112795002154e-16 -4.14042752057785e-16
2.05720581140953e-18 -1.6025062169480667e-16 4.141626883918086e-16
0.0 -0.0 0.0
0.0 -0.0 0.0
2.32698334629982e-18 -3.983895297223238e-17 1.0360209755917401e-16
0.0 -0.0 0.0
0.0 -0.0 0.0
0.0 -0.0 0.0
0.0 -0.0 0.0
0.0 -0.0 0.0
-1.6089647933074578e-17 6.53039411848881e-16 -1.6518850658219246e-15
2.1819677579292658e-17 -9.794624705372181e-16 2.4778872689185378e-15
0.0 -0.0 0.0
6.00430615182228e-18 -3.2586013016636333e-16 8.262203272109733e-16
0.0 -0.0 0.0
-1.005066551314496e-17 6.493412604480685e-16 -1.6533900122132418e-15
4.5787969826057994e-18 -3.2394856813859506e-16 8.269808129818721e-16
-4.2724139730756794e-18 3.233568620333821e-16 -8.2721399376206095e-16
0.0 -0.0 0.0
0.0 -0.0 0.0
-1.9874519076766e-18 1.6056112795002154e-16 -4.14042752057785e-16
2.05720581140953e-18 -1.6025062169480667e-16 4.141626883918086e-16
0.0 -0.0 0.0

SCALARS Gamma float
LOOKUP_TABLE default
0.11635651456781061
0.08236811066284455
0.4903592651238053
0.6505816698359568
0.772299678692425
0.8151041968689439
0.8268521825966791
0.8394018217830208
0.827455999918206
0.8041406038887734
0.7654367193543437
0.7226974182913956
0.6819442418231827
0.6274190047638423
0.5849276254248287
0.5451446921561192
0.43349713577653703
0.33626769410364155
0.2412744756355484
0.18310500481400035
0.11635651456781061
0.08236811066284455
0.4903592651238053
0.6505816698359568
0.772299678692425
0.8151041968689439
0.8268521825966791
0.8394018217830208
0.827455999918206
0.8041406038887734
0.7654367193543437
0.7226974182913956
0.6819442418231827
0.6274190047638423
0.5849276254248287
0.5451446921561192
0.43349713577653703
0.33626769410364155
0.2412744756355484
0.18310500481400035

VECTORS Ftot float
-1.926553925627071 -2.6837595889350694 -0.9768086062988593
-1.9997451518830034 -2.1837871672547986 -0.7948335268532516
-17.790911878475104 -12.680318314617537 -4.615258427541339
-30.631927408791142 -16.591939092394757 -6.0389719583894514
-44.09288462843062 -19.623270445349693 -7.142286341062938
-54.12549366299175 -20.8919254081906 -7.604038985091121
-62.22124999636227 -21.393039731147027 -7.78642968261172
-70.23321605277559 -21.81418889091486 -7.939715440953432
-75.87909838000742 -21.339845286786673 -7.767068488236221
-79.80255313322884 -20.55824792499182 -7.482590313361906
-81.3430248373466 -19.42713772343536 -7.070899868320511
-81.5398461299732 -18.152485225535063 -6.606964300051741
-81.0407967591621 -17.127285724245965 -6.2338221973979575
-78.06587766391873 -15.573596646215682 -5.668325619690437
-75.73202571865053 -14.525251690345678 -5.286759260510643
-73.09543469446879 -13.36261410137664 -4.86359378488689
-59.7494877740883 -11.430231022660468 -4.160263863034524
-47.43914666172991 -9.560339637979352 -3.479679057699788
-34.6834548539436 -7.504525008279496 -2.731423725320049
-26.748962395211432 -6.021954134207915 -2.19181205696797
-1.926553925627071 -2.6837595889350694 -0.9768086062988593
-1.9997451518830034 -2.1837871672547986 -0.7948335268532516
-17.790911878475104 -12.680318314617537 -4.615258427541339
-30.631927408791142 -16.591939092394757 -6.0389719583894514
-44.09288462843062 -19.623270445349693 -7.142286341062938
-54.12549366299175 -20.8919254081906 -7.604038985091121
-62.22124999636227 -21.393039731147027 -7.78642968261172
-70.23321605277559 -21.81418889091486 -7.939715440953432
-75.87909838000742 -21.339845286786673 -7.767068488236221
-79.80255313322884 -20.55824792499182 -7.482590313361906
-81.3430248373466 -19.42713772343536 -7.070899868320511
-81.5398461299732 -18.152485225535063 -6.606964300051741
-81.0407967591621 -17.127285724245965 -6.2338221973979575
-78.06587766391873 -15.573596646215682 -5.668325619690437
-75.73202571865053 -14.525251690345678 -5.286759260510643
-73.09543469446879 -13.36261410137664 -4.86359378488689
-59.7494877740883 -11.430231022660468 -4.160263863034524
-47.43914666172991 -9.560339637979352 -3.479679057699788
-34.6834548539436 -7.504525008279496 -2.731423725320049
-26.748962395211432 -6.021954134207915 -2.19181205696797

VECTORS D float
-0.021524082417920087 0.013204360335342573 0.0054895102265996275
0.2531195312792522 -0.2585386626285314 -0.10510322486137477
0.7764601410796327 -1.08600366018331 -0.43685492420527605
0.581768120367466 -1.0185185994708 -0.4079766397024628
0.4521748888122637 -0.9418019230119354 -0.37659325088500667
0.4232613986881304 -1.0147540191626947 -0.40534326214100047
0.43678112585958884 -1.1832943944818586 -0.4721982097127347
0.44990468578279236 -1.358770886928536 -0.5415447886440997
0.40220039479796327 -1.3410959882185443 -0.5336518288670843
0.3756899595887038 -1.3729046940290504 -0.5452387866652869
0.36999172539571845 -1.4730256803228432 -0.5836480508160874
0.357261738633452 -1.5414522348845001 -0.6091538299193097
0.3870626805814006 -1.8006589068516692 -0.7095315400973569
0.36120729880904345 -1.80204305480017 -0.7079041654009084
0.3685726895266747 -1.955864395441478 -0.7664484321622467
0.3391106734876559 -1.9059135673435394 -0.7445864805754638
0.4220426337954121 -2.4953640564213373 -0.9720960313167089
0.4446409619841954 -2.7469991497248505 -1.0673897376279144
0.41883330748877257 -2.685782216694193 -1.0412813813597208
0.36433784020380333 -2.4094338925312972 -0.9323900278905356
-0.021524082417920087 0.013204360335342573 0.0054895102265996275
0.2531195312792522 -0.2585386626285314 -0.10510322486137477
0.7764601410796327 -1.08600366018331 -0.43685492420527605
0.581768120367466 -1.0185185994708 -0.4079766397024628
0.4521748888122637 -0.9418019230119354 -0.37659325088500667
0.4232613986881304 -1.0147540191626947 -0.40534326214100047
0.43678112585958884 -1.1832943944818586 -0.4721982097127347
0.44990468578279236 -1.358770886928536 -0.5415447886440997
0.40220039479796327 -1.3410959882185443 -0.5336518288670843
0.3756899595887038 -1.3729046940290504 -0.5452387866652869
0.36999172539571845 -1.4730256803228432 -0.5836480508160874
0.357261738633452 -1.5414522348845001 -0.6091538299193097
0.3870626805814006 -1.8006589068516692 -0.7095315400973569
0.36120729880904345 -1.80204305480017 -0.7079041654009084
0.3685726895266747 -1.955864395441478 -0.7664484321622467
0.3391106734876559 -1.9059135673435394 -0.7445864805754638
0.4220426337954121 -2.4953640564213373 -0.9720960313167089
0.4446409619841954 -2.7469991497248505 -1.0673897376279144
0.41883330748877257 -2.685782216694193 -1.0412813813597208
0.36433784020380333 -2.4094338925312972 -0.9323900278905356

VECTORS L float
-1.9050298432091515 -2.6969639492704123 -0.982298116525459
-2.2528646831622563 -1.9252485046262675 -0.689730301991877
-18.567372019554735 -11.594314654434228 -4.178403503336063
-31.213695529158617 -15.57342049292396 -5.630995318686989
-44.5450595172429 -18.681468522337763 -6.765693090177933
-54.54875506167989 -19.877171389027907 -7.198695722950122
-62.65803112222188 -20.209745336665176 -7.314231472898988
-70.68312073855837 -20.455418003986324 -7.398170652309332
-76.2812987748054 -19.998749298568132 -7.233416659369141
-80.17824309281757 -19.185343230962776 -6.937351526696621
-81.71301656274234 -17.95411204311252 -6.4872518175044265
-81.89710786860665 -16.611032990650564 -5.997810470132433
-81.42785943974354 -15.326626817394303 -5.524290657300602
-78.42708496272779 -13.771553591415515 -4.960421454289531
-76.1005984081772 -12.5693872949042 -4.520310828348396
-73.43454536795647 -11.456700534033104 -4.1190073043114275
-60.17153040788371 -8.934866966239131 -3.188167831717815
-47.883787623714106 -6.813340488254501 -2.4122893200718734
-35.10228816143237 -4.818742791585303 -1.6901423439603285
-27.113300235415245 -3.612520241676619 -1.2594220290774343
-1.9050298432091515 -2.6969639492704123 -0.982298116525459
-2.2528646831622563 -1.9252485046262675 -0.689730301991877
-18.567372019554735 -11.594314654434228 -4.178403503336063
-31.213695529158617 -15.57342049292396 -5.630995318686989
-44.5450595172429 -18.681468522337763 -6.765693090177933
-54.54875506167989 -19.877171389027907 -7.198695722950122
-62.65803112222188 -20.209745336665176 -7.314231472898988
-70.68312073855837 -20.455418003986324 -7.398170652309332
-76.2812987748054 -19.998749298568132 -7.233416659369141
-80.17824309281757 -19.185343230962776 -6.937351526696621
-81.71301656274234 -17.95411204311252 -6.4872518175044265
-81.89710786860665 -16.611032990650564 -5.997810470132433
-81.42785943974354 -15.326626817394303 -5.524290657300602
-78.42708496272779 -13.771553591415515 -4.960421454289531
-76.1005984081772 -12.5693872949042 -4.520310828348396
-73.43454536795647 -11.456700534033104 -4.1190073043114275
-60.17153040788371 -8.934866966239131 -3.188167831717815
-47.883787623714106 -6.813340488254501 -2.4122893200718734
-35.10228816143237 -4.818742791585303 -1.6901423439603285
-27.113300235415245 -3.612520241676619 -1.2594220290774343

SCALARS mu float
LOOKUP_TABLE default
-0.04879213963684154
0.5399741184572576
1.3145660932333532
0.86571414588736
0.6584536794214325
0.632422273287997
0.6863935904268765
0.7563166148815359
0.7369634319365763
0.7646135925537967
0.849797098707684
0.9355271180549422
1.1582983575933448
1.2311052723863674
1.4234406093868788
1.4903175100682151
2.131145378646297
2.62541686889019
2.96306353260904
3.178680988679623
-0.04879213963684154
0.5399741184572576
1.3145660932333532
0.86571414588736
0.6584536794214325
0.632422273287997
0.6863935904268765
0.7563166148815359
0.7369634319365763
0.7646135925537967
0.849797098707684
0.9355271180549422
1.1582983575933448
1.2311052723863674
1.4234406093868788
1.4903175100682151
2.131145378646297
2.62541686889019
2.96306353260904
3.178680988679623