# vtk DataFile Version 4.0
[MyVLM domain - lattices] 
ASCII
DATASET UNSTRUCTURED_GRID
POINTS 62 float
0.00022673658128986117 0.001149107698475509 -0.01346048415161088
-0.003724999406033424 0.00824877706150421 -0.02022834340130069
-0.00549739299719125 0.01473834783498591 -0.02708207233294885
-0.005451904080891177 0.020637271541552434 -0.03399848952457743
-0.004354059046121628 0.02650143805099654 -0.040315111226774204
-0.0029556321221654493 0.03263775632534048 -0.045666177581449786
-0.0016722727371407085 0.03886176127899829 -0.050271525517059434
-0.0006485493516483927 0.04486661213396083 -0.05449683363314997
0.0001374053121431227 0.05060128035763527 -0.0584029153667637
0.0007511984436382017 0.056086350774581774 -0.06196523867927811
0.0012455433643025467 0.06129624719378563 -0.06521428408821986
0.0016598526811940704 0.06617878159440342 -0.06821224685491951
0.002022453218220871 0.07067505861565064 -0.07102931573717909
0.002352563731918074 0.07474965660596908 -0.07370770461549873
0.002662053738196183 0.07843715357643989 -0.0762062050209477
0.002957000443680671 0.08181314156728957 -0.07843472986801456
0.0032390594424296184 0.08495073246384773 -0.08030614780469636
0.0035066635059833096 0.08789552210397625 -0.08176611982741394
0.0037560624618667195 0.09065527791221388 -0.08280538908006799
0.003982215822832984 0.093200407657546 -0.08345922221028311
0.004179548496302947 0.09547171749206211 -0.08379816369896602
0.008285994416043337 0.01098017589072865 -0.0017442733144545457
0.007508437091591354 0.017352665786679593 -0.009378751306495021
0.00973309288421085 0.024081945730051707 -0.015946805973748496
0.010440442308044806 0.03338733015952885 -0.018803561360817282
0.01004693542569484 0.04102329956422046 -0.023008630597234028
0.0094954698488839 0.04756643032733393 -0.027874876706906335
0.009038213335578684 0.0535145957645303 -0.03280895737723835
0.008539133039147835 0.05894597266573191 -0.03771770513798268
0.008012046218423283 0.06389123082917064 -0.04256456914691233
0.007469873605570215 0.06841015201623744 -0.04727830427511799
0.0069256484677951155 0.07255163916647366 -0.0518006302687129
0.0064559301991455546 0.07634063711034546 -0.056101819036372326
0.006108090109537901 0.07980056154496176 -0.06015396483694359
0.005835591307912621 0.08296652651708283 -0.06391522037904966
0.005646315885461864 0.08586451898814793 -0.06735461560803468
0.005556570152728891 0.08851777448173656 -0.07044445950519698
0.005484703593381549 0.09095693246201882 -0.07314823737903664
0.005393245002100456 0.09319299224401617 -0.07545284075636083
0.005297730961761147 0.09521695522120496 -0.07736899375882239
0.00521698140800628 0.09700974380722412 -0.07891943216850522
0.005155604557614359 0.09854722829135532 -0.08013291265484607
0.005485628962270063 0.011799551224025555 -0.008382237676970035
0.005312774690522743 0.018411369930835503 -0.015410885946872514
0.006196413562335568 0.025972930880659998 -0.020666457982652948
0.006457021259275767 0.03379632484547461 -0.0249687720781882
0.006414690581931144 0.04061354800637502 -0.029828976340080634
0.006371643086760199 0.046842824484991434 -0.03474865066886791
0.006301402129423808 0.05263875983796822 -0.03954354333698407
0.00614279921665101 0.057997437872037955 -0.04421832148182483
0.005916795403470228 0.06294897245855516 -0.048737096789016596
0.005647913503504593 0.0675334964395626 -0.05305204079987383
0.005381266505789829 0.0717689822023308 -0.0571417348572994
0.005171795853183163 0.07565967952199697 -0.0610011142765058
0.005025757650311314 0.07921574742596921 -0.0646180720000822
0.004932542381279714 0.08245999333726266 -0.06796542719971242
0.00490346403705614 0.08542464694417287 -0.07100477002858216
0.004914985140555201 0.08814849935780043 -0.07368987104067648
0.0049224460918573685 0.09066200358574113 -0.07598443775478785
0.004916956732429355 0.09297258030148169 -0.07787962655662894
0.004910301924250248 0.09506697283188087 -0.07939123613404174
0.004909940276999731 0.0969178801806683 -0.08055180254741286

CELLS 40 140
4 0 21 22 1
4 1 22 23 2
4 2 23 24 3
4 3 24 25 4
4 4 25 26 5
4 5 26 27 6
4 6 27 28 7
4 7 28 29 8
4 8 29 30 9
4 9 30 31 10
4 10 31 32 11
4 11 32 33 12
4 12 33 34 13
4 13 34 35 14
4 14 35 36 15
4 15 36 37 16
4 16 37 38 17
4 17 38 39 18
4 18 39 40 19
4 19 40 41 20
1 42
1 43
1 44
1 45
1 46
1 47
1 48
1 49
1 50
1 51
1 52
1 53
1 54
1 55
1 56
1 57
1 58
1 59
1 60
1 61

CELL_TYPES 40
9
9
9
9
9
9
9
9
9
9
9
9
9
9
9
9
9
9
9
9
1
1
1
1
1
1
1
1
1
1
1
1
1
1
1
1
1
1
1
1

CELL_DATA 40

VECTORS S float
4.61194437788002e-18 1.9379216209679166e-16 -1.0829189468847332e-16
-2.29048941534938e-18 -9.709135861517199e-17 5.379566325064267e-17
-1.483373060404104e-17 -7.786605328051841e-16 4.2699957881586383e-16
-2.485345618828572e-17 -1.5592876794001294e-15 8.505573816448265e-16
-2.1606864880677108e-17 -1.5605137649116629e-15 8.483946922248522e-16
0.0 0.0 -0.0
1.737881313483454e-17 1.5614860606757035e-15 -8.467011751813884e-16
-1.583947321420296e-17 -1.5616935716944402e-15 8.463485807281806e-16
-1.433044106393438e-17 -1.561694194921002e-15 8.463743266977107e-16
0.0 0.0 -0.0
0.0 0.0 -0.0
0.0 0.0 -0.0
0.0 0.0 -0.0
-4.52892404306506e-18 -7.796150500360941e-16 4.254888574630864e-16
0.0 0.0 -0.0
0.0 0.0 -0.0
0.0 0.0 -0.0
0.0 0.0 -0.0
2.00244708071845e-18 3.888639082629582e-16 -2.1446696100192099e-16
-2.0196769388364e-18 -3.887351531698642e-16 2.1470008826341435e-16
4.61194437788002e-18 1.9379216209679166e-16 -1.0829189468847332e-16
-2.29048941534938e-18 -9.709135861517199e-17 5.379566325064267e-17
-1.483373060404104e-17 -7.786605328051841e-16 4.2699957881586383e-16
-2.485345618828572e-17 -1.5592876794001294e-15 8.505573816448265e-16
-2.1606864880677108e-17 -1.5605137649116629e-15 8.483946922248522e-16
0.0 0.0 -0.0
1.737881313483454e-17 1.5614860606757035e-15 -8.467011751813884e-16
-1.583947321420296e-17 -1.5616935716944402e-15 8.463485807281806e-16
-1.433044106393438e-17 -1.561694194921002e-15 8.463743266977107e-16
0.0 0.0 -0.0
0.0 0.0 -0.0
0.0 0.0 -0.0
0.0 0.0 -0.0
-4.52892404306506e-18 -7.796150500360941e-16 4.254888574630864e-16
0.0 0.0 -0.0
0.0 0.0 -0.0
0.0 0.0 -0.0
0.0 0.0 -0.0
2.00244708071845e-18 3.888639082629582e-16 -2.1446696100192099e-16
-2.0196769388364e-18 -3.887351531698642e-16 2.1470008826341435e-16

SCALARS Gamma float
LOOKUP_TABLE default
0.11684923129260034
0.08051886424762789
0.488722214947604
0.6479189749422986
0.7689866882211187
0.8145138381766271
0.8264007539172141
0.8384727543740489
0.8270293138352591
0.8036227516157456
0.7645360137691092
0.7214684596404152
0.6804474005620109
0.627088731241818
0.5850678342592558
0.5452645954048937
0.43356994352640266
0.33631488690138805
0.24133445723863078
0.1831524002353681
0.11684923129260034
0.08051886424762789
0.488722214947604
0.6479189749422986
0.7689866882211187
0.8145138381766271
0.8264007539172141
0.8384727543740489
0.8270293138352591
0.8036227516157456
0.7645360137691092
0.7214684596404152
0.6804474005620109
0.627088731241818
0.5850678342592558
0.5452645954048937
0.43356994352640266
0.33631488690138805
0.24133445723863078
0.1831524002353681

VECTORS Ftot float
-1.9334164028209742 1.4323964484931413 2.4809834253713343
-1.947700186261257 1.1396461633233441 1.973925057526969
-17.729994839986112 6.730598785656215 11.657739062117942
-30.493923973974027 8.804455236725806 15.249763802974947
-43.88177767205317 10.413362707352288 18.03647328677714
-54.09027051293685 11.11436382100794 19.250642831791097
-62.192070437297865 11.382297779964189 19.71471806177639
-70.15133194550592 11.601797208766182 20.09490222469379
-75.8433854363208 11.35338362198376 19.664637271096215
-79.7566646246926 10.93786296539341 18.944934382287354
-81.25261262093692 10.334046300191554 17.89909323970093
-81.40538195503471 9.655506306986231 16.723827496501873
-80.8663924824787 9.109149900984507 15.77751044226616
-78.02947269896956 8.286439496866393 14.352534222418061
-75.7321327069451 7.725537416731084 13.381023321552638
-73.09797861455576 7.1077610935371345 12.311003342067627
-59.75117217191427 6.080386802716624 10.531538871976462
-47.44096549198571 5.086141794375545 8.809456002357972
-34.68969806793161 3.993064222114881 6.916190110588465
-26.75481161113064 3.204285058595661 5.549984523421496
-1.9334164028209742 1.4323964484931413 2.4809834253713343
-1.947700186261257 1.1396461633233441 1.973925057526969
-17.729994839986112 6.730598785656215 11.657739062117942
-30.493923973974027 8.804455236725806 15.249763802974947
-43.88177767205317 10.413362707352288 18.03647328677714
-54.09027051293685 11.11436382100794 19.250642831791097
-62.192070437297865 11.382297779964189 19.71471806177639
-70.15133194550592 11.601797208766182 20.09490222469379
-75.8433854363208 11.35338362198376 19.664637271096215
-79.7566646246926 10.93786296539341 18.944934382287354
-81.25261262093692 10.334046300191554 17.89909323970093
-81.40538195503471 9.655506306986231 16.723827496501873
-80.8663924824787 9.109149900984507 15.77751044226616
-78.02947269896956 8.286439496866393 14.352534222418061
-75.7321327069451 7.725537416731084 13.381023321552638
-73.09797861455576 7.1077610935371345 12.311003342067627
-59.75117217191427 6.080386802716624 10.531538871976462
-47.44096549198571 5.086141794375545 8.809456002357972
-34.68969806793161 3.993064222114881 6.916190110588465
-26.75481161113064 3.204285058595661 5.549984523421496

VECTORS D float
-0.02139780085052092 -0.006547752522267694 -0.012628725256222714
0.2525171806716751 0.13005384234343495 0.24547503233194304
0.7707239307993249 0.5463540660403736 1.023085457213596
0.5792117704080001 0.5148969783317302 0.9608616026024565
0.4516890680462043 0.47809440011659077 0.8908972249559494
0.4233424631192287 0.5170291621466455 0.9622956033896071
0.43715507296426614 0.60382011254758 1.122537623759712
0.4503867375784192 0.6936975907604566 1.2884489697119927
0.4024308893645453 0.6850444958756832 1.2708289827393857
0.37604480164544796 0.7021324495670929 1.3005038771083317
0.3703886517956714 0.7540243931128578 1.3940372718021157
0.3579948530779409 0.7904986924640846 1.4583993973152243
0.38780578594609416 0.9242155787221102 1.7011664719109412
0.3614366673389137 0.9260894040853355 1.7007029529073407
0.368212145523267 1.0063013283331748 1.8424758491372344
0.33886280491180115 0.982187147344261 1.7941203812480118
0.42186654530664297 1.287980126415424 2.347574729405496
0.44454111229126686 1.4197490458192321 2.5826659818625433
0.4187878396430996 1.389667349492239 2.5236058489729993
0.3642921773857422 1.2477407728370722 2.262581524227285
-0.02139780085052092 -0.006547752522267694 -0.012628725256222714
0.2525171806716751 0.13005384234343495 0.24547503233194304
0.7707239307993249 0.5463540660403736 1.023085457213596
0.5792117704080001 0.5148969783317302 0.9608616026024565
0.4516890680462043 0.47809440011659077 0.8908972249559494
0.4233424631192287 0.5170291621466455 0.9622956033896071
0.43715507296426614 0.60382011254758 1.122537623759712
0.4503867375784192 0.6936975907604566 1.2884489697119927
0.4024308893645453 0.6850444958756832 1.2708289827393857
0.37604480164544796 0.7021324495670929 1.3005038771083317
0.3703886517956714 0.7540243931128578 1.3940372718021157
0.3579948530779409 0.7904986924640846 1.4583993973152243
0.38780578594609416 0.9242155787221102 1.7011664719109412
0.3614366673389137 0.9260894040853355 1.7007029529073407
0.368212145523267 1.0063013283331748 1.8424758491372344
0.33886280491180115 0.982187147344261 1.7941203812480118
0.42186654530664297 1.287980126415424 2.347574729405496
0.44454111229126686 1.4197490458192321 2.5826659818625433
0.4187878396430996 1.389667349492239 2.5236058489729993
0.3642921773857422 1.2477407728370722 2.262581524227285

VECTORS L float
-1.9120186019704537 1.4389442010154092 2.4936121506275577
-2.2002173669329324 1.0095923209799094 1.7284500251950257
-18.500718770785436 6.184244719615844 10.634653604904345
-31.073135744382018 8.289558258394075 14.288902200372487
-44.333466740099375 9.9352683072357 17.145576061821195
-54.51361297605608 10.597334658861294 18.288347228401495
-62.62922551026214 10.778477667416608 18.592180438016683
-70.60171868308434 10.908099618005727 18.806453254981797
-76.24581632568534 10.668339126108075 18.393808288356826
-80.13270942633804 10.235730515826317 17.64443050517902
-81.6230012727326 9.580021907078697 16.505055967898816
-81.76337680811267 8.865007614522149 15.265428099186654
-81.2541982684248 8.184934322262398 14.076343970355222
-78.39090936630848 7.360350092781058 12.651831269510721
-76.10034485246837 6.719236088397908 11.538547472415404
-73.43684141946757 6.1255739461928735 10.516882960819617
-60.173038717220926 4.792406676301201 8.18396414257097
-47.88550660427698 3.6663927485563144 6.22679002049543
-35.10848590757471 2.603396872622642 4.392584261615465
-27.119103788516384 1.9565442857585893 3.2874029991942106
-1.9120186019704537 1.4389442010154092 2.4936121506275577
-2.2002173669329324 1.0095923209799094 1.7284500251950257
-18.500718770785436 6.184244719615844 10.634653604904345
-31.073135744382018 8.289558258394075 14.288902200372487
-44.333466740099375 9.9352683072357 17.145576061821195
-54.51361297605608 10.597334658861294 18.288347228401495
-62.62922551026214 10.778477667416608 18.592180438016683
-70.60171868308434 10.908099618005727 18.806453254981797
-76.24581632568534 10.668339126108075 18.393808288356826
-80.13270942633804 10.235730515826317 17.64443050517902
-81.6230012727326 9.580021907078697 16.505055967898816
-81.76337680811267 8.865007614522149 15.265428099186654
-81.2541982684248 8.184934322262398 14.076343970355222
-78.39090936630848 7.360350092781058 12.651831269510721
-76.10034485246837 6.719236088397908 11.538547472415404
-73.43684141946757 6.1255739461928735 10.516882960819617
-60.173038717220926 4.792406676301201 8.18396414257097
-47.88550660427698 3.6663927485563144 6.22679002049543
-35.10848590757471 2.603396872622642 4.392584261615465
-27.119103788516384 1.9565442857585893 3.2874029991942106

SCALARS mu float
LOOKUP_TABLE default
-0.0485642157187675
0.5379872071699705
1.3028232626351723
0.860490729131913
0.6566568755478466
0.6321813681268923
0.6866495885639282
0.7566574552381169
0.737089372639656
0.7649233458837946
0.8499687309325241
0.936250245240003
1.1585767148293786
1.2312704726658068
1.4228781000989146
1.4899800788834285
2.13115355171148
2.6257404193346505
2.9636150627909252
3.179127472718151
-0.0485642157187675
0.5379872071699705
1.3028232626351723
0.860490729131913
0.6566568755478466
0.6321813681268923
0.6866495885639282
0.7566574552381169
0.737089372639656
0.7649233458837946
0.8499687309325241
0.936250245240003
1.1585767148293786
1.2312704726658068
1.4228781000989146
1.4899800788834285
2.13115355171148
2.6257404193346505
2.9636150627909252
3.179127472718151