# vtk DataFile Version 4.0
[MyVLM domain - lattices] 
ASCII
DATASET UNSTRUCTURED_GRID
POINTS 62 float
0.00022673658128986117 -0.0011491076984755351 0.013460484151610826
-0.003724999406033424 -0.008248777061504228 0.02022834340130064
-0.00549739299719125 -0.01473834783498592 0.027082072332948806
-0.005451904080891177 -0.02063727154155244 0.03399848952457738
-0.004354059046121628 -0.026501438050996536 0.040315111226774156
-0.0029556321221654493 -0.03263775632534047 0.045666177581449745
-0.0016722727371407085 -0.03886176127899828 0.0502715255170594
-0.0006485493516483927 -0.0448666121339608 0.05449683363314994
0.0001374053121431227 -0.050601280357635225 0.058402915366763695
0.0007511984436382017 -0.05608635077458173 0.06196523867927811
0.0012455433643025467 -0.061296247193785576 0.06521428408821987
0.0016598526811940704 -0.06617878159440334 0.06821224685491954
0.002022453218220871 -0.07067505861565057 0.07102931573717912
0.002352563731918074 -0.074749656605969 0.07370770461549876
0.002662053738196183 -0.0784371535764398 0.07620620502094774
0.002957000443680671 -0.08181314156728947 0.07843472986801461
0.0032390594424296184 -0.08495073246384763 0.08030614780469643
0.0035066635059833096 -0.08789552210397614 0.08176611982741401
0.0037560624618667195 -0.09065527791221377 0.08280538908006807
0.003982215822832984 -0.09320040765754588 0.0834592222102832
0.004179548496302947 -0.09547171749206199 0.0837981636989661
0.008285994416043337 -0.010980175890728618 0.0017442733144545912
0.007508437091591354 -0.017352665786679555 0.009378751306495065
0.00973309288421085 -0.024081945730051665 0.01594680597374854
0.010440442308044806 -0.03338733015952878 0.018803561360817362
0.01004693542569484 -0.04102329956422038 0.02300863059723412
0.0094954698488839 -0.047566430327333833 0.027874876706906436
0.009038213335578684 -0.0535145957645302 0.03280895737723847
0.008539133039147835 -0.058945972665731795 0.037717705137982796
0.008012046218423283 -0.06389123082917052 0.04256456914691245
0.007469873605570215 -0.06841015201623733 0.04727830427511811
0.0069256484677951155 -0.07255163916647353 0.05180063026871304
0.0064559301991455546 -0.07634063711034532 0.056101819036372444
0.006108090109537901 -0.07980056154496164 0.06015396483694371
0.005835591307912621 -0.08296652651708271 0.06391522037904977
0.005646315885461864 -0.08586451898814779 0.06735461560803481
0.005556570152728891 -0.08851777448173642 0.0704444595051971
0.005484703593381549 -0.09095693246201868 0.07314823737903678
0.005393245002100456 -0.09319299224401602 0.07545284075636095
0.005297730961761147 -0.09521695522120481 0.07736899375882252
0.00521698140800628 -0.09700974380722398 0.07891943216850535
0.005155604557614359 -0.09854722829135516 0.08013291265484618
0.005485628962270063 -0.011799551224025536 0.008382237676970054
0.005312774690522743 -0.018411369930835475 0.015410885946872536
0.006196413562335568 -0.02597293088065996 0.020666457982652986
0.006457021259275767 -0.033796324845474554 0.02496877207818825
0.006414690581931144 -0.040613548006374955 0.029828976340080703
0.006371643086760199 -0.04684282448499136 0.03474865066886798
0.006301402129423808 -0.05263875983796813 0.03954354333698415
0.00614279921665101 -0.057997437872037864 0.044218321481824925
0.005916795403470228 -0.06294897245855506 0.04873709678901668
0.005647913503504593 -0.06753349643956248 0.05305204079987392
0.005381266505789829 -0.07176898220233069 0.05714173485729949
0.005171795853183163 -0.07565967952199686 0.0610011142765059
0.005025757650311314 -0.07921574742596908 0.06461807200008231
0.004932542381279714 -0.08245999333726253 0.06796542719971253
0.00490346403705614 -0.08542464694417275 0.07100477002858226
0.004914985140555201 -0.0881484993578003 0.07368987104067658
0.0049224460918573685 -0.09066200358574099 0.07598443775478794
0.004916956732429355 -0.09297258030148156 0.07787962655662906
0.004910301924250248 -0.09506697283188074 0.07939123613404185
0.004909940276999731 -0.09691788018066816 0.08055180254741298

CELLS 40 140
4 0 21 22 1
4 1 22 23 2
4 2 23 24 3
4 3 24 25 4
4 4 25 26 5
4 5 26 27 6
4 6 27 28 7
4 7 28 29 8
4 8 29 30 9
4 9 30 31 10
4 10 31 32 11
4 11 32 33 12
4 12 33 34 13
4 13 34 35 14
4 14 35 36 15
4 15 36 37 16
4 16 37 38 17
4 17 38 39 18
4 18 39 40 19
4 19 40 41 20
1 42
1 43
1 44
1 45
1 46
1 47
1 48
1 49
1 50
1 51
1 52
1 53
1 54
1 55
1 56
1 57
1 58
1 59
1 60
1 61

CELL_TYPES 40
9
9
9
9
9
9
9
9
9
9
9
9
9
9
9
9
9
9
9
9
1
1
1
1
1
1
1
1
1
1
1
1
1
1
1
1
1
1
1
1

CELL_DATA 40

VECTORS S float
0.0 -0.0 0.0
2.2904894153493e-18 -9.709135861517192e-17 5.379566325064283e-17
-1.4833730604040498e-17 7.786605328051835e-16 -4.269995788158653e-16
0.0 -0.0 0.0
2.160686488067728e-17 -1.5605137649116623e-15 8.483946922248535e-16
0.0 -0.0 0.0
1.737881313483374e-17 -1.5614860606757017e-15 8.46701175181392e-16
1.583947321420244e-17 -1.561693571694439e-15 8.463485807281836e-16
1.433044106393383e-17 -1.5616941949210005e-15 8.463743266977141e-16
0.0 -0.0 0.0
1.18442514640355e-17 -1.5610890246979709e-15 8.475284016237113e-16
0.0 -0.0 0.0
0.0 -0.0 0.0
-9.05784808613005e-18 1.5592301000721868e-15 -8.509777149261746e-16
0.0 -0.0 0.0
0.0 -0.0 0.0
-3.8176091577433e-18 7.783852005367902e-16 -4.2774152319669804e-16
0.0 -0.0 0.0
0.0 -0.0 0.0
-2.01967693883629e-18 3.887351531698637e-16 -2.147000882634152e-16
0.0 -0.0 0.0
2.2904894153493e-18 -9.709135861517192e-17 5.379566325064283e-17
-1.4833730604040498e-17 7.786605328051835e-16 -4.269995788158653e-16
0.0 -0.0 0.0
2.160686488067728e-17 -1.5605137649116623e-15 8.483946922248535e-16
0.0 -0.0 0.0
1.737881313483374e-17 -1.5614860606757017e-15 8.46701175181392e-16
1.583947321420244e-17 -1.561693571694439e-15 8.463485807281836e-16
1.433044106393383e-17 -1.5616941949210005e-15 8.463743266977141e-16
0.0 -0.0 0.0
1.18442514640355e-17 -1.5610890246979709e-15 8.475284016237113e-16
0.0 -0.0 0.0
0.0 -0.0 0.0
-9.05784808613005e-18 1.5592301000721868e-15 -8.509777149261746e-16
0.0 -0.0 0.0
0.0 -0.0 0.0
-3.8176091577433e-18 7.783852005367902e-16 -4.2774152319669804e-16
0.0 -0.0 0.0
0.0 -0.0 0.0
-2.01967693883629e-18 3.887351531698637e-16 -2.147000882634152e-16

SCALARS Gamma float
LOOKUP_TABLE default
0.11684923129260034
0.08051886424762751
0.4887222149476047
0.6479189749423012
0.7689866882211204
0.8145138381766254
0.8264007539172138
0.8384727543740497
0.8270293138352592
0.803622751615746
0.7645360137691092
0.721468459640416
0.6804474005620121
0.6270887312418196
0.5850678342592571
0.5452645954048948
0.4335699435264041
0.3363148869013882
0.24133445723863112
0.18315240023536838
0.11684923129260034
0.08051886424762751
0.4887222149476047
0.6479189749423012
0.7689866882211204
0.8145138381766254
0.8264007539172138
0.8384727543740497
0.8270293138352592
0.803622751615746
0.7645360137691092
0.721468459640416
0.6804474005620121
0.6270887312418196
0.5850678342592571
0.5452645954048948
0.4335699435264041
0.3363148869013882
0.24133445723863112
0.18315240023536838

VECTORS Ftot float
-1.9334164028209737 -1.4323964484931337 -2.480983425371314
-1.9477001862612466 -1.1396461633233337 -1.9739250575269451
-17.729994839986144 -6.730598785656195 -11.657739062117871
-30.493923973974194 -8.804455236725799 -15.249763802974886
-43.88177767205329 -10.413362707352256 -18.03647328677703
-54.09027051293667 -11.114363821007856 -19.250642831790895
-62.192070437297815 -11.382297779964123 -19.71471806177622
-70.15133194550602 -11.601797208766138 -20.094902224693655
-75.84338543632083 -11.353383621983706 -19.664637271096062
-79.75666462469265 -10.937862965393355 -18.9449343822872
-81.25261262093692 -10.334046300191503 -17.899093239700786
-81.40538195503485 -9.655506306986194 -16.72382749650176
-80.86639248247893 -9.109149900984479 -15.777510442266061
-78.02947269896984 -8.286439496866373 -14.352534222417987
-75.73213270694535 -7.725537416731062 -13.381023321552561
-73.09797861455603 -7.107761093537117 -12.31100334206756
-59.75117217191456 -6.080386802716611 -10.531538871976409
-47.44096549198574 -5.086141794375524 -8.80945600235791
-34.68969806793168 -3.993064222114869 -6.916190110588421
-26.7548116111307 -3.2042850585956493 -5.549984523421459
-1.9334164028209737 -1.4323964484931337 -2.480983425371314
-1.9477001862612466 -1.1396461633233337 -1.9739250575269451
-17.729994839986144 -6.730598785656195 -11.657739062117871
-30.493923973974194 -8.804455236725799 -15.249763802974886
-43.88177767205329 -10.413362707352256 -18.03647328677703
-54.09027051293667 -11.114363821007856 -19.250642831790895
-62.192070437297815 -11.382297779964123 -19.71471806177622
-70.15133194550602 -11.601797208766138 -20.094902224693655
-75.84338543632083 -11.353383621983706 -19.664637271096062
-79.75666462469265 -10.937862965393355 -18.9449343822872
-81.25261262093692 -10.334046300191503 -17.899093239700786
-81.40538195503485 -9.655506306986194 -16.72382749650176
-80.86639248247893 -9.109149900984479 -15.777510442266061
-78.02947269896984 -8.286439496866373 -14.352534222417987
-75.73213270694535 -7.725537416731062 -13.381023321552561
-73.09797861455603 -7.107761093537117 -12.31100334206756
-59.75117217191456 -6.080386802716611 -10.531538871976409
-47.44096549198574 -5.086141794375524 -8.80945600235791
-34.68969806793168 -3.993064222114869 -6.916190110588421
-26.7548116111307 -3.2042850585956493 -5.549984523421459

VECTORS D float
-0.021397800850540247 0.006547752522273585 0.012628725256234014
0.25251718067166 -0.13005384234342673 -0.2454750323319261
0.7707239307992454 -0.5463540660403157 -1.023085457213482
0.5792117704079013 -0.5148969783316417 -0.9608616026022853
0.45168906804609177 -0.478094400116469 -0.8908972249557205
0.42334246311912144 -0.5170291621465123 -0.9622956033893539
0.437155072964168 -0.6038201125474426 -1.12253762375945
0.4503867375783318 -0.6936975907603199 -1.2884489697117325
0.4024308893644635 -0.6850444958755415 -1.270828982739116
0.3760448016453747 -0.7021324495669523 -1.3005038771080681
0.37038865179561026 -0.7540243931127294 -1.394037271801875
0.3579948530778865 -0.7904986924639614 -1.458399397314991
0.3878057859460473 -0.9242155787219966 -1.7011664719107218
0.36143666733887586 -0.9260894040852348 -1.7007029529071513
0.3682121455232334 -1.0063013283330806 -1.842475849137052
0.3388628049117725 -0.9821871473441766 -1.7941203812478455
0.4218665453066215 -1.2879801264153552 -2.3475747294053595
0.4445411122912518 -1.419749045819178 -2.582665981862435
0.41878783964308997 -1.3896673494922012 -2.523605848972923
0.36429217738573483 -1.2477407728370435 -2.2625815242272207
-0.021397800850540247 0.006547752522273585 0.012628725256234014
0.25251718067166 -0.13005384234342673 -0.2454750323319261
0.7707239307992454 -0.5463540660403157 -1.023085457213482
0.5792117704079013 -0.5148969783316417 -0.9608616026022853
0.45168906804609177 -0.478094400116469 -0.8908972249557205
0.42334246311912144 -0.5170291621465123 -0.9622956033893539
0.437155072964168 -0.6038201125474426 -1.12253762375945
0.4503867375783318 -0.6936975907603199 -1.2884489697117325
0.4024308893644635 -0.6850444958755415 -1.270828982739116
0.3760448016453747 -0.7021324495669523 -1.3005038771080681
0.37038865179561026 -0.7540243931127294 -1.394037271801875
0.3579948530778865 -0.7904986924639614 -1.458399397314991
0.3878057859460473 -0.9242155787219966 -1.7011664719107218
0.36143666733887586 -0.9260894040852348 -1.7007029529071513
0.3682121455232334 -1.0063013283330806 -1.842475849137052
0.3388628049117725 -0.9821871473441766 -1.7941203812478455
0.4218665453066215 -1.2879801264153552 -2.3475747294053595
0.4445411122912518 -1.419749045819178 -2.582665981862435
0.41878783964308997 -1.3896673494922012 -2.523605848972923
0.36429217738573483 -1.2477407728370435 -2.2625815242272207

VECTORS L float
-1.9120186019704335 -1.4389442010154072 -2.493612150627548
-2.2002173669329066 -1.009592320979907 -1.7284500251950188
-18.500718770785397 -6.184244719615882 -10.634653604904393
-31.073135744382107 -8.289558258394157 -14.288902200372602
-44.33346674009939 -9.935268307235788 -17.145576061821316
-54.51361297605579 -10.597334658861346 -18.288347228401545
-62.62922551026199 -10.778477667416679 -18.592180438016776
-70.60171868308436 -10.908099618005817 -18.80645325498192
-76.24581632568531 -10.668339126108165 -18.39380828835695
-80.13270942633804 -10.235730515826406 -17.644430505179134
-81.62300127273252 -9.580021907078775 -16.50505596789891
-81.76337680811274 -8.86500761452223 -15.265428099186765
-81.25419826842497 -8.18493432226248 -14.076343970355337
-78.3909093663087 -7.3603500927811405 -12.651831269510833
-76.10034485246861 -6.7192360883979845 -11.538547472415512
-73.4368414194678 -6.125573946192941 -10.516882960819716
-60.1730387172212 -4.792406676301258 -8.183964142571053
-47.885506604277005 -3.666392748556347 -6.226790020495476
-35.10848590757478 -2.6033968726226684 -4.392584261615499
-27.119103788516448 -1.9565442857586064 -3.2874029991942395
-1.9120186019704335 -1.4389442010154072 -2.493612150627548
-2.2002173669329066 -1.009592320979907 -1.7284500251950188
-18.500718770785397 -6.184244719615882 -10.634653604904393
-31.073135744382107 -8.289558258394157 -14.288902200372602
-44.33346674009939 -9.935268307235788 -17.145576061821316
-54.51361297605579 -10.597334658861346 -18.288347228401545
-62.62922551026199 -10.778477667416679 -18.592180438016776
-70.60171868308436 -10.908099618005817 -18.80645325498192
-76.24581632568531 -10.668339126108165 -18.39380828835695
-80.13270942633804 -10.235730515826406 -17.644430505179134
-81.62300127273252 -9.580021907078775 -16.50505596789891
-81.76337680811274 -8.86500761452223 -15.265428099186765
-81.25419826842497 -8.18493432226248 -14.076343970355337
-78.3909093663087 -7.3603500927811405 -12.651831269510833
-76.10034485246861 -6.7192360883979845 -11.538547472415512
-73.4368414194678 -6.125573946192941 -10.516882960819716
-60.1730387172212 -4.792406676301258 -8.183964142571053
-47.885506604277005 -3.666392748556347 -6.226790020495476
-35.10848590757478 -2.6033968726226684 -4.392584261615499
-27.119103788516448 -1.9565442857586064 -3.2874029991942395

SCALARS mu float
LOOKUP_TABLE default
-0.0485642157187675
0.53798720716997
1.302823262635176
0.8604907291319177
0.6566568755478476
0.6321813681268916
0.6866495885639283
0.7566574552381171
0.7370893726396561
0.7649233458837944
0.8499687309325241
0.9362502452400034
1.1585767148293793
1.2312704726658075
1.4228781000989155
1.48998007888343
2.131153551711485
2.625740419334652
2.9636150627909297
3.1791274727181538
-0.0485642157187675
0.53798720716997
1.302823262635176
0.8604907291319177
0.6566568755478476
0.6321813681268916
0.6866495885639283
0.7566574552381171
0.7370893726396561
0.7649233458837944
0.8499687309325241
0.9362502452400034
1.1585767148293793
1.2312704726658075
1.4228781000989155
1.48998007888343
2.131153551711485
2.625740419334652
2.9636150627909297
3.1791274727181538