# vtk DataFile Version 4.0
[MyVLM domain - lattices] 
ASCII
DATASET UNSTRUCTURED_GRID
POINTS 62 float
0.00022673658128986117 0.009572696895257193 0.009532499999999961
-0.003724999406033424 0.010193598365867496 0.019321458333333257
-0.00549739299719125 0.011272443643222432 0.028698249999999894
-0.005451904080891177 0.012778971530094945 0.03766287499999986
-0.004354059046121628 0.013848370910938114 0.046215333333333164
-0.0029556321221654493 0.014003176200856914 0.054355624999999796
-0.0016722727371407085 0.013530364128721255 0.06208374999999977
-0.0006485493516483927 0.0129072942039324 0.06939970833333307
0.0001374053121431227 0.012213352730494712 0.07630349999999972
0.0007511984436382017 0.011416515406368167 0.08279512499999969
0.0012455433643025467 0.010556571721314722 0.08887458333333301
0.0016598526811940704 0.009714711822837193 0.09454187499999965
0.002022453218220871 0.008982560626999508 0.09979699999999964
0.002352563731918074 0.008415224441117582 0.10463995833333295
0.002662053738196183 0.007958909429467004 0.10907074999999959
0.002957000443680671 0.007496015253946406 0.11308937499999958
0.0032390594424296184 0.00691280001252183 0.11669583333333287
0.0035066635059833096 0.006138329173825901 0.11989012499999954
0.0037560624618667195 0.005160518770430344 0.12267224999999954
0.003982215822832984 0.004025406141214568 0.12504220833333288
0.004179548496302947 0.002825080565776438 0.12699999999999953
0.008285994416043337 -0.005721730134920634 0.009532499999999965
0.007508437091591354 -0.003969538240973795 0.01932145833333326
0.00973309288421085 -0.0032636142307343155 0.028698249999999894
0.010440442308044806 -0.007056598455758031 0.03766287499999986
0.01004693542569484 -0.008743635055551686 0.046215333333333164
0.0094954698488839 -0.009221717647476028 0.054355624999999796
0.009038213335578684 -0.009265399611462955 0.06208374999999977
0.008539133039147835 -0.008996302442302087 0.06939970833333307
0.008012046218423283 -0.008462139875867766 0.07630349999999972
0.007469873605570215 -0.0077559158227676235 0.08279512499999969
0.0069256484677951155 -0.006953709751249553 0.08887458333333301
0.0064559301991455546 -0.00609432892842684 0.09454187499999965
0.006108090109537901 -0.005214201712214379 0.09979699999999964
0.005835591307912621 -0.00436795586181457 0.10463995833333295
0.005646315885461864 -0.0035960199123261606 0.10907074999999959
0.005556570152728891 -0.0029345419214114096 0.11308937499999958
0.005484703593381549 -0.0024311884335219526 0.11669583333333287
0.005393245002100456 -0.002103071345115815 0.11989012499999954
0.005297730961761147 -0.0019361913096156036 0.12267224999999954
0.00521698140800628 -0.0019008688713604226 0.12504220833333288
0.005155604557614359 -0.0019595648644505303 0.12699999999999953
0.005485628962270063 -0.001163438733319824 0.014426979166666612
0.005312774690522743 -2.917692575429949e-5 0.024009854166666577
0.006196413562335568 -0.0008636528607699579 0.03318056249999987
0.006457021259275767 -0.002596669761612011 0.04193910416666651
0.006414690581931144 -0.0032555638746610133 0.05028547916666649
0.006371643086760199 -0.0034909764309048455 0.05821968749999979
0.006301402129423808 -0.003543430978580182 0.06574172916666643
0.00614279921665101 -0.003406835002510306 0.07285160416666639
0.005916795403470228 -0.003128037369880411 0.0795493124999997
0.005647913503504593 -0.0027694736992960813 0.08583485416666635
0.005381266505789829 -0.002359104061859657 0.09170822916666634
0.005171795853183163 -0.001903539934010869 0.09716943749999965
0.005025757650311314 -0.0014185859567462202 0.10221847916666628
0.004932542381279714 -0.0009397241814797022 0.10685535416666626
0.00490346403705614 -0.0005170951022249121 0.11108006249999959
0.004914985140555201 -0.00021104697479148074 0.11489260416666623
0.0049224460918573685 -6.895626869569725e-5 0.11829297916666623
0.004916956732429355 -0.00010236750249225185 0.12128118749999954
0.004910301924250248 -0.0002906569539103961 0.1238572291666662
0.004909940276999731 -0.0005913518125552315 0.1260211041666662

CELLS 40 140
4 0 21 22 1
4 1 22 23 2
4 2 23 24 3
4 3 24 25 4
4 4 25 26 5
4 5 26 27 6
4 6 27 28 7
4 7 28 29 8
4 8 29 30 9
4 9 30 31 10
4 10 31 32 11
4 11 32 33 12
4 12 33 34 13
4 13 34 35 14
4 14 35 36 15
4 15 36 37 16
4 16 37 38 17
4 17 38 39 18
4 18 39 40 19
4 19 40 41 20
1 42
1 43
1 44
1 45
1 46
1 47
1 48
1 49
1 50
1 51
1 52
1 53
1 54
1 55
1 56
1 57
1 58
1 59
1 60
1 61

CELL_TYPES 40
9
9
9
9
9
9
9
9
9
9
9
9
9
9
9
9
9
9
9
9
1
1
1
1
1
1
1
1
1
1
1
1
1
1
1
1
1
1
1
1

CELL_DATA 40

VECTORS S float
2.52146750872653e-18 -2.0971558752619198e-17 1.0899443824877574e-16
0.0 -0.0 0.0
7.624753578084959e-18 -8.707891726958252e-17 4.3540136840079365e-16
-6.2727675810071895e-18 8.79611164974685e-17 -4.3524558662512183e-16
1.079913025517648e-17 -1.7703739569983447e-16 8.70288483510246e-16
0.0 -0.0 0.0
8.19980471460289e-18 -1.767768209594102e-16 8.703698202460486e-16
-7.50374644908518e-18 1.7707801256140284e-16 -8.703148720305446e-16
0.0 -0.0 0.0
-1.251762339716576e-17 3.543968920415056e-16 -1.7406004058657045e-15
0.0 -0.0 0.0
0.0 -0.0 0.0
4.88423704619698e-18 -1.7610889910296584e-16 8.705301287756959e-16
0.0 -0.0 0.0
0.0 -0.0 0.0
1.900004991482e-18 -8.702126203154825e-17 4.354755059021368e-16
1.9156385323029498e-18 -8.663603001540526e-17 4.355522413413072e-16
9.742823511873e-19 -4.3137952067423995e-17 2.1781178673717827e-16
2.0155833905019e-18 -8.594909989960732e-17 4.356878652835034e-16
-2.0251951095141798e-18 8.567492320206827e-17 -4.3574181853976455e-16
2.52146750872653e-18 -2.0971558752619198e-17 1.0899443824877574e-16
0.0 -0.0 0.0
7.624753578084959e-18 -8.707891726958252e-17 4.3540136840079365e-16
-6.2727675810071895e-18 8.79611164974685e-17 -4.3524558662512183e-16
1.079913025517648e-17 -1.7703739569983447e-16 8.70288483510246e-16
0.0 -0.0 0.0
8.19980471460289e-18 -1.767768209594102e-16 8.703698202460486e-16
-7.50374644908518e-18 1.7707801256140284e-16 -8.703148720305446e-16
0.0 -0.0 0.0
-1.251762339716576e-17 3.543968920415056e-16 -1.7406004058657045e-15
0.0 -0.0 0.0
0.0 -0.0 0.0
4.88423704619698e-18 -1.7610889910296584e-16 8.705301287756959e-16
0.0 -0.0 0.0
0.0 -0.0 0.0
1.900004991482e-18 -8.702126203154825e-17 4.354755059021368e-16
1.9156385323029498e-18 -8.663603001540526e-17 4.355522413413072e-16
9.742823511873e-19 -4.3137952067423995e-17 2.1781178673717827e-16
2.0155833905019e-18 -8.594909989960732e-17 4.356878652835034e-16
-2.0251951095141798e-18 8.567492320206827e-17 -4.3574181853976455e-16

SCALARS Gamma float
LOOKUP_TABLE default
0.1318307907969393
0.09506574867762337
0.4983243661285154
0.6623518568609315
0.7868001239685698
0.8318283908321465
0.8496057567569303
0.8619581138892634
0.8521979201353425
0.8268146561762038
0.7874426221542468
0.7424361255578665
0.7006357892745555
0.6459900480562769
0.6044568302873413
0.5627528429824329
0.4463271023785525
0.3461606426522814
0.25166450658834305
0.1910377457508008
0.1318307907969393
0.09506574867762337
0.4983243661285154
0.6623518568609315
0.7868001239685698
0.8318283908321465
0.8496057567569303
0.8619581138892634
0.8521979201353425
0.8268146561762038
0.7874426221542468
0.7424361255578665
0.7006357892745555
0.6459900480562769
0.6044568302873413
0.5627528429824329
0.4463271023785525
0.3461606426522814
0.25166450658834305
0.1910377457508008

VECTORS Ftot float
-2.129521424250727 -3.0632229710535417 -0.5401288577226837
-2.3067062855004146 -2.5137355142247815 -0.4432393935228956
-17.76554855987147 -13.143715457574432 -2.317591661925276
-30.735129492770895 -17.18987219341522 -3.031038262629299
-44.352521427683264 -20.310725883847745 -3.581328971096136
-54.626331366905305 -21.674229476863914 -3.82175144283782
-63.43188851881487 -22.316300197999553 -3.9349658344969742
-71.61486314470852 -22.7529572678524 -4.011960257229131
-77.6461859992218 -22.357463145602733 -3.9422239727649036
-81.57731725111364 -21.50609622040897 -3.7921050133704375
-83.23954088615004 -20.352569133549807 -3.588707064979131
-83.36893720635581 -18.97477954698687 -3.345765587128924
-82.90284146450423 -17.908010572814074 -3.1576654347995685
-80.0626354062909 -16.299657753099947 -2.874069438185431
-77.98567202543414 -15.188966212490241 -2.6782245523312884
-75.20659612345119 -13.960955783438328 -2.4616931810980587
-61.33063184677135 -11.944115966763661 -2.106069905651201
-48.69691774358202 -10.026622531508835 -1.7679640776844157
-36.08794481349046 -7.970814932083402 -1.4054697307602122
-27.849000063967953 -6.378692473498885 -1.1247355847198666
-2.129521424250727 -3.0632229710535417 -0.5401288577226837
-2.3067062855004146 -2.5137355142247815 -0.4432393935228956
-17.76554855987147 -13.143715457574432 -2.317591661925276
-30.735129492770895 -17.18987219341522 -3.031038262629299
-44.352521427683264 -20.310725883847745 -3.581328971096136
-54.626331366905305 -21.674229476863914 -3.82175144283782
-63.43188851881487 -22.316300197999553 -3.9349658344969742
-71.61486314470852 -22.7529572678524 -4.011960257229131
-77.6461859992218 -22.357463145602733 -3.9422239727649036
-81.57731725111364 -21.50609622040897 -3.7921050133704375
-83.23954088615004 -20.352569133549807 -3.588707064979131
-83.36893720635581 -18.97477954698687 -3.345765587128924
-82.90284146450423 -17.908010572814074 -3.1576654347995685
-80.0626354062909 -16.299657753099947 -2.874069438185431
-77.98567202543414 -15.188966212490241 -2.6782245523312884
-75.20659612345119 -13.960955783438328 -2.4616931810980587
-61.33063184677135 -11.944115966763661 -2.106069905651201
-48.69691774358202 -10.026622531508835 -1.7679640776844157
-36.08794481349046 -7.970814932083402 -1.4054697307602122
-27.849000063967953 -6.378692473498885 -1.1247355847198666

VECTORS D float
-0.01724861382948968 0.011392501730452554 0.0025910527478158083
0.24653777227162282 -0.2705981602832708 -0.058423406475741874
0.8128189934211849 -1.2220003572655516 -0.25863035974313575
0.5947598986436157 -1.1186194712997126 -0.23463950326045852
0.440565117919271 -0.9851908366362777 -0.2058781007385531
0.4127262085246627 -1.063434079494969 -0.22161354523351703
0.4122387924631993 -1.2032233721404486 -0.24826490441034196
0.42462850434040356 -1.3816952842235954 -0.2847867679764329
0.3855417672597959 -1.384757035361127 -0.28502344358455706
0.3577116235218757 -1.4078858683252713 -0.2892266793545204
0.3567629727352115 -1.52993052928141 -0.3134861625043613
0.3415047571322061 -1.5878417202052924 -0.32428057021883755
0.37354637271184954 -1.8740990367040176 -0.3812274799295957
0.3480594044896125 -1.874564807689938 -0.37961246825644696
0.35123395569060767 -2.0190197766762426 -0.4068984404288428
0.32573919599660167 -1.9859763937127386 -0.3982797560215414
0.41210357468188946 -2.64719966309872 -0.5283690200910152
0.43913130670820627 -2.9519755288633065 -0.5866074497817088
0.4165712828126789 -2.9109045090796024 -0.5761676571927287
0.3590189567096867 -2.5907308984158695 -0.5110543553992959
-0.01724861382948968 0.011392501730452554 0.0025910527478158083
0.24653777227162282 -0.2705981602832708 -0.058423406475741874
0.8128189934211849 -1.2220003572655516 -0.25863035974313575
0.5947598986436157 -1.1186194712997126 -0.23463950326045852
0.440565117919271 -0.9851908366362777 -0.2058781007385531
0.4127262085246627 -1.063434079494969 -0.22161354523351703
0.4122387924631993 -1.2032233721404486 -0.24826490441034196
0.42462850434040356 -1.3816952842235954 -0.2847867679764329
0.3855417672597959 -1.384757035361127 -0.28502344358455706
0.3577116235218757 -1.4078858683252713 -0.2892266793545204
0.3567629727352115 -1.52993052928141 -0.3134861625043613
0.3415047571322061 -1.5878417202052924 -0.32428057021883755
0.37354637271184954 -1.8740990367040176 -0.3812274799295957
0.3480594044896125 -1.874564807689938 -0.37961246825644696
0.35123395569060767 -2.0190197766762426 -0.4068984404288428
0.32573919599660167 -1.9859763937127386 -0.3982797560215414
0.41210357468188946 -2.64719966309872 -0.5283690200910152
0.43913130670820627 -2.9519755288633065 -0.5866074497817088
0.4165712828126789 -2.9109045090796024 -0.5761676571927287
0.3590189567096867 -2.5907308984158695 -0.5110543553992959

VECTORS L float
-2.1122728104212376 -3.0746154727839947 -0.5427199104704997
-2.5532440577720377 -2.243137353941511 -0.3848159870471538
-18.578367553292658 -11.921715100308887 -2.058961302182141
-31.32988939141452 -16.071252722115513 -2.7963987593688415
-44.79308654560255 -19.325535047211478 -3.375450870357584
-55.03905757542997 -20.61079539736895 -3.600137897604304
-63.84412731127808 -21.11307682585911 -3.686700930086633
-72.03949164904894 -21.37126198362881 -3.7271734892526984
-78.0317277664816 -20.972706110241607 -3.6572005291803467
-81.93502887463552 -20.0982103520837 -3.5028783340159153
-83.59630385888525 -18.8226386042684 -3.2752209024747696
-83.710441963488 -17.38693782678158 -3.021485016910087
-83.27638783721609 -16.03391153611006 -2.7764379548699734
-80.41069481078051 -14.42509294541001 -2.4944569699289842
-78.33690598112476 -13.169946435814 -2.271326111902446
-75.5323353194478 -11.97497938972559 -2.0634134250765177
-61.74273542145324 -9.296916303664943 -1.5777008855601862
-49.136049050290225 -7.074647002645528 -1.181356627902707
-36.50451609630315 -5.0599104230038 -0.8293020735674838
-28.208019020677636 -3.7879615750830156 -0.6136812293205702
-2.1122728104212376 -3.0746154727839947 -0.5427199104704997
-2.5532440577720377 -2.243137353941511 -0.3848159870471538
-18.578367553292658 -11.921715100308887 -2.058961302182141
-31.32988939141452 -16.071252722115513 -2.7963987593688415
-44.79308654560255 -19.325535047211478 -3.375450870357584
-55.03905757542997 -20.61079539736895 -3.600137897604304
-63.84412731127808 -21.11307682585911 -3.686700930086633
-72.03949164904894 -21.37126198362881 -3.7271734892526984
-78.0317277664816 -20.972706110241607 -3.6572005291803467
-81.93502887463552 -20.0982103520837 -3.5028783340159153
-83.59630385888525 -18.8226386042684 -3.2752209024747696
-83.710441963488 -17.38693782678158 -3.021485016910087
-83.27638783721609 -16.03391153611006 -2.7764379548699734
-80.41069481078051 -14.42509294541001 -2.4944569699289842
-78.33690598112476 -13.169946435814 -2.271326111902446
-75.5323353194478 -11.97497938972559 -2.0634134250765177
-61.74273542145324 -9.296916303664943 -1.5777008855601862
-49.136049050290225 -7.074647002645528 -1.181356627902707
-36.50451609630315 -5.0599104230038 -0.8293020735674838
-28.208019020677636 -3.7879615750830156 -0.6136812293205702

SCALARS mu float
LOOKUP_TABLE default
-0.04073218426784787
0.5454704849775169
1.4246778880682793
0.914751960295297
0.6619566186647896
0.6358834022087486
0.6674559915855092
0.7349177848207473
0.7267451421673332
0.7485096996415591
0.8422672775957333
0.9193576656449399
1.1498426088249611
1.2212822603283446
1.401038522584333
1.4806148322390378
2.1554672435919415
2.689736306651676
3.0615099324419073
3.258155471421473
-0.04073218426784787
0.5454704849775169
1.4246778880682793
0.914751960295297
0.6619566186647896
0.6358834022087486
0.6674559915855092
0.7349177848207473
0.7267451421673332
0.7485096996415591
0.8422672775957333
0.9193576656449399
1.1498426088249611
1.2212822603283446
1.401038522584333
1.4806148322390378
2.1554672435919415
2.689736306651676
3.0615099324419073
3.258155471421473