# vtk DataFile Version 4.0
[MyVLM domain - lattices] 
ASCII
DATASET UNSTRUCTURED_GRID
POINTS 62 float
0.00022673658128986117 -0.01223167507177057 0.0057350856172413275
-0.003724999406033424 -0.021642647792753794 0.002970521215233303
-0.00549739299719125 -0.030822936544954334 0.0007772525315652042
-0.005451904080891177 -0.039762191389359366 -0.0008731566574933739
-0.004354059046121628 -0.04816462950427994 -0.0027933629755954974
-0.0029556321221654493 -0.05586694804193717 -0.005432037309546233
-0.0016722727371407085 -0.06296729882427025 -0.00851950974488926
-0.0006485493516483927 -0.0696289484191025 -0.01160720907317824
0.0001374053121431227 -0.07587904854150758 -0.014620536570348798
0.0007511984436382017 -0.08170664623511185 -0.01758958523671377
0.0012455433643025467 -0.08712535030690656 -0.020476965182358996
0.0016598526811940704 -0.09216292942277723 -0.023206382624795584
0.002022453218220871 -0.09685072114964828 -0.02569173830651811
0.002352563731918074 -0.10120757295464601 -0.02788124923718307
0.002662053738196183 -0.10521508626236596 -0.029825465087264445
0.002957000443680671 -0.10883303938831554 -0.031634894026678025
0.0032390594424296184 -0.11202253031085892 -0.033416418481439274
0.0035066635059833096 -0.11475929799141116 -0.03523669510723301
0.0037560624618667195 -0.11703920946970045 -0.03710707911908141
0.003982215822832984 -0.11887801044296871 -0.03898430956935889
0.004179548496302947 -0.1203071972998227 -0.0407818508415738
0.008285994416043337 -0.007000672946825277 -0.008636974602165115
0.007508437091591354 -0.016798569780541013 -0.010338473741398046
0.00973309288421085 -0.025851311947513535 -0.012882173787908666
0.010440442308044806 -0.03297802689985174 -0.0195124954022816
0.01004693542569484 -0.040437708385606896 -0.024022904271056883
0.0094954698488839 -0.04792356651920705 -0.02725629867736044
0.009038213335578684 -0.05517068844263453 -0.02994052071671905
0.008539133039147835 -0.0621374771548099 -0.032189857210315476
0.008012046218423283 -0.06880761359695083 -0.034049144403660955
0.007469873605570215 -0.07514928855822145 -0.03560577738525773
0.0069256484677951155 -0.08113648132798745 -0.03693124747001163
0.0064559301991455546 -0.0867559190391887 -0.03806202156046191
0.006108090109537901 -0.09199514245962999 -0.03903233111572851
0.005835591307912621 -0.09683546779527938 -0.03989350943802402
0.005646315885461864 -0.10126306767276796 -0.04068354692344991
0.005556570152728891 -0.10526557872823315 -0.04143641163504714
0.005484703593381549 -0.10882669804330969 -0.04219689547289528
0.005393245002100456 -0.11194057300471855 -0.042981078359823593
0.005297730961761147 -0.11461199167098247 -0.04377580521315747
0.00521698140800628 -0.11685110501378052 -0.04455318646742344
0.005155604557614359 -0.11867075218401399 -0.045277946845435034
0.005485628962270063 -0.013159006380827903 -0.006027592274776856
0.005312774690522743 -0.022551903690233972 -0.008239271105140202
0.006196413562335568 -0.030884143059551193 -0.012159988962062369
0.006457021259275767 -0.03852175334375191 -0.01678408983163804
0.006414690581931144 -0.04613942528258237 -0.02025787614129921
0.006371643086760199 -0.05351462646896651 -0.023192750654584246
0.006301402129423808 -0.06056509300446326 -0.025814731574896388
0.00614279921665101 -0.06729290865198653 -0.028118093810682043
0.005916795403470228 -0.07368205015526703 -0.03014686089672733
0.005647913503504593 -0.07971116327508063 -0.031959703123110104
0.005381266505789829 -0.08537068510390153 -0.033582894362321904
0.005171795853183163 -0.0906583543836102 -0.035022647369985616
0.005025757650311314 -0.09556876560862781 -0.03629381365061985
0.004932542381279714 -0.10008978320264425 -0.03742973542610866
0.00490346403705614 -0.10420425810671059 -0.0384775293486792
0.004914985140555201 -0.10789155000172536 -0.039493904228993064
0.0049224460918573685 -0.11113545518079436 -0.04052337938585362
0.004916956732429355 -0.11393202518602683 -0.0415768031181572
0.004910301924250248 -0.11628831374586979 -0.04263479546627288
0.004909940276999731 -0.11821884741702186 -0.04365744504368852

CELLS 40 140
4 0 21 22 1
4 1 22 23 2
4 2 23 24 3
4 3 24 25 4
4 4 25 26 5
4 5 26 27 6
4 6 27 28 7
4 7 28 29 8
4 8 29 30 9
4 9 30 31 10
4 10 31 32 11
4 11 32 33 12
4 12 33 34 13
4 13 34 35 14
4 14 35 36 15
4 15 36 37 16
4 16 37 38 17
4 17 38 39 18
4 18 39 40 19
4 19 40 41 20
1 42
1 43
1 44
1 45
1 46
1 47
1 48
1 49
1 50
1 51
1 52
1 53
1 54
1 55
1 56
1 57
1 58
1 59
1 60
1 61

CELL_TYPES 40
9
9
9
9
9
9
9
9
9
9
9
9
9
9
9
9
9
9
9
9
1
1
1
1
1
1
1
1
1
1
1
1
1
1
1
1
1
1
1
1

CELL_DATA 40

VECTORS S float
0.0 -0.0 -0.0
2.31258493575616e-18 -9.512832449944935e-17 -5.719445316567582e-17
-1.4821354641044218e-17 7.591198411483921e-16 4.608452011711267e-16
-1.236507543882486e-17 7.58171725890331e-16 4.624755606417282e-16
2.145361144311405e-17 -1.5151645143006966e-15 -9.269627058539245e-16
0.0 -0.0 -0.0
0.0 -0.0 -0.0
-1.5698229811319718e-17 1.514019115130957e-15 9.289474180398543e-16
0.0 -0.0 -0.0
1.291840350547602e-17 -1.5142462053505033e-15 -9.286200327994864e-16
-2.3578700993079468e-17 3.029293707144121e-15 1.8559628671535163e-15
1.0748953850766919e-17 -1.5151945552637971e-15 -9.27099531104458e-16
4.95875536547577e-18 -7.579371538460127e-16 -4.629984738485027e-16
0.0 -0.0 -0.0
0.0 -0.0 -0.0
-3.84584338019521e-18 7.591185891989385e-16 4.610694982779928e-16
0.0 -0.0 -0.0
3.9118588288741895e-18 -7.598969791931366e-16 -4.597849318917058e-16
-2.02543761318296e-18 3.801160490225784e-16 2.2961470593843257e-16
2.04309447101308e-18 -3.8025527924693494e-16 -2.293839023887051e-16
0.0 -0.0 -0.0
2.31258493575616e-18 -9.512832449944935e-17 -5.719445316567582e-17
-1.4821354641044218e-17 7.591198411483921e-16 4.608452011711267e-16
-1.236507543882486e-17 7.58171725890331e-16 4.624755606417282e-16
2.145361144311405e-17 -1.5151645143006966e-15 -9.269627058539245e-16
0.0 -0.0 -0.0
0.0 -0.0 -0.0
-1.5698229811319718e-17 1.514019115130957e-15 9.289474180398543e-16
0.0 -0.0 -0.0
1.291840350547602e-17 -1.5142462053505033e-15 -9.286200327994864e-16
-2.3578700993079468e-17 3.029293707144121e-15 1.8559628671535163e-15
1.0748953850766919e-17 -1.5151945552637971e-15 -9.27099531104458e-16
4.95875536547577e-18 -7.579371538460127e-16 -4.629984738485027e-16
0.0 -0.0 -0.0
0.0 -0.0 -0.0
-3.84584338019521e-18 7.591185891989385e-16 4.610694982779928e-16
0.0 -0.0 -0.0
3.9118588288741895e-18 -7.598969791931366e-16 -4.597849318917058e-16
-2.02543761318296e-18 3.801160490225784e-16 2.2961470593843257e-16
2.04309447101308e-18 -3.8025527924693494e-16 -2.293839023887051e-16

SCALARS Gamma float
LOOKUP_TABLE default
0.11563808275265386
0.0793683197236625
0.49044221987977754
0.6488279510985306
0.7684083112893367
0.8118929311300537
0.826338082351922
0.8388079828691312
0.826618919373282
0.8030123157771948
0.7639377525193847
0.7209336382807732
0.679894845954077
0.6250672218812588
0.5840875452827461
0.5441295989038969
0.432642078192827
0.33618806279046637
0.24117026942534442
0.18299770274699903
0.11563808275265386
0.0793683197236625
0.49044221987977754
0.6488279510985306
0.7684083112893367
0.8118929311300537
0.826338082351922
0.8388079828691312
0.826618919373282
0.8030123157771948
0.7639377525193847
0.7209336382807732
0.679894845954077
0.6250672218812588
0.5840875452827461
0.5441295989038969
0.432642078192827
0.33618806279046637
0.24117026942534442
0.18299770274699903

VECTORS Ftot float
-1.9100493209852039 1.4163035644108457 -2.453109732500499
-1.9144087836874821 1.124983948817012 -1.9485293570505413
-17.788048756388662 6.744950106637128 -11.68259627921269
-30.530853607881856 8.808241240038894 -15.256321353070941
-43.83630096371766 10.405247536618651 -18.02241739875451
-53.89672107967936 11.09314096217285 -19.21388376200699
-62.159913621852425 11.373585309062483 -19.699627619515304
-70.16023625858192 11.597866486890801 -20.088094014695347
-75.78034812983634 11.344972462920975 -19.650068716249063
-79.67097453404247 10.929300861767711 -18.930104383788102
-81.16765206020806 10.326690790870952 -17.886353123842223
-81.32824749186517 9.650114185340056 -16.71448806785022
-80.78829165951915 9.104815072809199 -15.77000229962455
-77.7676017863072 8.278175364706659 -14.338220325637037
-75.61890472806476 7.7259346705602585 -13.381711385368359
-72.9533613481507 7.107068067492454 -12.309802985747357
-59.62569155430928 6.079010834382301 -10.529155624911882
-47.42839119542521 5.086740252281839 -8.810492561857924
-34.6690177083609 3.9924257077329104 -6.915084171237575
-26.73363676410099 3.2036133021357402 -5.548821007102639
-1.9100493209852039 1.4163035644108457 -2.453109732500499
-1.9144087836874821 1.124983948817012 -1.9485293570505413
-17.788048756388662 6.744950106637128 -11.68259627921269
-30.530853607881856 8.808241240038894 -15.256321353070941
-43.83630096371766 10.405247536618651 -18.02241739875451
-53.89672107967936 11.09314096217285 -19.21388376200699
-62.159913621852425 11.373585309062483 -19.699627619515304
-70.16023625858192 11.597866486890801 -20.088094014695347
-75.78034812983634 11.344972462920975 -19.650068716249063
-79.67097453404247 10.929300861767711 -18.930104383788102
-81.16765206020806 10.326690790870952 -17.886353123842223
-81.32824749186517 9.650114185340056 -16.71448806785022
-80.78829165951915 9.104815072809199 -15.77000229962455
-77.7676017863072 8.278175364706659 -14.338220325637037
-75.61890472806476 7.7259346705602585 -13.381711385368359
-72.9533613481507 7.107068067492454 -12.309802985747357
-59.62569155430928 6.079010834382301 -10.529155624911882
-47.42839119542521 5.086740252281839 -8.810492561857924
-34.6690177083609 3.9924257077329104 -6.915084171237575
-26.73363676410099 3.2036133021357402 -5.548821007102639

VECTORS D float
-0.021471845316126482 -0.007690305663326588 0.012007661530920193
0.25187467553809434 0.14706247795888436 -0.2344165352150645
0.7768354182557158 0.6189578047585926 -0.9945842899729112
0.5798888624496183 0.5757269643660241 -0.9283291339523558
0.45143152413586257 0.5318553667348485 -0.85889490146382
0.4230691150734921 0.573277905079849 -0.9269008792913315
0.43659590220574734 0.6692430955263283 -1.083214716901529
0.4498041052432885 0.767987002835831 -1.2440810446408004
0.40221262344498737 0.7572868715146516 -1.2280797918208364
0.3759867374483683 0.7746410853513835 -1.2579312682855883
0.3703319288673405 0.829686960355301 -1.3495062786068777
0.35805219776509706 0.8674734178776514 -1.4135939767902765
0.3878886151570266 1.0108398783748611 -1.6506094486780925
0.36228195254181833 1.0098821442848094 -1.6526608304505825
0.36907354465051945 1.0939156677396176 -1.7941969436677674
0.3396100278389127 1.0635195010150182 -1.7481775290472297
0.42235915598249146 1.388408961278216 -2.28692618719539
0.44467426086874445 1.5270533764490624 -2.5200124330517912
0.41884834939922044 1.4905901876520427 -2.463905346692915
0.36439721186910445 1.3355251347553976 -2.2106868871277046
-0.021471845316126482 -0.007690305663326588 0.012007661530920193
0.25187467553809434 0.14706247795888436 -0.2344165352150645
0.7768354182557158 0.6189578047585926 -0.9945842899729112
0.5798888624496183 0.5757269643660241 -0.9283291339523558
0.45143152413586257 0.5318553667348485 -0.85889490146382
0.4230691150734921 0.573277905079849 -0.9269008792913315
0.43659590220574734 0.6692430955263283 -1.083214716901529
0.4498041052432885 0.767987002835831 -1.2440810446408004
0.40221262344498737 0.7572868715146516 -1.2280797918208364
0.3759867374483683 0.7746410853513835 -1.2579312682855883
0.3703319288673405 0.829686960355301 -1.3495062786068777
0.35805219776509706 0.8674734178776514 -1.4135939767902765
0.3878886151570266 1.0108398783748611 -1.6506094486780925
0.36228195254181833 1.0098821442848094 -1.6526608304505825
0.36907354465051945 1.0939156677396176 -1.7941969436677674
0.3396100278389127 1.0635195010150182 -1.7481775290472297
0.42235915598249146 1.388408961278216 -2.28692618719539
0.44467426086874445 1.5270533764490624 -2.5200124330517912
0.41884834939922044 1.4905901876520427 -2.463905346692915
0.36439721186910445 1.3355251347553976 -2.2106868871277046

VECTORS L float
-1.8885774756690776 1.423993870074172 -2.465117394031419
-2.1662834592255766 0.9779214708581279 -1.7141128218354769
-18.564884174644384 6.125992301878537 -10.688011989239783
-31.11074247033147 8.232514275672868 -14.327992219118586
-44.287732487853525 9.873392169883806 -17.163522497290693
-54.31979019475287 10.519863057093001 -18.286982882715662
-62.59650952405818 10.704342213536155 -18.616412902613774
-70.6100403638252 10.829879484054969 -18.84401297005455
-76.18256075328132 10.587685591406322 -18.421988924428224
-80.04696127149084 10.15465977641633 -17.672173115502517
-81.53798398907541 9.497003830515654 -16.536846845235353
-81.68629968963029 8.782640767462409 -15.300894091059943
-81.17618027467617 8.09397519443434 -14.119392850946458
-78.12988373884903 7.26829322042185 -12.685559495186459
-75.98797827271528 6.632019002820639 -11.587514441700591
-73.29297137598961 6.043548566477435 -10.56162545670013
-60.04805071029177 4.690601873104085 -8.242229437716492
-47.873065456293965 3.559686875832777 -6.290480128806133
-35.08786605776012 2.501835520080868 -4.45117882454466
-27.098033975970093 1.868088167380344 -3.3381341199749346
-1.8885774756690776 1.423993870074172 -2.465117394031419
-2.1662834592255766 0.9779214708581279 -1.7141128218354769
-18.564884174644384 6.125992301878537 -10.688011989239783
-31.11074247033147 8.232514275672868 -14.327992219118586
-44.287732487853525 9.873392169883806 -17.163522497290693
-54.31979019475287 10.519863057093001 -18.286982882715662
-62.59650952405818 10.704342213536155 -18.616412902613774
-70.6100403638252 10.829879484054969 -18.84401297005455
-76.18256075328132 10.587685591406322 -18.421988924428224
-80.04696127149084 10.15465977641633 -17.672173115502517
-81.53798398907541 9.497003830515654 -16.536846845235353
-81.68629968963029 8.782640767462409 -15.300894091059943
-81.17618027467617 8.09397519443434 -14.119392850946458
-78.12988373884903 7.26829322042185 -12.685559495186459
-75.98797827271528 6.632019002820639 -11.587514441700591
-73.29297137598961 6.043548566477435 -10.56162545670013
-60.04805071029177 4.690601873104085 -8.242229437716492
-47.873065456293965 3.559686875832777 -6.290480128806133
-35.08786605776012 2.501835520080868 -4.45117882454466
-27.098033975970093 1.868088167380344 -3.3381341199749346

SCALARS mu float
LOOKUP_TABLE default
-0.04877281049732106
0.5365304289654557
1.3159486423958469
0.8624207160454183
0.6562906803247718
0.630922311129174
0.6862226992824498
0.7561986602907793
0.736865995786062
0.7648351049573788
0.8497893222026247
0.9362568130294585
1.1584641218213492
1.2315836743282411
1.4239619723832595
1.4904522045262611
2.1292021976049047
2.6249158446369147
2.9620888784860915
3.1776463967547315
-0.04877281049732106
0.5365304289654557
1.3159486423958469
0.8624207160454183
0.6562906803247718
0.630922311129174
0.6862226992824498
0.7561986602907793
0.736865995786062
0.7648351049573788
0.8497893222026247
0.9362568130294585
1.1584641218213492
1.2315836743282411
1.4239619723832595
1.4904522045262611
2.1292021976049047
2.6249158446369147
2.9620888784860915
3.1776463967547315