# vtk DataFile Version 4.0
[MyVLM domain - lattices] 
ASCII
DATASET UNSTRUCTURED_GRID
POINTS 62 float
0.00022673658128986117 -0.003469038713946479 0.013056448694020877
-0.003724999406033424 -0.011636074571895215 0.018488644307483055
-0.00549739299719125 -0.01921719172254516 0.024111347557758497
-0.005451904080891177 -0.026227520764509845 0.02989835147929965
-0.004354059046121628 -0.03309946725556271 0.03510070767656773
-0.0029556321221654493 -0.04007176398815128 0.03930491882361086
-0.0016722727371407085 -0.0470009225978406 0.04275951405792534
-0.0006485493516483927 -0.05364826332993002 0.04587789884139071
0.0001374053121431227 -0.0599740930324174 0.04872882372998733
0.0007511984436382017 -0.0659944238563227 0.05128455486461007
0.0012455433643025467 -0.07168936105676499 0.05357955095419638
0.0016598526811940704 -0.07701830955999285 0.055684124729020734
0.002022453218220871 -0.08193545690797428 0.05767762569401409
0.002352563731918074 -0.08641324994705138 0.059607777311220786
0.002662053738196183 -0.09047858559508633 0.061427992752336485
0.002957000443680671 -0.09419026402112979 0.06303642713707175
0.0032390594424296184 -0.09760515617619875 0.06433457708879042
0.0035066635059833096 -0.10075872932597693 0.06526101150132282
0.0037560624618667195 -0.10365702545417843 0.06580526535189754
0.003982215822832984 -0.1062770258913636 0.06600720814550678
0.004179548496302947 -0.10857268599773341 0.06594659153769852
0.008285994416043337 -0.011116252229035277 -0.0001889136504402535
0.007508437091591354 -0.018717642875315754 0.006223008208689398
0.00973309288421085 -0.026485220659523426 0.011522752168031381
0.010440442308044806 -0.03614530575743617 0.012720243973007165
0.01004693542569484 -0.04439547023880744 0.015535456587138332
0.0094954698488839 -0.051684210912317584 0.01919157075075799
0.009038213335578684 -0.05839880446793253 0.023017803560258017
0.008539133039147835 -0.0646000616530471 0.026908827711504383
0.008012046218423283 -0.07031183933559848 0.03082332189712044
0.007469873605570215 -0.07558063947089046 0.03468074236786868
0.0069256484677951155 -0.08044450179304699 0.03841520237154002
0.0064559301991455546 -0.08492282993562474 0.04199309382896292
0.006108090109537901 -0.08903383807758113 0.045382868856764916
0.005835591307912621 -0.09280484009851736 0.048537218427724904
0.005646315885461864 -0.09625605026598281 0.05142113040340959
0.005556570152728891 -0.09940554260880861 0.054003299647585996
0.005484703593381549 -0.10227715039922057 0.05624244572184838
0.005393245002100456 -0.10487942958544771 0.05812374928915717
0.005297730961761147 -0.10720538049420136 0.059659334139284766
0.00521698140800628 -0.10924016339765102 0.060874903434804006
0.005155604557614359 -0.11096500871284687 0.06180296704702092
0.005485628962270063 -0.013075849824861846 0.006205922084531421
0.005312774690522743 -0.020807732112369737 0.011979659124425487
0.006196413562335568 -0.029167036467241718 0.015842335932521722
0.006457021259275767 -0.03761866450110043 0.018720770104537987
0.006414690581931144 -0.045176284337136136 0.022323338564233446
0.006371643086760199 -0.05216521659084277 0.026086569476823026
0.006301402129423808 -0.05870572303633869 0.029802163339325408
0.00614279921665101 -0.0647947574160355 0.03347539642465656
0.005916795403470228 -0.07045574416352586 0.037065696423695595
0.005647913503504593 -0.0757199010881125 0.040518992504629064
0.005381266505789829 -0.08060120822534664 0.043811070535590746
0.005171795853183163 -0.0851029713134481 0.0469362048100273
0.005025757650311314 -0.08923309267291514 0.04988070810733805
0.004932542381279714 -0.09300931332945477 0.05261385206962009
0.00490346403705614 -0.0964567035300738 0.05509221375529938
0.004914985140555201 -0.09960543740267701 0.05726353004177067
0.0049224460918573685 -0.10247920318202257 0.059086771702891235
0.004916956732429355 -0.10508377312738784 0.06055194089231827
0.004910301924250248 -0.1074088353776374 0.06167689827745884
0.004909940276999731 -0.10943315352757384 0.06249842639108502

CELLS 40 140
4 0 21 22 1
4 1 22 23 2
4 2 23 24 3
4 3 24 25 4
4 4 25 26 5
4 5 26 27 6
4 6 27 28 7
4 7 28 29 8
4 8 29 30 9
4 9 30 31 10
4 10 31 32 11
4 11 32 33 12
4 12 33 34 13
4 13 34 35 14
4 14 35 36 15
4 15 36 37 16
4 16 37 38 17
4 17 38 39 18
4 18 39 40 19
4 19 40 41 20
1 42
1 43
1 44
1 45
1 46
1 47
1 48
1 49
1 50
1 51
1 52
1 53
1 54
1 55
1 56
1 57
1 58
1 59
1 60
1 61

CELL_TYPES 40
9
9
9
9
9
9
9
9
9
9
9
9
9
9
9
9
9
9
9
9
1
1
1
1
1
1
1
1
1
1
1
1
1
1
1
1
1
1
1
1

CELL_DATA 40

VECTORS S float
0.0 -0.0 0.0
0.0 -0.0 0.0
0.0 -0.0 0.0
1.225393807657382e-17 -8.415488245861305e-16 2.837363601308958e-16
-1.076037341351381e-17 8.420267458539278e-16 -2.8237577596468566e-16
0.0 -0.0 0.0
1.728735477767684e-17 -1.6846807628506856e-15 5.630235301740681e-16
-7.85195081337986e-18 8.423870291423888e-16 -2.8139535394546957e-16
7.092242291507779e-18 -8.423738733778485e-16 2.8145490361813e-16
6.4274362846334695e-18 -8.422976472200172e-16 2.816988938058545e-16
1.169982018565026e-17 -1.6843322690055932e-15 5.642087757897257e-16
-5.31934526724091e-18 8.419896246112025e-16 -2.8264125996397974e-16
-4.8935841932617e-18 8.417719485216806e-16 -2.8329656675782084e-16
0.0 -0.0 0.0
-4.20987610336881e-18 8.414122883478045e-16 -2.843739495479799e-16
0.0 -0.0 0.0
1.93857896326433e-18 -4.204537231293038e-16 1.4293402297410822e-16
0.0 -0.0 0.0
2.03240772873432e-18 -4.2023003867916884e-16 1.435890323659206e-16
2.0505372591639e-18 -4.2014196486800207e-16 1.4384627544380934e-16
0.0 -0.0 0.0
0.0 -0.0 0.0
0.0 -0.0 0.0
1.225393807657382e-17 -8.415488245861305e-16 2.837363601308958e-16
-1.076037341351381e-17 8.420267458539278e-16 -2.8237577596468566e-16
0.0 -0.0 0.0
1.728735477767684e-17 -1.6846807628506856e-15 5.630235301740681e-16
-7.85195081337986e-18 8.423870291423888e-16 -2.8139535394546957e-16
7.092242291507779e-18 -8.423738733778485e-16 2.8145490361813e-16
6.4274362846334695e-18 -8.422976472200172e-16 2.816988938058545e-16
1.169982018565026e-17 -1.6843322690055932e-15 5.642087757897257e-16
-5.31934526724091e-18 8.419896246112025e-16 -2.8264125996397974e-16
-4.8935841932617e-18 8.417719485216806e-16 -2.8329656675782084e-16
0.0 -0.0 0.0
-4.20987610336881e-18 8.414122883478045e-16 -2.843739495479799e-16
0.0 -0.0 0.0
1.93857896326433e-18 -4.204537231293038e-16 1.4293402297410822e-16
0.0 -0.0 0.0
2.03240772873432e-18 -4.2023003867916884e-16 1.435890323659206e-16
2.0505372591639e-18 -4.2014196486800207e-16 1.4384627544380934e-16

SCALARS Gamma float
LOOKUP_TABLE default
0.11484774962890229
0.07908665293244156
0.4875173339404513
0.6463766356299105
0.7667203345075649
0.8122683528214905
0.8232777296114335
0.8354858759323522
0.8231514880471849
0.8000055666632705
0.7614573746501235
0.7191849778846311
0.6787773858794027
0.6226284957986691
0.5820699298386792
0.5424399823546457
0.43143246796693585
0.3345764177212849
0.23969316812630098
0.1818443178138995
0.11484774962890229
0.07908665293244156
0.4875173339404513
0.6463766356299105
0.7667203345075649
0.8122683528214905
0.8232777296114335
0.8354858759323522
0.8231514880471849
0.8000055666632705
0.7614573746501235
0.7191849778846311
0.6787773858794027
0.6226284957986691
0.5820699298386792
0.5424399823546457
0.43143246796693585
0.3345764177212849
0.23969316812630098
0.1818443178138995

VECTORS Ftot float
-1.9021762871415864 -0.9656744732615513 -2.653168809829834
-1.9084202158079215 -0.7682724806532639 -2.110811292583219
-17.681126336991422 -4.59436688131707 -12.62291926310873
-30.404457079844434 -6.0102733717133345 -16.51309037353169
-43.72253007083782 -7.106199457083966 -19.524122546478782
-53.93158263702946 -7.59185086125542 -20.858438813166273
-61.93138540403271 -7.770218236265618 -21.348499148374184
-69.87382450204363 -7.92157983894508 -21.764361733908466
-75.44580369328412 -7.745477768300924 -21.28052527129445
-79.34871486965606 -7.463219818362529 -20.50502792737716
-80.87531193086997 -7.051846407283294 -19.374788769472943
-81.0984654875045 -6.592242887887378 -18.112038478030794
-80.62109192595875 -6.220745884831293 -17.091358850739145
-77.40927108980844 -5.650015800575144 -15.52329083164195
-75.30883428767773 -5.275109690157564 -14.49324475885409
-72.68328472654638 -4.853679564446121 -13.335375004583987
-59.42499583499686 -4.15199303848588 -11.407507118972676
-47.16905558058713 -3.4708558512318524 -9.536098077441412
-34.43247498404131 -2.720616607739781 -7.47483269675824
-26.545691062022502 -2.183643489642423 -5.999511179931616
-1.9021762871415864 -0.9656744732615513 -2.653168809829834
-1.9084202158079215 -0.7682724806532639 -2.110811292583219
-17.681126336991422 -4.59436688131707 -12.62291926310873
-30.404457079844434 -6.0102733717133345 -16.51309037353169
-43.72253007083782 -7.106199457083966 -19.524122546478782
-53.93158263702946 -7.59185086125542 -20.858438813166273
-61.93138540403271 -7.770218236265618 -21.348499148374184
-69.87382450204363 -7.92157983894508 -21.764361733908466
-75.44580369328412 -7.745477768300924 -21.28052527129445
-79.34871486965606 -7.463219818362529 -20.50502792737716
-80.87531193086997 -7.051846407283294 -19.374788769472943
-81.0984654875045 -6.592242887887378 -18.112038478030794
-80.62109192595875 -6.220745884831293 -17.091358850739145
-77.40927108980844 -5.650015800575144 -15.52329083164195
-75.30883428767773 -5.275109690157564 -14.49324475885409
-72.68328472654638 -4.853679564446121 -13.335375004583987
-59.42499583499686 -4.15199303848588 -11.407507118972676
-47.16905558058713 -3.4708558512318524 -9.536098077441412
-34.43247498404131 -2.720616607739781 -7.47483269675824
-26.545691062022502 -2.183643489642423 -5.999511179931616

VECTORS D float
-0.02184349323560611 0.004357560351821107 0.013815627500096055
0.252386373417654 -0.08559396421401533 -0.2636000514525893
0.7666251562599462 -0.3589561686922839 -1.094914883176956
0.5775807993111033 -0.3393873237049779 -1.0315514111667154
0.4510437444787227 -0.315425398955545 -0.9577663680062201
0.42322264318611985 -0.34171503237283074 -1.0355027050019865
0.4383555460251674 -0.40028302176113556 -1.2111875929746625
0.45158960157526284 -0.4601878215566953 -1.3902223533650258
0.4033367541243142 -0.45439184865954324 -1.370124942272067
0.3771728402300473 -0.46646629267334033 -1.40336978212463
0.3708530224658893 -0.5006683546984578 -1.5023353339023722
0.35855329354841137 -0.5257882888477527 -1.573073771230849
0.3879323208163071 -0.6148982966217171 -1.8337762533042963
0.36271772467205093 -0.6161066413717421 -1.8341429400751021
0.36965691614320123 -0.6708687705999998 -1.9904546044708589
0.3399565115562481 -0.654861866434621 -1.9366225197617768
0.4223281572532502 -0.8575887389193939 -2.528404974224603
0.44434790123599166 -0.9445704572916765 -2.777162231893596
0.4182116145024677 -0.9242846105484096 -2.7109461478011005
0.3642592157375179 -0.8314078266473731 -2.4335440310018215
-0.02184349323560611 0.004357560351821107 0.013815627500096055
0.252386373417654 -0.08559396421401533 -0.2636000514525893
0.7666251562599462 -0.3589561686922839 -1.094914883176956
0.5775807993111033 -0.3393873237049779 -1.0315514111667154
0.4510437444787227 -0.315425398955545 -0.9577663680062201
0.42322264318611985 -0.34171503237283074 -1.0355027050019865
0.4383555460251674 -0.40028302176113556 -1.2111875929746625
0.45158960157526284 -0.4601878215566953 -1.3902223533650258
0.4033367541243142 -0.45439184865954324 -1.370124942272067
0.3771728402300473 -0.46646629267334033 -1.40336978212463
0.3708530224658893 -0.5006683546984578 -1.5023353339023722
0.35855329354841137 -0.5257882888477527 -1.573073771230849
0.3879323208163071 -0.6148982966217171 -1.8337762533042963
0.36271772467205093 -0.6161066413717421 -1.8341429400751021
0.36965691614320123 -0.6708687705999998 -1.9904546044708589
0.3399565115562481 -0.654861866434621 -1.9366225197617768
0.4223281572532502 -0.8575887389193939 -2.528404974224603
0.44434790123599166 -0.9445704572916765 -2.777162231893596
0.4182116145024677 -0.9242846105484096 -2.7109461478011005
0.3642592157375179 -0.8314078266473731 -2.4335440310018215

VECTORS L float
-1.8803327939059808 -0.9700320336133726 -2.6669844373299303
-2.1608065892255763 -0.6826785164392487 -1.8472112411306305
-18.447751493251367 -4.235410712624786 -11.528004379931778
-30.982037879155538 -5.670886048008356 -15.481538962364978
-44.17357381531654 -6.790774058128424 -18.566356178472564
-54.35480528021558 -7.2501358288825895 -19.82293610816429
-62.36974095005787 -7.36993521450448 -20.137311555399524
-70.3254141036189 -7.461392017388386 -20.374139380543443
-75.84914044740844 -7.2910859196413815 -19.910400329022384
-79.72588770988611 -6.996753525689188 -19.10165814525253
-81.24616495333586 -6.551178052584834 -17.872453435570574
-81.45701878105291 -6.0664545990396235 -16.53896470679994
-81.00902424677504 -5.605847588209575 -15.25758259743484
-77.7719888144805 -5.033909159203403 -13.689147891566845
-75.67849120382093 -4.604240919557564 -12.502790154383232
-73.02324123810263 -4.198817698011499 -11.398752484822207
-59.847323992250125 -3.2944042995664864 -8.879102144748073
-47.61340348182312 -2.5262853939401766 -6.758935845547818
-34.85068659854378 -1.7963319971913712 -4.7638865489571405
-26.909950277760025 -1.35223566299505 -3.565967148929795
-1.8803327939059808 -0.9700320336133726 -2.6669844373299303
-2.1608065892255763 -0.6826785164392487 -1.8472112411306305
-18.447751493251367 -4.235410712624786 -11.528004379931778
-30.982037879155538 -5.670886048008356 -15.481538962364978
-44.17357381531654 -6.790774058128424 -18.566356178472564
-54.35480528021558 -7.2501358288825895 -19.82293610816429
-62.36974095005787 -7.36993521450448 -20.137311555399524
-70.3254141036189 -7.461392017388386 -20.374139380543443
-75.84914044740844 -7.2910859196413815 -19.910400329022384
-79.72588770988611 -6.996753525689188 -19.10165814525253
-81.24616495333586 -6.551178052584834 -17.872453435570574
-81.45701878105291 -6.0664545990396235 -16.53896470679994
-81.00902424677504 -5.605847588209575 -15.25758259743484
-77.7719888144805 -5.033909159203403 -13.689147891566845
-75.67849120382093 -4.604240919557564 -12.502790154383232
-73.02324123810263 -4.198817698011499 -11.398752484822207
-59.847323992250125 -3.2944042995664864 -8.879102144748073
-47.61340348182312 -2.5262853939401766 -6.758935845547818
-34.85068659854378 -1.7963319971913712 -4.7638865489571405
-26.909950277760025 -1.35223566299505 -3.565967148929795

SCALARS mu float
LOOKUP_TABLE default
-0.04942961802688819
0.5367963334437768
1.2948161101528386
0.8576598972889607
0.6553313088823048
0.6311374172467324
0.6874279498404189
0.757479250780683
0.7373610088915468
0.7658379613142747
0.8497507695656269
0.9366513573236214
1.1580897353529138
1.2311965243739322
1.4242317588640485
1.4899155802182493
2.1259890138292534
2.614828976381763
2.948006173787815
3.165981543527849
-0.04942961802688819
0.5367963334437768
1.2948161101528386
0.8576598972889607
0.6553313088823048
0.6311374172467324
0.6874279498404189
0.757479250780683
0.7373610088915468
0.7658379613142747
0.8497507695656269
0.9366513573236214
1.1580897353529138
1.2311965243739322
1.4242317588640485
1.4899155802182493
2.1259890138292534
2.614828976381763
2.948006173787815
3.165981543527849