# vtk DataFile Version 4.0
[MyVLM domain - lattices] 
ASCII
DATASET UNSTRUCTURED_GRID
POINTS 62 float
0.00022673658128986117 -0.013056448694020987 -0.003469038713946534
-0.003724999406033424 -0.018488644307483242 -0.011636074571895354
-0.00549739299719125 -0.024111347557758768 -0.019217191722545376
-0.005451904080891177 -0.029898351479299992 -0.02622752076451012
-0.004354059046121628 -0.035100707676568144 -0.033099467255563064
-0.0029556321221654493 -0.03930491882361134 -0.04007176398815171
-0.0016722727371407085 -0.04275951405792587 -0.04700092259784108
-0.0006485493516483927 -0.045877898841391304 -0.053648263329930584
0.0001374053121431227 -0.048728823729987984 -0.05997409303241802
0.0007511984436382017 -0.05128455486461076 -0.06599442385632338
0.0012455433643025467 -0.05357955095419712 -0.07168936105676572
0.0016598526811940704 -0.05568412472902152 -0.07701830955999363
0.002022453218220871 -0.05767762569401492 -0.08193545690797513
0.002352563731918074 -0.05960777731122165 -0.08641324994705225
0.002662053738196183 -0.061427992752337374 -0.09047858559508723
0.002957000443680671 -0.06303642713707268 -0.09419026402113073
0.0032390594424296184 -0.06433457708879138 -0.09760515617619973
0.0035066635059833096 -0.0652610115013238 -0.10075872932597794
0.0037560624618667195 -0.06580526535189853 -0.10365702545417947
0.003982215822832984 -0.0660072081455078 -0.10627702589136463
0.004179548496302947 -0.06594659153769955 -0.1085726859977345
0.008285994416043337 0.00018891365044019625 -0.011116252229035374
0.007508437091591354 -0.0062230082086895365 -0.01871764287531593
0.00973309288421085 -0.011522752168031596 -0.02648522065952368
0.010440442308044806 -0.012720243973007441 -0.03614530575743651
0.01004693542569484 -0.015535456587138669 -0.04439547023880786
0.0094954698488839 -0.019191570750758388 -0.05168421091231806
0.009038213335578684 -0.023017803560258482 -0.05839880446793308
0.008539133039147835 -0.0269088277115049 -0.06460006165304771
0.008012046218423283 -0.03082332189712102 -0.07031183933559916
0.007469873605570215 -0.03468074236786931 -0.07558063947089119
0.0069256484677951155 -0.03841520237154071 -0.08044450179304777
0.0064559301991455546 -0.04199309382896365 -0.08492282993562557
0.006108090109537901 -0.045382868856765686 -0.089033838077582
0.005835591307912621 -0.04853721842772572 -0.09280484009851826
0.005646315885461864 -0.05142113040341045 -0.09625605026598376
0.005556570152728891 -0.05400329964758689 -0.09940554260880959
0.005484703593381549 -0.056242445721849305 -0.10227715039922158
0.005393245002100456 -0.05812374928915812 -0.10487942958544876
0.005297730961761147 -0.05965933413928574 -0.10720538049420239
0.00521698140800628 -0.060874903434805 -0.1092401633976521
0.005155604557614359 -0.06180296704702192 -0.11096500871284795
0.005485628962270063 -0.006205922084531532 -0.013075849824861973
0.005312774690522743 -0.011979659124425678 -0.020807732112369942
0.006196413562335568 -0.015842335932521982 -0.029167036467242013
0.006457021259275767 -0.01872077010453831 -0.03761866450110079
0.006414690581931144 -0.022323338564233835 -0.04517628433713657
0.006371643086760199 -0.026086569476823477 -0.05216521659084328
0.006301402129423808 -0.02980216333932592 -0.058705723036339266
0.00614279921665101 -0.03347539642465713 -0.06479475741603614
0.005916795403470228 -0.03706569642369622 -0.07045574416352655
0.005647913503504593 -0.04051899250462974 -0.07571990108811325
0.005381266505789829 -0.04381107053559147 -0.08060120822534743
0.005171795853183163 -0.04693620481002806 -0.08510297131344893
0.005025757650311314 -0.04988070810733885 -0.08923309267291603
0.004932542381279714 -0.05261385206962094 -0.09300931332945568
0.00490346403705614 -0.05509221375530026 -0.09645670353007474
0.004914985140555201 -0.057263530041771565 -0.099605437402678
0.0049224460918573685 -0.059086771702892185 -0.10247920318202358
0.004916956732429355 -0.06055194089231923 -0.10508377312738885
0.004910301924250248 -0.06167689827745982 -0.10740883537763847
0.004909940276999731 -0.062498426391086014 -0.10943315352757492

CELLS 40 140
4 0 21 22 1
4 1 22 23 2
4 2 23 24 3
4 3 24 25 4
4 4 25 26 5
4 5 26 27 6
4 6 27 28 7
4 7 28 29 8
4 8 29 30 9
4 9 30 31 10
4 10 31 32 11
4 11 32 33 12
4 12 33 34 13
4 13 34 35 14
4 14 35 36 15
4 15 36 37 16
4 16 37 38 17
4 17 38 39 18
4 18 39 40 19
4 19 40 41 20
1 42
1 43
1 44
1 45
1 46
1 47
1 48
1 49
1 50
1 51
1 52
1 53
1 54
1 55
1 56
1 57
1 58
1 59
1 60
1 61

CELL_TYPES 40
9
9
9
9
9
9
9
9
9
9
9
9
9
9
9
9
9
9
9
9
1
1
1
1
1
1
1
1
1
1
1
1
1
1
1
1
1
1
1
1

CELL_DATA 40

VECTORS S float
0.0 -0.0 -0.0
0.0 -0.0 -0.0
1.486093448378682e-17 -2.8526396992472674e-16 -8.409902052402662e-16
1.244934991594285e-17 -2.8339401554526236e-16 -8.416613041246543e-16
1.083417221752929e-17 -2.821982611439926e-16 -8.420853088260593e-16
-2.900279565072494e-17 8.446323899744528e-16 2.526955304440423e-15
0.0 -0.0 -0.0
0.0 -0.0 -0.0
-7.193139668186899e-18 2.8109412655991943e-16 8.42493475331555e-16
-6.53906427076067e-18 2.8127905987329403e-16 8.424370815296953e-16
0.0 -0.0 -0.0
0.0 -0.0 -0.0
0.0 -0.0 -0.0
-4.54189648674258e-18 2.836331371657254e-16 8.416605728551413e-16
0.0 -0.0 -0.0
0.0 -0.0 -0.0
0.0 -0.0 -0.0
0.0 -0.0 -0.0
2.03718854379165e-18 -1.4355135509274641e-16 -4.202428876484719e-16
-1.0285706108548199e-18 7.189897017543942e-17 2.1007923911353784e-16
0.0 -0.0 -0.0
0.0 -0.0 -0.0
1.486093448378682e-17 -2.8526396992472674e-16 -8.409902052402662e-16
1.244934991594285e-17 -2.8339401554526236e-16 -8.416613041246543e-16
1.083417221752929e-17 -2.821982611439926e-16 -8.420853088260593e-16
-2.900279565072494e-17 8.446323899744528e-16 2.526955304440423e-15
0.0 -0.0 -0.0
0.0 -0.0 -0.0
-7.193139668186899e-18 2.8109412655991943e-16 8.42493475331555e-16
-6.53906427076067e-18 2.8127905987329403e-16 8.424370815296953e-16
0.0 -0.0 -0.0
0.0 -0.0 -0.0
0.0 -0.0 -0.0
-4.54189648674258e-18 2.836331371657254e-16 8.416605728551413e-16
0.0 -0.0 -0.0
0.0 -0.0 -0.0
0.0 -0.0 -0.0
0.0 -0.0 -0.0
2.03718854379165e-18 -1.4355135509274641e-16 -4.202428876484719e-16
-1.0285706108548199e-18 7.189897017543942e-17 2.1007923911353784e-16

SCALARS Gamma float
LOOKUP_TABLE default
0.11787361467196532
0.08071727713585938
0.4886633627106612
0.6477806516240879
0.7687527217818284
0.8140786521728304
0.8253273264950484
0.8380213806300859
0.8256355789647299
0.8019383699899616
0.7620964181851142
0.7201309846939133
0.6796146973911159
0.6250947659170493
0.5843202929104798
0.5444970086555863
0.43225132660308485
0.33544939193943524
0.24067479129624758
0.1826942361207452
0.11787361467196532
0.08071727713585938
0.4886633627106612
0.6477806516240879
0.7687527217818284
0.8140786521728304
0.8253273264950484
0.8380213806300859
0.8256355789647299
0.8019383699899616
0.7620964181851142
0.7201309846939133
0.6796146973911159
0.6250947659170493
0.5843202929104798
0.5444970086555863
0.43225132660308485
0.33544939193943524
0.24067479129624758
0.1826942361207452

VECTORS Ftot float
-1.9516483744756166 2.7152422173147794 -0.9882673459255509
-1.9530157926640592 2.1459379018615827 -0.7810575208612893
-17.721242634325993 12.642156554333187 -4.601368682710692
-30.472689329356104 16.533209143172805 -6.017596005012773
-43.84522610963092 19.55186401710444 -7.116296526646492
-54.03219313680182 20.865494053388588 -7.5944187586919565
-62.062693019342134 21.35401845570674 -7.772227099848451
-70.08371056204066 21.784608337696053 -7.92894900006876
-75.68119336916517 21.307985868974736 -7.755472608471726
-79.55282429981658 20.526449516077573 -7.471016639020188
-80.94683442472925 19.381790668565838 -7.054394890136461
-81.21940793132704 18.123831084932867 -6.596535045784148
-80.74139773472834 17.104515872975387 -6.225534649296877
-77.7612027657966 15.554448585007592 -5.661356295366859
-75.64215516632646 14.518515546656674 -5.284307504714174
-72.99801504368489 13.356588882007856 -4.861400784381792
-59.54198983806805 11.412238256625049 -4.153715031765569
-47.299240888265025 9.545163494481033 -3.4741553931954927
-34.581470230769334 7.490948121462507 -2.726482142644699
-26.677956201811405 6.01280639396383 -2.188482551808352
-1.9516483744756166 2.7152422173147794 -0.9882673459255509
-1.9530157926640592 2.1459379018615827 -0.7810575208612893
-17.721242634325993 12.642156554333187 -4.601368682710692
-30.472689329356104 16.533209143172805 -6.017596005012773
-43.84522610963092 19.55186401710444 -7.116296526646492
-54.03219313680182 20.865494053388588 -7.5944187586919565
-62.062693019342134 21.35401845570674 -7.772227099848451
-70.08371056204066 21.784608337696053 -7.92894900006876
-75.68119336916517 21.307985868974736 -7.755472608471726
-79.55282429981658 20.526449516077573 -7.471016639020188
-80.94683442472925 19.381790668565838 -7.054394890136461
-81.21940793132704 18.123831084932867 -6.596535045784148
-80.74139773472834 17.104515872975387 -6.225534649296877
-77.7612027657966 15.554448585007592 -5.661356295366859
-75.64215516632646 14.518515546656674 -5.284307504714174
-72.99801504368489 13.356588882007856 -4.861400784381792
-59.54198983806805 11.412238256625049 -4.153715031765569
-47.299240888265025 9.545163494481033 -3.4741553931954927
-34.581470230769334 7.490948121462507 -2.726482142644699
-26.677956201811405 6.01280639396383 -2.188482551808352

VECTORS D float
-0.021276583863623674 -0.013512813187659024 0.0042302975292218235
0.2525012349609209 0.26439243502895127 -0.08543315719386717
0.7705846945216365 1.1023971901268885 -0.36031643215558407
0.5788059848135417 1.035130916815081 -0.3399754123073118
0.45121240511969096 0.959526060397638 -0.3157495684534362
0.4228825867825122 1.0363966384571968 -0.3415610046351877
0.43669750737457463 1.208753561153219 -0.3991075061778326
0.4500469206718746 1.3882472213196697 -0.4589432496026645
0.40245848100962006 1.3696615784191113 -0.45354521571039697
0.3763568195111609 1.4025215642007287 -0.46536285521408527
0.37066123756427116 1.502587858826997 -0.49983038669853297
0.3582290918851571 1.5731289850600656 -0.5249166579622982
0.38782712206627235 1.8348327233866475 -0.6142635835401796
0.3621336612862942 1.835453972773097 -0.6165796659056725
0.3688117748811051 1.990609259074291 -0.67101117102123
0.33933709728969735 1.9379996979688494 -0.6554701006331325
0.42200697517818964 2.530742688838504 -0.8582959865977252
0.4443134816657277 2.783395612849346 -0.9465025188596146
0.41843981556980897 2.7200722475267756 -0.9271248312238095
0.36416661180790644 2.4406998899996433 -0.8335389934903762
-0.021276583863623674 -0.013512813187659024 0.0042302975292218235
0.2525012349609209 0.26439243502895127 -0.08543315719386717
0.7705846945216365 1.1023971901268885 -0.36031643215558407
0.5788059848135417 1.035130916815081 -0.3399754123073118
0.45121240511969096 0.959526060397638 -0.3157495684534362
0.4228825867825122 1.0363966384571968 -0.3415610046351877
0.43669750737457463 1.208753561153219 -0.3991075061778326
0.4500469206718746 1.3882472213196697 -0.4589432496026645
0.40245848100962006 1.3696615784191113 -0.45354521571039697
0.3763568195111609 1.4025215642007287 -0.46536285521408527
0.37066123756427116 1.502587858826997 -0.49983038669853297
0.3582290918851571 1.5731289850600656 -0.5249166579622982
0.38782712206627235 1.8348327233866475 -0.6142635835401796
0.3621336612862942 1.835453972773097 -0.6165796659056725
0.3688117748811051 1.990609259074291 -0.67101117102123
0.33933709728969735 1.9379996979688494 -0.6554701006331325
0.42200697517818964 2.530742688838504 -0.8582959865977252
0.4443134816657277 2.783395612849346 -0.9465025188596146
0.41843981556980897 2.7200722475267756 -0.9271248312238095
0.36416661180790644 2.4406998899996433 -0.8335389934903762

VECTORS L float
-1.9303717906119924 2.728755030502439 -0.9924976434547726
-2.2055170276249805 1.881545466832632 -0.6956243636674223
-18.49182732884763 11.5397593642063 -4.241052250555107
-31.051495314169642 15.49807822635772 -5.677620592705458
-44.29643851475062 18.5923379567068 -6.800546958193057
-54.45507572358433 19.82909741493139 -7.2528577540567705
-62.49939052671672 20.145264894553524 -7.373119593670618
-70.53375748271253 20.396361116376383 -7.470005750466095
-76.08365185017479 19.938324290555627 -7.301927392761329
-79.92918111932777 19.123927951876848 -7.005653783806108
-81.31749566229352 17.879202809738842 -6.554564503437928
-81.5776370232122 16.5507020998728 -6.071618387821851
-81.12922485679461 15.269683149588742 -5.611271065756698
-78.12333642708292 13.718994612234498 -5.044776629461188
-76.01096694120756 12.527906287582383 -4.613296333692944
-73.3373521409746 11.418589184039012 -4.205930683748661
-59.96399681324626 8.881495567786548 -3.2954190451678445
-47.743554369930756 6.7617678816316875 -2.5276528743358773
-34.999910046339146 4.770875873935732 -1.7993573114208894
-27.04212281361931 3.572106503964187 -1.3549435583179759
-1.9303717906119924 2.728755030502439 -0.9924976434547726
-2.2055170276249805 1.881545466832632 -0.6956243636674223
-18.49182732884763 11.5397593642063 -4.241052250555107
-31.051495314169642 15.49807822635772 -5.677620592705458
-44.29643851475062 18.5923379567068 -6.800546958193057
-54.45507572358433 19.82909741493139 -7.2528577540567705
-62.49939052671672 20.145264894553524 -7.373119593670618
-70.53375748271253 20.396361116376383 -7.470005750466095
-76.08365185017479 19.938324290555627 -7.301927392761329
-79.92918111932777 19.123927951876848 -7.005653783806108
-81.31749566229352 17.879202809738842 -6.554564503437928
-81.5776370232122 16.5507020998728 -6.071618387821851
-81.12922485679461 15.269683149588742 -5.611271065756698
-78.12333642708292 13.718994612234498 -5.044776629461188
-76.01096694120756 12.527906287582383 -4.613296333692944
-73.3373521409746 11.418589184039012 -4.205930683748661
-59.96399681324626 8.881495567786548 -3.2954190451678445
-47.743554369930756 6.7617678816316875 -2.5276528743358773
-34.999910046339146 4.770875873935732 -1.7993573114208894
-27.04212281361931 3.572106503964187 -1.3549435583179759

SCALARS mu float
LOOKUP_TABLE default
-0.04829962229527325
0.5381223232459323
1.3032456569271584
0.8604384342522641
0.6564013469195477
0.6318486094967827
0.6862696359255409
0.7563687691158606
0.7369543124223796
0.7651488650347062
0.8497159740545639
0.9363819260231242
1.1582925844242136
1.2314001778915582
1.4236132800962356
1.4902501981087968
2.127824798970097
2.6203224776108547
2.957296309562406
3.1744220733399344
-0.04829962229527325
0.5381223232459323
1.3032456569271584
0.8604384342522641
0.6564013469195477
0.6318486094967827
0.6862696359255409
0.7563687691158606
0.7369543124223796
0.7651488650347062
0.8497159740545639
0.9363819260231242
1.1582925844242136
1.2314001778915582
1.4236132800962356
1.4902501981087968
2.127824798970097
2.6203224776108547
2.957296309562406
3.1744220733399344