# vtk DataFile Version 4.0
[MyVLM domain - lattices] 
ASCII
DATASET UNSTRUCTURED_GRID
POINTS 62 float
0.00022673658128986117 -0.013460484151610674 -0.001149107698475484
-0.003724999406033424 -0.020228343401300388 -0.00824877706150409
-0.00549739299719125 -0.02708207233294844 -0.014738347834985701
-0.005451904080891177 -0.033998489524576916 -0.020637271541552146
-0.004354059046121628 -0.0403151112267736 -0.026501438050996168
-0.0029556321221654493 -0.0456661775814491 -0.03263775632534003
-0.0016722727371407085 -0.05027152551705868 -0.03886176127899777
-0.0006485493516483927 -0.05449683363314915 -0.044866612133960225
0.0001374053121431227 -0.05840291536676283 -0.05060128035763459
0.0007511984436382017 -0.061965238679277175 -0.056086350774581024
0.0012455433643025467 -0.06521428408821889 -0.061296247193784806
0.0016598526811940704 -0.06821224685491849 -0.06617878159440253
0.002022453218220871 -0.07102931573717802 -0.07067505861564971
0.002352563731918074 -0.07370770461549762 -0.07474965660596808
0.002662053738196183 -0.07620620502094655 -0.07843715357643884
0.002957000443680671 -0.07843472986801338 -0.08181314156728847
0.0032390594424296184 -0.08030614780469517 -0.0849507324638466
0.0035066635059833096 -0.0817661198274127 -0.0878955221039751
0.0037560624618667195 -0.08280538908006675 -0.09065527791221267
0.003982215822832984 -0.08345922221028185 -0.09320040765754477
0.004179548496302947 -0.08379816369896474 -0.09547171749206085
0.008285994416043337 -0.0017442733144545201 -0.010980175890728512
0.007508437091591354 -0.009378751306494883 -0.017352665786679367
0.00973309288421085 -0.015946805973748257 -0.024081945730051395
0.010440442308044806 -0.018803561360816998 -0.03338733015952841
0.01004693542569484 -0.02300863059723368 -0.04102329956421993
0.0094954698488839 -0.02787487670690592 -0.047566430327333306
0.009038213335578684 -0.032808957377237866 -0.053514595764529604
0.008539133039147835 -0.03771770513798211 -0.058945972665731136
0.008012046218423283 -0.042564569146911695 -0.0638912308291698
0.007469873605570215 -0.047278304275117276 -0.06841015201623656
0.0069256484677951155 -0.05180063026871212 -0.0725516391664727
0.0064559301991455546 -0.056101819036371486 -0.07634063711034444
0.006108090109537901 -0.06015396483694268 -0.07980056154496072
0.005835591307912621 -0.06391522037904869 -0.08296652651708175
0.005646315885461864 -0.06735461560803367 -0.08586451898814679
0.005556570152728891 -0.07044445950519591 -0.0885177744817354
0.005484703593381549 -0.07314823737903554 -0.09095693246201762
0.005393245002100456 -0.07545284075635968 -0.09319299224401495
0.005297730961761147 -0.07736899375882124 -0.0952169552212037
0.00521698140800628 -0.07891943216850403 -0.09700974380722284
0.005155604557614359 -0.08013291265484485 -0.09854722829135401
0.005485628962270063 -0.00838223767696991 -0.0117995512240254
0.005312774690522743 -0.015410885946872283 -0.01841136993083526
0.006196413562335568 -0.02066645798265264 -0.025972930880659655
0.006457021259275767 -0.024968772078187824 -0.03379632484547417
0.006414690581931144 -0.02982897634008019 -0.04061354800637449
0.006371643086760199 -0.03474865066886739 -0.046842824484990817
0.006301402129423808 -0.039543543336983476 -0.05263875983796753
0.00614279921665101 -0.04421832148182417 -0.057997437872037205
0.005916795403470228 -0.04873709678901587 -0.06294897245855434
0.005647913503504593 -0.053052040799873024 -0.06753349643956169
0.005381266505789829 -0.05714173485729853 -0.07176898220232986
0.005171795853183163 -0.06100111427650488 -0.07565967952199597
0.005025757650311314 -0.06461807200008123 -0.07921574742596815
0.004932542381279714 -0.06796542719971141 -0.08245999333726158
0.00490346403705614 -0.07100477002858109 -0.08542464694417173
0.004914985140555201 -0.07368987104067537 -0.08814849935779927
0.0049224460918573685 -0.07598443775478671 -0.09066200358573992
0.004916956732429355 -0.07787962655662778 -0.09297258030148046
0.004910301924250248 -0.07939123613404055 -0.09506697283187962
0.004909940276999731 -0.08055180254741166 -0.09691788018066702

CELLS 40 140
4 0 21 22 1
4 1 22 23 2
4 2 23 24 3
4 3 24 25 4
4 4 25 26 5
4 5 26 27 6
4 6 27 28 7
4 7 28 29 8
4 8 29 30 9
4 9 30 31 10
4 10 31 32 11
4 11 32 33 12
4 12 33 34 13
4 13 34 35 14
4 14 35 36 15
4 15 36 37 16
4 16 37 38 17
4 17 38 39 18
4 18 39 40 19
4 19 40 41 20
1 42
1 43
1 44
1 45
1 46
1 47
1 48
1 49
1 50
1 51
1 52
1 53
1 54
1 55
1 56
1 57
1 58
1 59
1 60
1 61

CELL_TYPES 40
9
9
9
9
9
9
9
9
9
9
9
9
9
9
9
9
9
9
9
9
1
1
1
1
1
1
1
1
1
1
1
1
1
1
1
1
1
1
1
1

CELL_DATA 40

VECTORS S float
0.0 -0.0 -0.0
4.60706580229637e-18 -1.0759080240034359e-16 -1.9418239044737495e-16
-1.478356571856598e-17 4.270751882636975e-16 7.786200196342142e-16
0.0 -0.0 -0.0
0.0 -0.0 -0.0
-1.911085609882413e-17 8.476215750094215e-16 1.5609663870954316e-15
0.0 -0.0 -0.0
1.585949099204747e-17 -8.463897562422516e-16 -1.561671053057494e-15
0.0 -0.0 -0.0
-1.304643271560883e-17 8.467876904104222e-16 1.5614813539862806e-15
1.1903949481125609e-17 -8.474668770367138e-16 -1.5611219712746462e-15
0.0 -0.0 -0.0
-4.92096018444904e-18 4.250801644226641e-16 7.798355872786748e-16
0.0 -0.0 -0.0
-8.30826160643083e-18 8.527983969608859e-16 1.5582392267601496e-15
-3.8126934759342194e-18 4.270663870546777e-16 7.78755847257364e-16
0.0 -0.0 -0.0
-3.88314047216101e-18 4.283649346229237e-16 7.780419713785264e-16
2.0115289948523e-18 -2.144606968354554e-16 -3.8886731614936056e-16
2.03081826109658e-18 -2.1469179639148587e-16 -3.887396746469804e-16
0.0 -0.0 -0.0
4.60706580229637e-18 -1.0759080240034359e-16 -1.9418239044737495e-16
-1.478356571856598e-17 4.270751882636975e-16 7.786200196342142e-16
0.0 -0.0 -0.0
0.0 -0.0 -0.0
-1.911085609882413e-17 8.476215750094215e-16 1.5609663870954316e-15
0.0 -0.0 -0.0
1.585949099204747e-17 -8.463897562422516e-16 -1.561671053057494e-15
0.0 -0.0 -0.0
-1.304643271560883e-17 8.467876904104222e-16 1.5614813539862806e-15
1.1903949481125609e-17 -8.474668770367138e-16 -1.5611219712746462e-15
0.0 -0.0 -0.0
-4.92096018444904e-18 4.250801644226641e-16 7.798355872786748e-16
0.0 -0.0 -0.0
-8.30826160643083e-18 8.527983969608859e-16 1.5582392267601496e-15
-3.8126934759342194e-18 4.270663870546777e-16 7.78755847257364e-16
0.0 -0.0 -0.0
-3.88314047216101e-18 4.283649346229237e-16 7.780419713785264e-16
2.0115289948523e-18 -2.144606968354554e-16 -3.8886731614936056e-16
2.03081826109658e-18 -2.1469179639148587e-16 -3.887396746469804e-16

SCALARS Gamma float
LOOKUP_TABLE default
0.11609735857472944
0.07915255075382806
0.48708293082512394
0.645581804949333
0.7661593150522586
0.8115731277126289
0.8231797313114531
0.8352593249814071
0.8226226849503101
0.7989767162170469
0.7599359216738768
0.7174780711963634
0.6775130025968941
0.6229855072101546
0.5822147464222627
0.5424578393436419
0.4313903983102947
0.3345148591142203
0.23960891743679236
0.18177374989832587
0.11609735857472944
0.07915255075382806
0.48708293082512394
0.645581804949333
0.7661593150522586
0.8115731277126289
0.8231797313114531
0.8352593249814071
0.8226226849503101
0.7989767162170469
0.7599359216738768
0.7174780711963634
0.6775130025968941
0.6229855072101546
0.5822147464222627
0.5424578393436419
0.4313903983102947
0.3345148591142203
0.23960891743679236
0.18177374989832587

VECTORS Ftot float
-1.9233905396122242 2.4699864231102455 -1.4260473262774291
-1.9106888146169458 1.9472980039369443 -1.1242730267654222
-17.669388290072288 11.629633331290519 -6.7143719343972625
-30.371194262076305 15.21204609997436 -8.782678910745243
-43.69657384136396 17.99153298484045 -10.387416411931722
-53.86307962738131 19.203656886180077 -11.08723647266134
-61.90995463336044 19.666598355412106 -11.354515854541495
-69.8477030301458 20.05286039155864 -11.57752434508843
-75.39481136726994 19.60644697126657 -11.319787436712941
-79.24443646907461 18.888760258958996 -10.905430820168343
-80.71049358571072 17.84255479178691 -10.301403812068877
-80.90143259033125 16.680290201229756 -9.630370037841132
-80.44532972137993 15.735207400371504 -9.08472622835913
-77.45652448675936 14.309268400637498 -8.261459963014712
-75.3298066536211 13.358388546705916 -7.7124692233803165
-72.68764123248289 12.290642854512518 -7.0960059605663925
-59.42094133527677 10.513652809748063 -6.070060279874343
-47.162098989838945 8.788691410684805 -5.074153351783453
-34.42198717535937 6.888295885073146 -3.9769594835047943
-26.536985034616656 5.528974292134239 -3.1921547959062413
-1.9233905396122242 2.4699864231102455 -1.4260473262774291
-1.9106888146169458 1.9472980039369443 -1.1242730267654222
-17.669388290072288 11.629633331290519 -6.7143719343972625
-30.371194262076305 15.21204609997436 -8.782678910745243
-43.69657384136396 17.99153298484045 -10.387416411931722
-53.86307962738131 19.203656886180077 -11.08723647266134
-61.90995463336044 19.666598355412106 -11.354515854541495
-69.8477030301458 20.05286039155864 -11.57752434508843
-75.39481136726994 19.60644697126657 -11.319787436712941
-79.24443646907461 18.888760258958996 -10.905430820168343
-80.71049358571072 17.84255479178691 -10.301403812068877
-80.90143259033125 16.680290201229756 -9.630370037841132
-80.44532972137993 15.735207400371504 -9.08472622835913
-77.45652448675936 14.309268400637498 -8.261459963014712
-75.3298066536211 13.358388546705916 -7.7124692233803165
-72.68764123248289 12.290642854512518 -7.0960059605663925
-59.42094133527677 10.513652809748063 -6.070060279874343
-47.162098989838945 8.788691410684805 -5.074153351783453
-34.42198717535937 6.888295885073146 -3.9769594835047943
-26.536985034616656 5.528974292134239 -3.1921547959062413

VECTORS D float
-0.021605741250881737 -0.012745077715654082 0.006594019064049251
0.25251734253264885 0.24507192676922296 -0.12979612196328663
0.7650701869265115 1.0136782591018403 -0.5414789721885872
0.5769873544523028 0.9553729962380336 -0.5122167097270499
0.451156809559378 0.8881888840938288 -0.4769237366398884
0.42287527208141606 0.9594012624563822 -0.5157879806591791
0.4381038054951596 1.122685237495142 -0.6042594640008063
0.4515692337295838 1.289216463780595 -0.6941397474236377
0.40350076156463377 1.270734671986375 -0.6850022031518592
0.37766015245227275 1.3020288761482919 -0.7029318053083832
0.37134605389700126 1.3931007560758237 -0.7534236812534956
0.35941190651170735 1.4595204657189569 -0.7908941926942772
0.3881551116884782 1.6984092344334276 -0.9233356267987453
0.36258872122277575 1.6989962777615757 -0.925827044805863
0.36960045371710165 1.8434012611734933 -1.0068921872075274
0.3399781195981411 1.7933100644767341 -0.9817791037319082
0.422384633995211 2.3407579775855014 -1.2842373503438902
0.44440016068723054 2.570341850787383 -1.412929753228533
0.4182500136573867 2.5084431895096846 -1.3812452989968604
0.36434021829828506 2.2516622155587926 -1.2416368295695581
-0.021605741250881737 -0.012745077715654082 0.006594019064049251
0.25251734253264885 0.24507192676922296 -0.12979612196328663
0.7650701869265115 1.0136782591018403 -0.5414789721885872
0.5769873544523028 0.9553729962380336 -0.5122167097270499
0.451156809559378 0.8881888840938288 -0.4769237366398884
0.42287527208141606 0.9594012624563822 -0.5157879806591791
0.4381038054951596 1.122685237495142 -0.6042594640008063
0.4515692337295838 1.289216463780595 -0.6941397474236377
0.40350076156463377 1.270734671986375 -0.6850022031518592
0.37766015245227275 1.3020288761482919 -0.7029318053083832
0.37134605389700126 1.3931007560758237 -0.7534236812534956
0.35941190651170735 1.4595204657189569 -0.7908941926942772
0.3881551116884782 1.6984092344334276 -0.9233356267987453
0.36258872122277575 1.6989962777615757 -0.925827044805863
0.36960045371710165 1.8434012611734933 -1.0068921872075274
0.3399781195981411 1.7933100644767341 -0.9817791037319082
0.422384633995211 2.3407579775855014 -1.2842373503438902
0.44440016068723054 2.570341850787383 -1.412929753228533
0.4182500136573867 2.5084431895096846 -1.3812452989968604
0.36434021829828506 2.2516622155587926 -1.2416368295695581

VECTORS L float
-1.901784798361342 2.4827315008259 -1.4326413453414781
-2.1632061571495944 1.7022260771677213 -0.9944769048021355
-18.434458476998802 10.61595507218868 -6.172892962208678
-30.948181616528615 14.256673103736325 -8.270462201018194
-44.147730650923336 17.103344100746625 -9.910492675291836
-54.28595489946271 18.244255623723692 -10.57144849200216
-62.3480584388556 18.54391311791697 -10.75025639054069
-70.2992722638754 18.763643927778045 -10.883384597664792
-75.79831212883458 18.3357122992802 -10.634785233561082
-79.62209662152688 17.586731382810704 -10.202499014859962
-81.08183963960772 16.44945403571109 -9.54798013081538
-81.26084449684298 15.220769735510803 -8.839475845146856
-80.83348483306841 14.036798165938075 -8.161390601560385
-77.81911320798214 12.610272122875923 -7.33563291820885
-75.6994071073382 11.514987285532417 -6.705577036172788
-73.02761935208103 10.497332790035786 -6.1142268568344855
-59.84332596927199 8.172894832162562 -4.785822929530453
-47.606499150526176 6.218349559897422 -3.66122359855492
-34.84023718901676 4.379852695563461 -2.5957141845079335
-26.901325252914948 3.2773120765754475 -1.950517966336683
-1.901784798361342 2.4827315008259 -1.4326413453414781
-2.1632061571495944 1.7022260771677213 -0.9944769048021355
-18.434458476998802 10.61595507218868 -6.172892962208678
-30.948181616528615 14.256673103736325 -8.270462201018194
-44.147730650923336 17.103344100746625 -9.910492675291836
-54.28595489946271 18.244255623723692 -10.57144849200216
-62.3480584388556 18.54391311791697 -10.75025639054069
-70.2992722638754 18.763643927778045 -10.883384597664792
-75.79831212883458 18.3357122992802 -10.634785233561082
-79.62209662152688 17.586731382810704 -10.202499014859962
-81.08183963960772 16.44945403571109 -9.54798013081538
-81.26084449684298 15.220769735510803 -8.839475845146856
-80.83348483306841 14.036798165938075 -8.161390601560385
-77.81911320798214 12.610272122875923 -7.33563291820885
-75.6994071073382 11.514987285532417 -6.705577036172788
-73.02761935208103 10.497332790035786 -6.1142268568344855
-59.84332596927199 8.172894832162562 -4.785822929530453
-47.606499150526176 6.218349559897422 -3.66122359855492
-34.84023718901676 4.379852695563461 -2.5957141845079335
-26.901325252914948 3.2773120765754475 -1.950517966336683

SCALARS mu float
LOOKUP_TABLE default
-0.048935497047629624
0.5369818984500614
1.2912144890861472
0.8560249677063018
0.6550810612754092
0.6307202942239203
0.6872357970711418
0.7574579131822922
0.737437458914934
0.7662697222035845
0.8498988458119331
0.9374952339029433
1.1578739259450996
1.2311595081166142
1.4241802743921268
1.4899552972093633
2.1259306559015916
2.6144388856715755
2.9472298815616655
3.1653418308520602
-0.048935497047629624
0.5369818984500614
1.2912144890861472
0.8560249677063018
0.6550810612754092
0.6307202942239203
0.6872357970711418
0.7574579131822922
0.737437458914934
0.7662697222035845
0.8498988458119331
0.9374952339029433
1.1578739259450996
1.2311595081166142
1.4241802743921268
1.4899552972093633
2.1259306559015916
2.6144388856715755
2.9472298815616655
3.1653418308520602