# vtk DataFile Version 4.0
[MyVLM domain - lattices] 
ASCII
DATASET UNSTRUCTURED_GRID
POINTS 62 float
0.00022673658128986117 0.0057350856172413145 0.012231675071770448
-0.003724999406033424 0.002970521215233313 0.021642647792753558
-0.00549739299719125 0.0007772525315652354 0.030822936544953983
-0.005451904080891177 -0.0008731566574933287 0.039762191389358915
-0.004354059046121628 -0.0027933629755954315 0.04816462950427938
-0.0029556321221654493 -0.0054320373095461515 0.05586694804193651
-0.0016722727371407085 -0.008519509744889157 0.06296729882426952
-0.0006485493516483927 -0.011607209073178115 0.06962894841910168
0.0001374053121431227 -0.014620536570348654 0.07587904854150668
0.0007511984436382017 -0.017589585236713605 0.08170664623511087
0.0012455433643025467 -0.020476965182358815 0.0871253503069055
0.0016598526811940704 -0.023206382624795387 0.09216292942277612
0.002022453218220871 -0.025691738306517893 0.0968507211496471
0.002352563731918074 -0.027881249237182836 0.10120757295464478
0.002662053738196183 -0.029825465087264205 0.10521508626236467
0.002957000443680671 -0.03163489402667777 0.1088330393883142
0.0032390594424296184 -0.033416418481439 0.11202253031085754
0.0035066635059833096 -0.035236695107232735 0.11475929799140976
0.0037560624618667195 -0.03710707911908113 0.11703920946969902
0.003982215822832984 -0.03898430956935859 0.11887801044296725
0.004179548496302947 -0.0407818508415735 0.12030719729982121
0.008285994416043337 -0.00863697460216507 0.007000672946825173
0.007508437091591354 -0.010338473741397982 0.01679856978054079
0.00973309288421085 -0.012882173787908577 0.025851311947513205
0.010440442308044806 -0.019512495402281484 0.03297802689985131
0.01004693542569484 -0.024022904271056734 0.04043770838560637
0.0094954698488839 -0.027256298677360263 0.04792356651920643
0.009038213335578684 -0.02994052071671886 0.05517068844263382
0.008539133039147835 -0.03218985721031527 0.062137477154809106
0.008012046218423283 -0.03404914440366074 0.06880761359694995
0.007469873605570215 -0.03560577738525749 0.07514928855822048
0.0069256484677951155 -0.036931247470011384 0.08113648132798641
0.0064559301991455546 -0.038062021560461644 0.08675591903918758
0.006108090109537901 -0.039032331115728236 0.09199514245962882
0.005835591307912621 -0.03989350943802374 0.09683546779527817
0.005646315885461864 -0.04068354692344962 0.1012630676727667
0.005556570152728891 -0.04143641163504684 0.10526557872823183
0.005484703593381549 -0.04219689547289498 0.10882669804330837
0.005393245002100456 -0.04298107835982328 0.11194057300471714
0.005297730961761147 -0.04377580521315716 0.11461199167098104
0.00521698140800628 -0.04455318646742312 0.11685110501377907
0.005155604557614359 -0.045277946845434715 0.1186707521840125
0.005485628962270063 -0.006027592274776816 0.013159006380827738
0.005312774690522743 -0.00823927110514014 0.02255190369023369
0.006196413562335568 -0.012159988962062284 0.030884143059550805
0.006457021259275767 -0.016784089831637927 0.03852175334375142
0.006414690581931144 -0.020257876141299074 0.04613942528258179
0.006371643086760199 -0.023192750654584086 0.05351462646896585
0.006301402129423808 -0.025814731574896208 0.06056509300446251
0.00614279921665101 -0.028118093810681845 0.06729290865198569
0.005916795403470228 -0.03014686089672712 0.0736820501552661
0.005647913503504593 -0.031959703123109875 0.07971116327507963
0.005381266505789829 -0.03358289436232166 0.08537068510390047
0.005171795853183163 -0.035022647369985366 0.09065835438360906
0.005025757650311314 -0.03629381365061959 0.09556876560862662
0.004932542381279714 -0.03742973542610839 0.100089783202643
0.00490346403705614 -0.038477529348678915 0.1042042581067093
0.004914985140555201 -0.03949390422899278 0.10789155000172403
0.0049224460918573685 -0.04052337938585332 0.11113545518079297
0.004916956732429355 -0.0415768031181569 0.11393202518602541
0.004910301924250248 -0.04263479546627257 0.11628831374586832
0.004909940276999731 -0.043657445043688195 0.11821884741702038

CELLS 40 140
4 0 21 22 1
4 1 22 23 2
4 2 23 24 3
4 3 24 25 4
4 4 25 26 5
4 5 26 27 6
4 6 27 28 7
4 7 28 29 8
4 8 29 30 9
4 9 30 31 10
4 10 31 32 11
4 11 32 33 12
4 12 33 34 13
4 13 34 35 14
4 14 35 36 15
4 15 36 37 16
4 16 37 38 17
4 17 38 39 18
4 18 39 40 19
4 19 40 41 20
1 42
1 43
1 44
1 45
1 46
1 47
1 48
1 49
1 50
1 51
1 52
1 53
1 54
1 55
1 56
1 57
1 58
1 59
1 60
1 61

CELL_TYPES 40
9
9
9
9
9
9
9
9
9
9
9
9
9
9
9
9
9
9
9
9
1
1
1
1
1
1
1
1
1
1
1
1
1
1
1
1
1
1
1
1

CELL_DATA 40

VECTORS S float
4.5070643015740695e-18 -1.1362536991317223e-16 1.9071646037977292e-16
-4.44460010185056e-18 1.1428320792910761e-16 -1.903244610965186e-16
0.0 -0.0 0.0
0.0 -0.0 0.0
0.0 -0.0 0.0
-1.912509584997173e-17 9.280666315636238e-16 -1.5145197849387525e-15
-1.729917301535594e-17 9.286681348403197e-16 -1.5141729936930038e-15
-1.572378960247616e-17 9.289138865179932e-16 -1.5140394231190355e-15
1.4220003329402608e-17 -9.288660923948257e-16 1.5140836155207964e-15
0.0 -0.0 0.0
0.0 -0.0 0.0
1.073909539451207e-17 -9.270060105763532e-16 1.5152518434469792e-15
9.91059493966069e-18 -9.259353979653436e-16 1.5159119498792633e-15
0.0 -0.0 0.0
4.23746135859704e-18 -4.618454325862761e-16 7.58644676737036e-16
0.0 -0.0 0.0
3.88966929104451e-18 -4.604437216882299e-16 7.594980940408672e-16
3.9350419109909696e-18 -4.59807389670222e-16 7.598832706875625e-16
0.0 -0.0 0.0
-2.05425001684611e-18 2.2938604855440804e-16 -3.802539244908801e-16
4.5070643015740695e-18 -1.1362536991317223e-16 1.9071646037977292e-16
-4.44460010185056e-18 1.1428320792910761e-16 -1.903244610965186e-16
0.0 -0.0 0.0
0.0 -0.0 0.0
0.0 -0.0 0.0
-1.912509584997173e-17 9.280666315636238e-16 -1.5145197849387525e-15
-1.729917301535594e-17 9.286681348403197e-16 -1.5141729936930038e-15
-1.572378960247616e-17 9.289138865179932e-16 -1.5140394231190355e-15
1.4220003329402608e-17 -9.288660923948257e-16 1.5140836155207964e-15
0.0 -0.0 0.0
0.0 -0.0 0.0
1.073909539451207e-17 -9.270060105763532e-16 1.5152518434469792e-15
9.91059493966069e-18 -9.259353979653436e-16 1.5159119498792633e-15
0.0 -0.0 0.0
4.23746135859704e-18 -4.618454325862761e-16 7.58644676737036e-16
0.0 -0.0 0.0
3.88966929104451e-18 -4.604437216882299e-16 7.594980940408672e-16
3.9350419109909696e-18 -4.59807389670222e-16 7.598832706875625e-16
0.0 -0.0 0.0
-2.05425001684611e-18 2.2938604855440804e-16 -3.802539244908801e-16

SCALARS Gamma float
LOOKUP_TABLE default
0.11800354007044177
0.08141784622636487
0.48893097429863763
0.6482564065793334
0.769077454198634
0.812255185519222
0.8234399088634423
0.8356999771891609
0.8233536101636956
0.8001355612916564
0.7615077628628661
0.7191655557773604
0.6787122718509588
0.6244425945663061
0.5806358163927223
0.5411755692474906
0.4305490097503611
0.33391219088155905
0.23906793140478214
0.18137672085564663
0.11800354007044177
0.08141784622636487
0.48893097429863763
0.6482564065793334
0.769077454198634
0.812255185519222
0.8234399088634423
0.8356999771891609
0.8233536101636956
0.8001355612916564
0.7615077628628661
0.7191655557773604
0.6787122718509588
0.6244425945663061
0.5806358163927223
0.5411755692474906
0.4305490097503611
0.33391219088155905
0.23906793140478214
0.18137672085564663

VECTORS Ftot float
-1.9558149222811438 -2.5076975453005166 -1.4478198528254098
-1.974528388347239 -1.9948471489743922 -1.151725538452517
-17.734906603026474 -11.658913677452242 -6.731276950135629
-30.509792547794238 -15.253813117376877 -8.806793109485742
-43.87989059595584 -18.032863179148283 -10.411278410740902
-53.926526427389014 -19.220724630060857 -11.09709053918525
-61.944018916137324 -19.67648361117657 -11.360223109617996
-69.89436106522305 -20.061111632806526 -11.582288201443923
-75.46738894389108 -19.615356340169846 -11.324931263247437
-79.36402410509318 -18.89951441687822 -10.9116397361378
-80.88174147011627 -17.856711014710257 -10.309576911184271
-81.09563359627154 -16.691798089135062 -9.637014120020961
-80.61072090808665 -15.750185299063839 -9.093373722200948
-77.6509874172095 -14.32171229713444 -8.268644450006903
-75.12865989886116 -13.352842683189252 -7.709267317586
-72.516899611429 -12.28660242777843 -7.09367321910375
-59.304631197842305 -10.510426343741344 -6.068197478856769
-47.07611396840341 -8.784208900537589 -5.071565373343258
-34.342854642224864 -6.881004027231812 -3.972749527417166
-26.4773972801409 -5.523999562162014 -3.189282634217598
-1.9558149222811438 -2.5076975453005166 -1.4478198528254098
-1.974528388347239 -1.9948471489743922 -1.151725538452517
-17.734906603026474 -11.658913677452242 -6.731276950135629
-30.509792547794238 -15.253813117376877 -8.806793109485742
-43.87989059595584 -18.032863179148283 -10.411278410740902
-53.926526427389014 -19.220724630060857 -11.09709053918525
-61.944018916137324 -19.67648361117657 -11.360223109617996
-69.89436106522305 -20.061111632806526 -11.582288201443923
-75.46738894389108 -19.615356340169846 -11.324931263247437
-79.36402410509318 -18.89951441687822 -10.9116397361378
-80.88174147011627 -17.856711014710257 -10.309576911184271
-81.09563359627154 -16.691798089135062 -9.637014120020961
-80.61072090808665 -15.750185299063839 -9.093373722200948
-77.6509874172095 -14.32171229713444 -8.268644450006903
-75.12865989886116 -13.352842683189252 -7.709267317586
-72.516899611429 -12.28660242777843 -7.09367321910375
-59.304631197842305 -10.510426343741344 -6.068197478856769
-47.07611396840341 -8.784208900537589 -5.071565373343258
-34.342854642224864 -6.881004027231812 -3.972749527417166
-26.4773972801409 -5.523999562162014 -3.189282634217598

VECTORS D float
-0.021328122377689836 0.011965699736860031 0.007632976592371521
0.25326302840314147 -0.23644175392749783 -0.1478894244433491
0.7715068837867739 -0.9864357754310423 -0.6129287263607447
0.5795188782792648 -0.9274285123827747 -0.5745904880633764
0.4515567527969972 -0.8595810355069167 -0.5320599803032539
0.4231560516798032 -0.9272526691855734 -0.5735449414300219
0.43827391591242243 -1.0850740479772403 -0.6705016354320129
0.451517343555001 -1.2460763101057637 -0.7691986972380911
0.40330158188278925 -1.2287653525817668 -0.7576156360197709
0.37713989003868814 -1.2593006485656344 -0.7753573640628281
0.370845398384707 -1.3490867241797353 -0.8292927784505731
0.35855050089592894 -1.4136932795134145 -0.8674153283082241
0.38791980102777357 -1.6493332914093148 -1.00996670268189
0.3620563713208777 -1.6511226165911628 -1.0089105885182599
0.3706896245510861 -1.7949115930509592 -1.094771412196563
0.3407158391257564 -1.7470104497260028 -1.0630725967225674
0.4227769166079949 -2.2802160648720533 -1.3845401875305943
0.44449463514923526 -2.5047511314802593 -1.5179333840503182
0.4181868450207214 -2.445805272482182 -1.4797122215903136
0.36444634702834566 -2.1980929869592516 -1.3279561262236808
-0.021328122377689836 0.011965699736860031 0.007632976592371521
0.25326302840314147 -0.23644175392749783 -0.1478894244433491
0.7715068837867739 -0.9864357754310423 -0.6129287263607447
0.5795188782792648 -0.9274285123827747 -0.5745904880633764
0.4515567527969972 -0.8595810355069167 -0.5320599803032539
0.4231560516798032 -0.9272526691855734 -0.5735449414300219
0.43827391591242243 -1.0850740479772403 -0.6705016354320129
0.451517343555001 -1.2460763101057637 -0.7691986972380911
0.40330158188278925 -1.2287653525817668 -0.7576156360197709
0.37713989003868814 -1.2593006485656344 -0.7753573640628281
0.370845398384707 -1.3490867241797353 -0.8292927784505731
0.35855050089592894 -1.4136932795134145 -0.8674153283082241
0.38791980102777357 -1.6493332914093148 -1.00996670268189
0.3620563713208777 -1.6511226165911628 -1.0089105885182599
0.3706896245510861 -1.7949115930509592 -1.094771412196563
0.3407158391257564 -1.7470104497260028 -1.0630725967225674
0.4227769166079949 -2.2802160648720533 -1.3845401875305943
0.44449463514923526 -2.5047511314802593 -1.5179333840503182
0.4181868450207214 -2.445805272482182 -1.4797122215903136
0.36444634702834566 -2.1980929869592516 -1.3279561262236808

VECTORS L float
-1.9344867999034547 -2.519663245037377 -1.4554528294177818
-2.2277914167503807 -1.758405395046894 -1.0038361140091678
-18.50641348681325 -10.672477902021202 -6.118348223774886
-31.089311426073504 -14.326384604994104 -8.232202621422365
-44.33144734875284 -17.173282143641366 -9.879218430437648
-54.34968247906882 -18.293471960875287 -10.52354559775523
-62.38229283204975 -18.591409563199335 -10.689721474185982
-70.34587840877806 -18.815035322700766 -10.813089504205832
-75.87069052577387 -18.38659098758808 -10.56731562722767
-79.74116399513187 -17.64021376831258 -10.136282372074971
-81.25258686850098 -16.507624290530522 -9.480284132733699
-81.45418409716747 -15.278104809621647 -8.769598791712738
-80.99864070911444 -14.100852007654526 -8.083407019519061
-78.01304378853041 -12.670589680543282 -7.259733861488645
-75.49934952341225 -11.557931090138293 -6.61449590538944
-72.85761545055476 -10.539591978052428 -6.0306006223811846
-59.7274081144503 -8.230210278869288 -4.683657291326175
-47.52060860355266 -6.279457769057331 -3.5536319892929407
-34.76104148724559 -4.4351987547496305 -2.4930373058268533
-26.84184362716925 -3.3259065752027634 -1.861326507993918
-1.9344867999034547 -2.519663245037377 -1.4554528294177818
-2.2277914167503807 -1.758405395046894 -1.0038361140091678
-18.50641348681325 -10.672477902021202 -6.118348223774886
-31.089311426073504 -14.326384604994104 -8.232202621422365
-44.33144734875284 -17.173282143641366 -9.879218430437648
-54.34968247906882 -18.293471960875287 -10.52354559775523
-62.38229283204975 -18.591409563199335 -10.689721474185982
-70.34587840877806 -18.815035322700766 -10.813089504205832
-75.87069052577387 -18.38659098758808 -10.56731562722767
-79.74116399513187 -17.64021376831258 -10.136282372074971
-81.25258686850098 -16.507624290530522 -9.480284132733699
-81.45418409716747 -15.278104809621647 -8.769598791712738
-80.99864070911444 -14.100852007654526 -8.083407019519061
-78.01304378853041 -12.670589680543282 -7.259733861488645
-75.49934952341225 -11.557931090138293 -6.61449590538944
-72.85761545055476 -10.539591978052428 -6.0306006223811846
-59.7274081144503 -8.230210278869288 -4.683657291326175
-47.52060860355266 -6.279457769057331 -3.5536319892929407
-34.76104148724559 -4.4351987547496305 -2.4930373058268533
-26.84184362716925 -3.3259065752027634 -1.861326507993918

SCALARS mu float
LOOKUP_TABLE default
-0.048365227833449397
0.5393602523444384
1.3046773632216757
0.8611715142711702
0.6566610122945457
0.6311117104068688
0.6873739209021473
0.7574328255212943
0.7373571975275859
0.765814432740104
0.8497573974791042
0.9366512763259011
1.1580580648750456
1.2310378894111866
1.4254292243272673
1.4903258916491815
2.124113430374543
2.610637693384533
2.9421408510272746
3.1614711286475603
-0.048365227833449397
0.5393602523444384
1.3046773632216757
0.8611715142711702
0.6566610122945457
0.6311117104068688
0.6873739209021473
0.7574328255212943
0.7373571975275859
0.765814432740104
0.8497573974791042
0.9366512763259011
1.1580580648750456
1.2310378894111866
1.4254292243272673
1.4903258916491815
2.124113430374543
2.610637693384533
2.9421408510272746
3.1614711286475603