# vtk DataFile Version 4.0
[MyVLM domain - lattices] 
ASCII
DATASET UNSTRUCTURED_GRID
POINTS 62 float
0.00022673658128986117 0.009532499999999835 -0.009572696895257015
-0.003724999406033424 0.01932145833333302 -0.010193598365867305
-0.00549739299719125 0.028698249999999554 -0.011272443643222222
-0.005451904080891177 0.03766287499999941 -0.012778971530094706
-0.004354059046121628 0.04621533333333262 -0.013848370910937853
-0.0029556321221654493 0.05435562499999918 -0.014003176200856648
-0.0016722727371407085 0.06208374999999906 -0.013530364128721002
-0.0006485493516483927 0.0693997083333323 -0.012907294203932154
0.0001374053121431227 0.07630349999999886 -0.012213352730494481
0.0007511984436382017 0.08279512499999878 -0.011416515406367952
0.0012455433643025467 0.08887458333333201 -0.010556571721314524
0.0016598526811940704 0.0945418749999986 -0.009714711822837008
0.002022453218220871 0.09979699999999853 -0.008982560626999337
0.002352563731918074 0.10463995833333178 -0.008415224441117423
0.002662053738196183 0.1090707499999984 -0.007958909429466851
0.002957000443680671 0.11308937499999834 -0.007496015253946262
0.0032390594424296184 0.11669583333333163 -0.006912800012521696
0.0035066635059833096 0.11989012499999822 -0.006138329173825783
0.0037560624618667195 0.12267224999999818 -0.005160518770430244
0.003982215822832984 0.12504220833333152 -0.004025406141214489
0.004179548496302947 0.12699999999999814 -0.002825080565776382
0.008285994416043337 0.009532499999999874 0.005721730134920527
0.007508437091591354 0.01932145833333306 0.003969538240973721
0.00973309288421085 0.02869824999999959 0.0032636142307342557
0.010440442308044806 0.037662874999999464 0.0070565984557579
0.01004693542569484 0.04621533333333268 0.008743635055551525
0.0094954698488839 0.054355624999999234 0.009221717647475858
0.009038213335578684 0.06208374999999912 0.009265399611462784
0.008539133039147835 0.06939970833333235 0.008996302442301922
0.008012046218423283 0.07630349999999891 0.00846213987586761
0.007469873605570215 0.08279512499999882 0.00775591582276748
0.0069256484677951155 0.08887458333333205 0.006953709751249426
0.0064559301991455546 0.09454187499999864 0.006094328928426729
0.006108090109537901 0.09979699999999857 0.005214201712214285
0.005835591307912621 0.10463995833333183 0.004367955861814493
0.005646315885461864 0.10907074999999843 0.003596019912326097
0.005556570152728891 0.11308937499999837 0.002934541921411358
0.005484703593381549 0.11669583333333163 0.00243118843352191
0.005393245002100456 0.11989012499999824 0.0021030713451157795
0.005297730961761147 0.12267224999999818 0.0019361913096155713
0.00521698140800628 0.12504220833333152 0.0019008688713603907
0.005155604557614359 0.12699999999999814 0.0019595648644504973
0.005485628962270063 0.014426979166666458 0.0011634387333198026
0.005312774690522743 0.024009854166666317 2.917692575429961e-5
0.006196413562335568 0.03318056249999951 0.0008636528607699429
0.006457021259275767 0.04193910416666606 0.002596669761611964
0.006414690581931144 0.050285479166665946 0.0032555638746609534
0.006371643086760199 0.05821968749999916 0.0034909764309047817
0.006301402129423808 0.06574172916666574 0.0035434309785801173
0.00614279921665101 0.07285160416666561 0.003406835002510245
0.005916795403470228 0.07954931249999886 0.0031280373698803557
0.005647913503504593 0.08583485416666542 0.002769473699296032
0.005381266505789829 0.09170822916666534 0.002359104061859616
0.005171795853183163 0.09716943749999858 0.001903539934010836
0.005025757650311314 0.10221847916666518 0.0014185859567461966
0.004932542381279714 0.1068553541666651 0.0009397241814796874
0.00490346403705614 0.1110800624999984 0.0005170951022249056
0.004914985140555201 0.114892604166665 0.00021104697479147993
0.0049224460918573685 0.11829297916666492 6.895626869569926e-5
0.004916956732429355 0.12128118749999821 0.0001023675024922533
0.004910301924250248 0.12385722916666483 0.0002906569539103942
0.004909940276999731 0.12602110416666482 0.000591351812555224

CELLS 40 140
4 0 21 22 1
4 1 22 23 2
4 2 23 24 3
4 3 24 25 4
4 4 25 26 5
4 5 26 27 6
4 6 27 28 7
4 7 28 29 8
4 8 29 30 9
4 9 30 31 10
4 10 31 32 11
4 11 32 33 12
4 12 33 34 13
4 13 34 35 14
4 14 35 36 15
4 15 36 37 16
4 16 37 38 17
4 17 38 39 18
4 18 39 40 19
4 19 40 41 20
1 42
1 43
1 44
1 45
1 46
1 47
1 48
1 49
1 50
1 51
1 52
1 53
1 54
1 55
1 56
1 57
1 58
1 59
1 60
1 61

CELL_TYPES 40
9
9
9
9
9
9
9
9
9
9
9
9
9
9
9
9
9
9
9
9
1
1
1
1
1
1
1
1
1
1
1
1
1
1
1
1
1
1
1
1

CELL_DATA 40

VECTORS S float
2.25904689079135e-18 1.0903861897002504e-16 2.0770843130051608e-17
-1.13383381507925e-18 -5.4481431262971506e-17 -1.058187031849619e-17
0.0 0.0 0.0
0.0 0.0 0.0
1.063485094674086e-17 8.704598485856462e-16 1.7620288637422026e-16
4.77917193986768e-18 4.3515220791272757e-16 8.851520643087529e-17
0.0 0.0 0.0
7.87159571349174e-18 8.702142679442191e-16 1.775558252163019e-16
-3.55101582109662e-18 -4.351175588886845e-16 -8.874303656424783e-17
-3.2327850023729497e-18 -4.351399465491215e-16 -8.864537395492818e-17
2.9478607107990898e-18 4.3517940158423964e-16 8.846143147872831e-17
-2.685064699047e-18 -4.3523397565394094e-16 -8.82009249910658e-17
0.0 0.0 0.0
-2.2571057146973898e-18 -4.353759063969819e-16 -8.75097246484764e-17
0.0 0.0 0.0
0.0 0.0 0.0
0.0 0.0 0.0
0.0 0.0 0.0
-2.0277618643811e-18 -4.3572854610128083e-16 -8.574233843054573e-17
0.0 0.0 0.0
2.25904689079135e-18 1.0903861897002504e-16 2.0770843130051608e-17
-1.13383381507925e-18 -5.4481431262971506e-17 -1.058187031849619e-17
0.0 0.0 0.0
0.0 0.0 0.0
1.063485094674086e-17 8.704598485856462e-16 1.7620288637422026e-16
4.77917193986768e-18 4.3515220791272757e-16 8.851520643087529e-17
0.0 0.0 0.0
7.87159571349174e-18 8.702142679442191e-16 1.775558252163019e-16
-3.55101582109662e-18 -4.351175588886845e-16 -8.874303656424783e-17
-3.2327850023729497e-18 -4.351399465491215e-16 -8.864537395492818e-17
2.9478607107990898e-18 4.3517940158423964e-16 8.846143147872831e-17
-2.685064699047e-18 -4.3523397565394094e-16 -8.82009249910658e-17
0.0 0.0 0.0
-2.2571057146973898e-18 -4.353759063969819e-16 -8.75097246484764e-17
0.0 0.0 0.0
0.0 0.0 0.0
0.0 0.0 0.0
0.0 0.0 0.0
-2.0277618643811e-18 -4.3572854610128083e-16 -8.574233843054573e-17
0.0 0.0 0.0

SCALARS Gamma float
LOOKUP_TABLE default
0.11404920367894561
0.07836131155246717
0.4863768062234831
0.6460642551347479
0.76600326058068
0.8110676282039854
0.8224131445417792
0.8353072351575401
0.8240214906351198
0.797947385812049
0.7599955086716893
0.7179343917952866
0.6774294227292414
0.62292619369389
0.5822238485055717
0.542550841134003
0.4315280763508649
0.3346760194832866
0.2396457108021678
0.1818226909236406
0.11404920367894561
0.07836131155246717
0.4863768062234831
0.6460642551347479
0.76600326058068
0.8110676282039854
0.8224131445417792
0.8353072351575401
0.8240214906351198
0.797947385812049
0.7599955086716893
0.7179343917952866
0.6774294227292414
0.62292619369389
0.5822238485055717
0.542550841134003
0.4315280763508649
0.3346760194832866
0.2396457108021678
0.1818226909236406

VECTORS Ftot float
-1.8884150335397047 -0.487061425072646 2.762262605051633
-1.8880406961381886 -0.38701749598067997 2.194885288829234
-17.634441160276186 -2.327923938168079 13.20231270798569
-30.400753011068772 -3.052389611026095 17.31096170740253
-43.66690183414869 -3.6045020934457788 20.442147191333337
-53.81087848129435 -3.8474255761863936 21.819834722558422
-61.837496459133334 -3.9405071753058873 22.34772670338576
-69.8455472474385 -4.020302665078238 22.80026941381919
-75.53092488324579 -3.9344963118165723 22.3136374025586
-79.12265866023982 -3.7842192106591237 21.461373610859496
-80.70990345460977 -3.5772133056073128 20.287384784985637
-80.95390403799608 -3.345214950125763 18.971656729361893
-80.46089815718737 -3.156806820100542 17.903141126881675
-77.46799287515128 -2.8703836376322887 16.2787545394324
-75.34439696351586 -2.679422875816959 15.195762242688755
-72.70891390708334 -2.4650564548486544 13.980029856714674
-59.44408364191646 -2.1084957933856523 11.957873859768654
-47.185935018195835 -1.762532373821103 9.99581780813942
-34.42727917258071 -1.3812771078298451 7.833611749489652
-26.543825933350725 -1.1087102673811347 6.287808382622216
-1.8884150335397047 -0.487061425072646 2.762262605051633
-1.8880406961381886 -0.38701749598067997 2.194885288829234
-17.634441160276186 -2.327923938168079 13.20231270798569
-30.400753011068772 -3.052389611026095 17.31096170740253
-43.66690183414869 -3.6045020934457788 20.442147191333337
-53.81087848129435 -3.8474255761863936 21.819834722558422
-61.837496459133334 -3.9405071753058873 22.34772670338576
-69.8455472474385 -4.020302665078238 22.80026941381919
-75.53092488324579 -3.9344963118165723 22.3136374025586
-79.12265866023982 -3.7842192106591237 21.461373610859496
-80.70990345460977 -3.5772133056073128 20.287384784985637
-80.95390403799608 -3.345214950125763 18.971656729361893
-80.46089815718737 -3.156806820100542 17.903141126881675
-77.46799287515128 -2.8703836376322887 16.2787545394324
-75.34439696351586 -2.679422875816959 15.195762242688755
-72.70891390708334 -2.4650564548486544 13.980029856714674
-59.44408364191646 -2.1084957933856523 11.957873859768654
-47.185935018195835 -1.762532373821103 9.99581780813942
-34.42727917258071 -1.3812771078298451 7.833611749489652
-26.543825933350725 -1.1087102673811347 6.287808382622216

VECTORS D float
-0.021946563247822962 0.0031588528211034597 -0.014195795126271608
0.25216853224547514 -0.05780078551375597 0.2705714800671951
0.7627423329429294 -0.2358195487281587 1.1206168125176685
0.5775239308977129 -0.22212882425203082 1.062369828718194
0.450738839057567 -0.20514632106175368 0.9862386410115995
0.4225841913825514 -0.22139403099484353 1.065585255908273
0.4382049614236306 -0.2588462233841361 1.2482054441853716
0.4514219810642402 -0.29657012711545766 1.433499263798933
0.4030721235242874 -0.29159918030590165 1.4136163565931823
0.3778988299946203 -0.2980608574581471 1.449331354595295
0.37124091967821143 -0.3178489482876221 1.55126303401076
0.3591819796597493 -0.33175877716511887 1.626153747299983
0.38854357761069935 -0.3849096497614005 1.8957917841844942
0.3628731502918146 -0.38329152209448386 1.8975816853724035
0.3698009414572368 -0.41393146395464253 2.060158300199251
0.3400485788086841 -0.40081165057717005 2.0052896411346435
0.422393836718715 -0.5209611912098997 2.6192495015755886
0.444391082045147 -0.5699587572419432 2.8783997543005997
0.41824905064313234 -0.5548270815370185 2.8096491477915104
0.3643088693039753 -0.49664377232455537 2.5232268096321584
-0.021946563247822962 0.0031588528211034597 -0.014195795126271608
0.25216853224547514 -0.05780078551375597 0.2705714800671951
0.7627423329429294 -0.2358195487281587 1.1206168125176685
0.5775239308977129 -0.22212882425203082 1.062369828718194
0.450738839057567 -0.20514632106175368 0.9862386410115995
0.4225841913825514 -0.22139403099484353 1.065585255908273
0.4382049614236306 -0.2588462233841361 1.2482054441853716
0.4514219810642402 -0.29657012711545766 1.433499263798933
0.4030721235242874 -0.29159918030590165 1.4136163565931823
0.3778988299946203 -0.2980608574581471 1.449331354595295
0.37124091967821143 -0.3178489482876221 1.55126303401076
0.3591819796597493 -0.33175877716511887 1.626153747299983
0.38854357761069935 -0.3849096497614005 1.8957917841844942
0.3628731502918146 -0.38329152209448386 1.8975816853724035
0.3698009414572368 -0.41393146395464253 2.060158300199251
0.3400485788086841 -0.40081165057717005 2.0052896411346435
0.422393836718715 -0.5209611912098997 2.6192495015755886
0.444391082045147 -0.5699587572419432 2.8783997543005997
0.41824905064313234 -0.5548270815370185 2.8096491477915104
0.3643088693039753 -0.49664377232455537 2.5232268096321584

VECTORS L float
-1.8664684702918817 -0.49022027789374945 2.7764584001779045
-2.140209228383664 -0.329216710466924 1.9243138087620397
-18.39718349321912 -2.0921043894399216 12.081695895468025
-30.97827694196649 -2.8302607867740646 16.24859187868434
-44.11764067320626 -3.3993557723840255 19.45590855032174
-54.2334626726769 -3.626031545191549 20.754249466650144
-62.275701420556985 -3.681660951921753 21.099521259200397
-70.29696922850273 -3.723732537962779 21.36677015002025
-75.93399700677007 -3.6428971315106704 20.90002104596542
-79.50055749023447 -3.4861583532009774 20.01204225626421
-81.081144374288 -3.259364357319692 18.73612175097488
-81.31308601765583 -3.013456172960644 17.345502982061912
-80.84944173479809 -2.7718971703391415 16.007349342697186
-77.83086602544309 -2.4870921155378043 14.381172854059995
-75.71419790497309 -2.265491411862317 13.135603942489505
-73.04896248589206 -2.064244804271486 11.974740215580034
-59.86647747863519 -1.5875346021757528 9.33862435819307
-47.630326100240985 -1.1925736165791592 7.11741805383882
-34.84552822322384 -0.8264500262928265 5.023962601698141
-26.908134802654708 -0.6120664950565792 3.7645815729900565
-1.8664684702918817 -0.49022027789374945 2.7764584001779045
-2.140209228383664 -0.329216710466924 1.9243138087620397
-18.39718349321912 -2.0921043894399216 12.081695895468025
-30.97827694196649 -2.8302607867740646 16.24859187868434
-44.11764067320626 -3.3993557723840255 19.45590855032174
-54.2334626726769 -3.626031545191549 20.754249466650144
-62.275701420556985 -3.681660951921753 21.099521259200397
-70.29696922850273 -3.723732537962779 21.36677015002025
-75.93399700677007 -3.6428971315106704 20.90002104596542
-79.50055749023447 -3.4861583532009774 20.01204225626421
-81.081144374288 -3.259364357319692 18.73612175097488
-81.31308601765583 -3.013456172960644 17.345502982061912
-80.84944173479809 -2.7718971703391415 16.007349342697186
-77.83086602544309 -2.4870921155378043 14.381172854059995
-75.71419790497309 -2.265491411862317 13.135603942489505
-73.04896248589206 -2.064244804271486 11.974740215580034
-59.86647747863519 -1.5875346021757528 9.33862435819307
-47.630326100240985 -1.1925736165791592 7.11741805383882
-34.84552822322384 -0.8264500262928265 5.023962601698141
-26.908134802654708 -0.6120664950565792 3.7645815729900565

SCALARS mu float
LOOKUP_TABLE default
-0.04964250859858722
0.5360759554984409
1.2873718870686703
0.8568778822460604
0.654879894187606
0.6304053926571007
0.6872823655699681
0.7573393651511731
0.7372505043287194
0.7664489581247702
0.8498094248019993
0.9372656222411792
1.158286310503331
1.231514466986532
1.4245127869721423
1.4901304550039198
2.1263019910004406
2.6154533585358655
2.9475739856694787
3.1658048750624816
-0.04964250859858722
0.5360759554984409
1.2873718870686703
0.8568778822460604
0.654879894187606
0.6304053926571007
0.6872823655699681
0.7573393651511731
0.7372505043287194
0.7664489581247702
0.8498094248019993
0.9372656222411792
1.158286310503331
1.231514466986532
1.4245127869721423
1.4901304550039198
2.1263019910004406
2.6154533585358655
2.9475739856694787
3.1658048750624816