# vtk DataFile Version 4.0
[MyVLM domain - lattices] 
ASCII
DATASET UNSTRUCTURED_GRID
POINTS 62 float
0.00022673658128986117 -0.009532499999999758 0.009572696895256935
-0.003724999406033424 -0.01932145833333287 0.010193598365867218
-0.00549739299719125 -0.02869824999999933 0.011272443643222123
-0.005451904080891177 -0.03766287499999912 0.012778971530094593
-0.004354059046121628 -0.04621533333333227 0.01384837091093773
-0.0029556321221654493 -0.054355624999998756 0.014003176200856525
-0.0016722727371407085 -0.06208374999999859 0.013530364128720879
-0.0006485493516483927 -0.06939970833333176 0.012907294203932034
0.0001374053121431227 -0.07630349999999828 0.012213352730494363
0.0007511984436382017 -0.08279512499999815 0.011416515406367839
0.0012455433643025467 -0.08887458333333134 0.010556571721314415
0.0016598526811940704 -0.09454187499999789 0.009714711822836905
0.002022453218220871 -0.09979699999999776 0.008982560626999238
0.002352563731918074 -0.10463995833333099 0.008415224441117326
0.002662053738196183 -0.10907074999999755 0.00795890942946676
0.002957000443680671 -0.11308937499999747 0.007496015253946173
0.0032390594424296184 -0.11669583333333072 0.00691280001252161
0.0035066635059833096 -0.11989012499999732 0.006138329173825701
0.0037560624618667195 -0.12267224999999726 0.005160518770430169
0.003982215822832984 -0.12504220833333057 0.004025406141214423
0.004179548496302947 -0.12699999999999717 0.0028250805657763244
0.008285994416043337 -0.009532499999999805 -0.005721730134920484
0.007508437091591354 -0.019321458333332913 -0.003969538240973695
0.00973309288421085 -0.028698249999999374 -0.0032636142307342375
0.010440442308044806 -0.03766287499999918 -0.007056598455757855
0.01004693542569484 -0.04621533333333234 -0.008743635055551468
0.0094954698488839 -0.054355624999998825 -0.009221717647475798
0.009038213335578684 -0.062083749999998654 -0.009265399611462726
0.008539133039147835 -0.06939970833333182 -0.00899630244230187
0.008012046218423283 -0.07630349999999834 -0.008462139875867563
0.007469873605570215 -0.08279512499999821 -0.007755915822767442
0.0069256484677951155 -0.0888745833333314 -0.006953709751249395
0.0064559301991455546 -0.09454187499999793 -0.0060943289284267075
0.006108090109537901 -0.0997969999999978 -0.00521420171221427
0.005835591307912621 -0.10463995833333105 -0.004367955861814486
0.005646315885461864 -0.1090707499999976 -0.003596019912326099
0.005556570152728891 -0.11308937499999751 -0.002934541921411366
0.005484703593381549 -0.11669583333333074 -0.002431188433521923
0.005393245002100456 -0.11989012499999734 -0.002103071345115796
0.005297730961761147 -0.12267224999999728 -0.0019361913096155895
0.00521698140800628 -0.12504220833333057 -0.00190086887136041
0.005155604557614359 -0.12699999999999717 -0.001959564864450517
0.005485628962270063 -0.014426979166666349 -0.0011634387333197974
0.005312774690522743 -0.024009854166666133 -2.917692575430604e-5
0.006196413562335568 -0.03318056249999926 -0.0008636528607699451
0.006457021259275767 -0.04193910416666575 -0.0025966697616119547
0.006414690581931144 -0.050285479166665564 -0.0032555638746609417
0.006371643086760199 -0.05821968749999873 -0.0034909764309047704
0.006301402129423808 -0.06574172916666524 -0.0035434309785801073
0.00614279921665101 -0.07285160416666506 -0.003406835002510238
0.005916795403470228 -0.07954931249999826 -0.0031280373698803522
0.005647913503504593 -0.08583485416666478 -0.0027694736992960336
0.005381266505789829 -0.09170822916666466 -0.002359104061859622
0.005171795853183163 -0.09716943749999786 -0.001903539934010848
0.005025757650311314 -0.10221847916666442 -0.0014185859567462137
0.004932542381279714 -0.10685535416666428 -0.0009397241814797098
0.00490346403705614 -0.11108006249999754 -0.0005170951022249323
0.004914985140555201 -0.11489260416666411 -0.0002110469747915102
0.0049224460918573685 -0.11829297916666405 -6.895626869573154e-5
0.004916956732429355 -0.1212811874999973 -0.00010236750249228615
0.004910301924250248 -0.12385722916666392 -0.0002906569539104262
0.004909940276999731 -0.12602110416666387 -0.0005913518125552541

CELLS 40 140
4 0 21 22 1
4 1 22 23 2
4 2 23 24 3
4 3 24 25 4
4 4 25 26 5
4 5 26 27 6
4 6 27 28 7
4 7 28 29 8
4 8 29 30 9
4 9 30 31 10
4 10 31 32 11
4 11 32 33 12
4 12 33 34 13
4 13 34 35 14
4 14 35 36 15
4 15 36 37 16
4 16 37 38 17
4 17 38 39 18
4 18 39 40 19
4 19 40 41 20
1 42
1 43
1 44
1 45
1 46
1 47
1 48
1 49
1 50
1 51
1 52
1 53
1 54
1 55
1 56
1 57
1 58
1 59
1 60
1 61

CELL_TYPES 40
9
9
9
9
9
9
9
9
9
9
9
9
9
9
9
9
9
9
9
9
1
1
1
1
1
1
1
1
1
1
1
1
1
1
1
1
1
1
1
1

CELL_DATA 40

VECTORS S float
1.1226517590899399e-18 -5.452024841046431e-17 -1.038123679089606e-17
1.1133770435372998e-18 -5.448494667707662e-17 -1.05659305399297e-17
0.0 -0.0 -0.0
0.0 -0.0 -0.0
5.4610634302591796e-18 -4.3516551385342775e-16 -8.841028585037956e-17
4.81563449986856e-18 -4.3513089225486485e-16 -8.861795853607675e-17
0.0 -0.0 -0.0
0.0 -0.0 -0.0
0.0 -0.0 -0.0
-3.25292855254312e-18 4.3512211713270796e-16 8.873211336959651e-17
0.0 -0.0 -0.0
0.0 -0.0 -0.0
0.0 -0.0 -0.0
2.2782417656462298e-18 -4.353595965590155e-16 -8.759028258706267e-17
0.0 -0.0 -0.0
-3.86070829117648e-18 8.710301917773977e-16 1.736444792233029e-16
1.93843389549604e-18 -4.355921271322322e-16 -8.643475897868292e-17
-9.817767528764999e-19 2.1783099623439818e-16 4.3040675764331855e-17
1.01691962493481e-18 -2.1786202959565118e-16 -4.288249656040632e-17
0.0 -0.0 -0.0
1.1226517590899399e-18 -5.452024841046431e-17 -1.038123679089606e-17
1.1133770435372998e-18 -5.448494667707662e-17 -1.05659305399297e-17
0.0 -0.0 -0.0
0.0 -0.0 -0.0
5.4610634302591796e-18 -4.3516551385342775e-16 -8.841028585037956e-17
4.81563449986856e-18 -4.3513089225486485e-16 -8.861795853607675e-17
0.0 -0.0 -0.0
0.0 -0.0 -0.0
0.0 -0.0 -0.0
-3.25292855254312e-18 4.3512211713270796e-16 8.873211336959651e-17
0.0 -0.0 -0.0
0.0 -0.0 -0.0
0.0 -0.0 -0.0
2.2782417656462298e-18 -4.353595965590155e-16 -8.759028258706267e-17
0.0 -0.0 -0.0
-3.86070829117648e-18 8.710301917773977e-16 1.736444792233029e-16
1.93843389549604e-18 -4.355921271322322e-16 -8.643475897868292e-17
-9.817767528764999e-19 2.1783099623439818e-16 4.3040675764331855e-17
1.01691962493481e-18 -2.1786202959565118e-16 -4.288249656040632e-17
0.0 -0.0 -0.0

SCALARS Gamma float
LOOKUP_TABLE default
0.11462694131487709
0.07868304562264304
0.48709532733326616
0.6454041184613716
0.7685323055233221
0.8133712975651056
0.823869182598737
0.8356837851358143
0.8218756009761256
0.7995787807945337
0.7611127870216133
0.718659533884707
0.6780364326366566
0.6214619403112102
0.5811768714603082
0.5417936532569839
0.43104497472420344
0.33431466632767004
0.23946920494986612
0.18168278514537872
0.11462694131487709
0.07868304562264304
0.48709532733326616
0.6454041184613716
0.7685323055233221
0.8133712975651056
0.823869182598737
0.8356837851358143
0.8218756009761256
0.7995787807945337
0.7611127870216133
0.718659533884707
0.6780364326366566
0.6214619403112102
0.5811768714603082
0.5417936532569839
0.43104497472420344
0.33431466632767004
0.23946920494986612
0.18168278514537872

VECTORS Ftot float
-1.8988924514551413 0.48954213032448346 -2.776331383646215
-1.898128641018382 0.388664412386365 -2.2042254158992307
-17.676469355218362 2.3330654637944677 -13.231471748795757
-30.375679618374093 3.0516894862929242 -17.306991102731875
-43.863969176082975 3.616623442913952 -20.510890780201464
-53.98759387971191 3.8546762802860477 -21.860955508898265
-61.969289287983926 3.945344076538039 -22.375158133406998
-69.89258967045548 4.022421435627374 -22.812285558714493
-75.30194391743623 3.927873189611187 -22.276075810006144
-79.29311408521262 3.7874389529661507 -21.47963367686924
-80.83372834206132 3.579392344599248 -20.29974272920488
-81.0393008097462 3.3463524048652755 -18.978107555746774
-80.5366307799697 3.1577639344469954 -17.90856919207405
-77.26688388820543 2.8674677380973193 -16.262217651411927
-75.1936310245111 2.6775194287205846 -15.184967257776513
-72.59584868046112 2.4637816936628716 -13.972800326777419
-59.3702330695071 2.1076441099224015 -11.953043722827477
-47.13077114961915 1.7617452012447306 -9.99135353061816
-34.39912576752073 1.380651584865761 -7.830064232475706
-26.521133268863966 1.108237190885068 -6.285125432490798
-1.8988924514551413 0.48954213032448346 -2.776331383646215
-1.898128641018382 0.388664412386365 -2.2042254158992307
-17.676469355218362 2.3330654637944677 -13.231471748795757
-30.375679618374093 3.0516894862929242 -17.306991102731875
-43.863969176082975 3.616623442913952 -20.510890780201464
-53.98759387971191 3.8546762802860477 -21.860955508898265
-61.969289287983926 3.945344076538039 -22.375158133406998
-69.89258967045548 4.022421435627374 -22.812285558714493
-75.30194391743623 3.927873189611187 -22.276075810006144
-79.29311408521262 3.7874389529661507 -21.47963367686924
-80.83372834206132 3.579392344599248 -20.29974272920488
-81.0393008097462 3.3463524048652755 -18.978107555746774
-80.5366307799697 3.1577639344469954 -17.90856919207405
-77.26688388820543 2.8674677380973193 -16.262217651411927
-75.1936310245111 2.6775194287205846 -15.184967257776513
-72.59584868046112 2.4637816936628716 -13.972800326777419
-59.3702330695071 2.1076441099224015 -11.953043722827477
-47.13077114961915 1.7617452012447306 -9.99135353061816
-34.39912576752073 1.380651584865761 -7.830064232475706
-26.521133268863966 1.108237190885068 -6.285125432490798

VECTORS D float
-0.021889897053027494 -0.003148507599155379 0.014168127358803012
0.2525866659701962 0.05774168731059727 -0.271138310813327
0.7650873599540144 0.23566372838045282 -1.1245756388901857
0.5771196270840363 0.22075786930285735 -1.0611001631058492
0.4518382180690624 0.2067263960671143 -0.9896210645737548
0.422932230202728 0.22216755152385223 -1.06790180510935
0.43787194000125335 0.25925688367085997 -1.2482016166095913
0.45150884903583594 0.29719400920527456 -1.433869948244757
0.4034263205834696 0.291797725576368 -1.4130521487059955
0.3771864811352556 0.298151158633199 -1.4482378229927382
0.3709045640780601 0.31816590841228387 -1.5511312929167251
0.3588330548470355 0.33203495520205234 -1.6255520562955903
0.38831105040694897 0.38542532982399846 -1.8956945823287794
0.36332235273586394 0.38357935528911924 -1.8970964849151646
0.3702551834129506 0.414385979013068 -2.0602419604666564
0.34031190129980105 0.40117836526540346 -2.004812505483993
0.42249016797678496 0.5212467554901293 -2.617373107714626
0.44437220933837007 0.5701672630287596 -2.8755084910540853
0.41817331960182125 0.5546219709234348 -2.807808062638872
0.3642936639283482 0.49653494768853973 -2.5218846328258175
-0.021889897053027494 -0.003148507599155379 0.014168127358803012
0.2525866659701962 0.05774168731059727 -0.271138310813327
0.7650873599540144 0.23566372838045282 -1.1245756388901857
0.5771196270840363 0.22075786930285735 -1.0611001631058492
0.4518382180690624 0.2067263960671143 -0.9896210645737548
0.422932230202728 0.22216755152385223 -1.06790180510935
0.43787194000125335 0.25925688367085997 -1.2482016166095913
0.45150884903583594 0.29719400920527456 -1.433869948244757
0.4034263205834696 0.291797725576368 -1.4130521487059955
0.3771864811352556 0.298151158633199 -1.4482378229927382
0.3709045640780601 0.31816590841228387 -1.5511312929167251
0.3588330548470355 0.33203495520205234 -1.6255520562955903
0.38831105040694897 0.38542532982399846 -1.8956945823287794
0.36332235273586394 0.38357935528911924 -1.8970964849151646
0.3702551834129506 0.414385979013068 -2.0602419604666564
0.34031190129980105 0.40117836526540346 -2.004812505483993
0.42249016797678496 0.5212467554901293 -2.617373107714626
0.44437220933837007 0.5701672630287596 -2.8755084910540853
0.41817331960182125 0.5546219709234348 -2.807808062638872
0.3642936639283482 0.49653494768853973 -2.5218846328258175

VECTORS L float
-1.877002554402114 0.4926906379236388 -2.790499511005018
-2.1507153069885785 0.3309227250757678 -1.9330871050859038
-18.44155671517238 2.0974017354140146 -12.106896109905572
-30.952799245458127 2.8309316169900676 -16.245890939626026
-44.31580739415204 3.4098970468468393 -19.521269715627714
-54.41052610991462 3.6325087287621947 -20.79305370378891
-62.40716122798519 3.6860871928671792 -21.126956516797406
-70.3440985194913 3.725227426422097 -21.378415610469727
-75.70537023801971 3.6360754640348207 -20.863023661300154
-79.67030056634788 3.4892877943329506 -20.031395853876504
-81.20463290613937 3.2612264361869636 -18.74861143628815
-81.39813386459322 3.014317449663223 -17.35255549945118
-80.92494183037665 2.7723386046229965 -16.012874609745275
-77.63020624094129 2.4838883828082006 -14.365121166496762
-75.56388620792406 2.263133449707516 -13.124725297309858
-72.93616058176092 2.0626033283974667 -11.967987821293422
-59.792723237483884 1.586397354432272 -9.33567061511285
-47.57514335895752 1.1915779382159708 -7.115845039564075
-34.81729908712256 0.8260296139423265 -5.022256169836835
-26.885426932792313 0.6117022431965282 -3.7632407996649806
-1.877002554402114 0.4926906379236388 -2.790499511005018
-2.1507153069885785 0.3309227250757678 -1.9330871050859038
-18.44155671517238 2.0974017354140146 -12.106896109905572
-30.952799245458127 2.8309316169900676 -16.245890939626026
-44.31580739415204 3.4098970468468393 -19.521269715627714
-54.41052610991462 3.6325087287621947 -20.79305370378891
-62.40716122798519 3.6860871928671792 -21.126956516797406
-70.3440985194913 3.725227426422097 -21.378415610469727
-75.70537023801971 3.6360754640348207 -20.863023661300154
-79.67030056634788 3.4892877943329506 -20.031395853876504
-81.20463290613937 3.2612264361869636 -18.74861143628815
-81.39813386459322 3.014317449663223 -17.35255549945118
-80.92494183037665 2.7723386046229965 -16.012874609745275
-77.63020624094129 2.4838883828082006 -14.365121166496762
-75.56388620792406 2.263133449707516 -13.124725297309858
-72.93616058176092 2.0626033283974667 -11.967987821293422
-59.792723237483884 1.586397354432272 -9.33567061511285
-47.57514335895752 1.1915779382159708 -7.115845039564075
-34.81729908712256 0.8260296139423265 -5.022256169836835
-26.885426932792313 0.6117022431965282 -3.7632407996649806

SCALARS mu float
LOOKUP_TABLE default
-0.0495144255953324
0.5366975774203457
1.290475516018512
0.8554906435485666
0.6564748570872699
0.6315468202291832
0.6870969859272172
0.75743303597881
0.7372931491219982
0.7658383457922
0.8497339332143037
0.9369356815254783
1.1582545023826054
1.2315345268230213
1.424902460354649
1.4900706701657016
2.125130911363753
2.6131812372560503
2.9458941074774714
3.1643970164827384
-0.0495144255953324
0.5366975774203457
1.290475516018512
0.8554906435485666
0.6564748570872699
0.6315468202291832
0.6870969859272172
0.75743303597881
0.7372931491219982
0.7658383457922
0.8497339332143037
0.9369356815254783
1.1582545023826054
1.2315345268230213
1.424902460354649
1.4900706701657016
2.125130911363753
2.6131812372560503
2.9458941074774714
3.1643970164827384