# vtk DataFile Version 4.0
[MyVLM domain - lattices] 
ASCII
DATASET UNSTRUCTURED_GRID
POINTS 62 float
0.00022673658128986117 -0.013455529609587515 0.0012057383729371235
-0.003724999406033424 -0.021353414516905023 -0.004610844634181817
-0.00549739299719125 -0.029229922044491798 -0.009811686706424157
-0.005451904080891177 -0.037065600669716 -0.014419969265767808
-0.004354059046121628 -0.044304560522784905 -0.019098176061625005
-0.0029556321221654493 -0.05063989264167623 -0.024212066952085116
-0.0016722727371407085 -0.05625606211197596 -0.029541805008692912
-0.0006485493516483927 -0.061459909711693225 -0.03472171163190153
0.0001374053121431227 -0.06630246397342088 -0.03969097338466871
0.0007511984436382017 -0.0707631400725987 -0.04447412230561695
0.0012455433643025467 -0.07486751420024143 -0.049040677877219566
0.0016598526811940704 -0.07866777437719254 -0.05332844483814603
0.002022453218220871 -0.08222281596423643 -0.05726723443059431
0.002352563731918074 -0.08556806061293139 -0.06081483277406425
0.002662053738196183 -0.08866893031219625 -0.0640124483374866
0.002957000443680671 -0.09144983302180448 -0.06695016820637281
0.0032390594424296184 -0.0938376568564265 -0.06971512373272579
0.0035066635059833096 -0.09578680597820044 -0.07236165392012477
0.0037560624618667195 -0.09728951296258752 -0.07489901562466897
0.003982215822832984 -0.09837537004060243 -0.07729194219873389
0.004179548496302947 -0.09910357106015555 -0.07946988916141272
0.008285994416043337 -0.0036244614173345092 -0.010510472464219121
0.007508437091591354 -0.012249525791729768 -0.015460436728987403
0.00973309288421085 -0.019886324149426128 -0.020946953065624423
0.010440442308044806 -0.02431554205173976 -0.029614897429527835
0.01004693542569484 -0.02978269900956118 -0.03640465669116505
0.0094954698488839 -0.03571121863968299 -0.04200336782662843
0.009038213335578684 -0.04160322762644416 -0.047004373148513856
0.008539133039147835 -0.04738054917992235 -0.051500840127068695
0.008012046218423283 -0.0530125135018857 -0.05552931960451997
0.007469873605570215 -0.05843933883094319 -0.05916105670977697
0.0069256484677951155 -0.06361212222755358 -0.06245433169672642
0.0064559301991455546 -0.06850591886125064 -0.06543887265669314
0.006108090109537901 -0.07309731303492543 -0.06814258533082973
0.005835591307912621 -0.07735119070181774 -0.07060731701051326
0.005646315885461864 -0.08124156490048831 -0.07286403775039955
0.005556570152728891 -0.08474520010735759 -0.07494043856919033
0.005484703593381549 -0.08783145685825551 -0.07687303415838546
0.005393245002100456 -0.09048933583816059 -0.07867493299117782
0.005297730961761147 -0.0927278356535965 -0.08033541094591452
0.00521698140800628 -0.09456603389092436 -0.08183173224051175
0.005155604557614359 -0.0960280602608624 -0.08313514020553264
0.005485628962270063 -0.010303863219210672 -0.010164729230108032
0.005312774690522743 -0.01837386079810806 -0.015455587590555181
0.006196413562335568 -0.02486264016471318 -0.02198965093220609
0.006457021259275767 -0.03045811054705047 -0.028947100961183934
0.006414690581931144 -0.03642827576402421 -0.034816789570886325
0.006371643086760199 -0.0423549116940042 -0.040097136860775616
0.006301402129423808 -0.0480834127803461 -0.04497239455841776
0.00614279921665101 -0.05361769521631727 -0.04943789552641703
0.005916795403470228 -0.05892764513056327 -0.053529528079147064
0.005647913503504593 -0.06397312968104131 -0.057295120675293326
0.005381266505789829 -0.06873617648048083 -0.060756091971953044
0.005171795853183163 -0.07321253575374466 -0.06391750665391362
0.005025757650311314 -0.07739204847342468 -0.06679147177858595
0.004932542381279714 -0.08125190721650573 -0.06940516817428614
0.00490346403705614 -0.08475988229469231 -0.07179700568782864
0.004914985140555201 -0.08787718259688378 -0.07401321376522824
0.0049224460918573685 -0.09057335511548441 -0.07609008488769256
0.004916956732429355 -0.09284097917700741 -0.07803646266950885
0.004910301924250248 -0.09469331145459407 -0.0798365484228352
0.004909940276999731 -0.09615765294451478 -0.08145780608728496

CELLS 40 140
4 0 21 22 1
4 1 22 23 2
4 2 23 24 3
4 3 24 25 4
4 4 25 26 5
4 5 26 27 6
4 6 27 28 7
4 7 28 29 8
4 8 29 30 9
4 9 30 31 10
4 10 31 32 11
4 11 32 33 12
4 12 33 34 13
4 13 34 35 14
4 14 35 36 15
4 15 36 37 16
4 16 37 38 17
4 17 38 39 18
4 18 39 40 19
4 19 40 41 20
1 42
1 43
1 44
1 45
1 46
1 47
1 48
1 49
1 50
1 51
1 52
1 53
1 54
1 55
1 56
1 57
1 58
1 59
1 60
1 61

CELL_TYPES 40
9
9
9
9
9
9
9
9
9
9
9
9
9
9
9
9
9
9
9
9
1
1
1
1
1
1
1
1
1
1
1
1
1
1
1
1
1
1
1
1

CELL_DATA 40

VECTORS S float
4.53770877421948e-18 -1.4034338828554326e-16 -1.720085728675372e-16
0.0 -0.0 -0.0
0.0 -0.0 -0.0
0.0 -0.0 -0.0
2.164487311406046e-17 -1.1064068847661589e-15 -1.3895463021051033e-15
1.9615568945042058e-17 -1.1047724115360072e-15 -1.390876259430696e-15
0.0 -0.0 -0.0
-1.587575194717366e-17 1.1047323784790749e-15 1.390955769722433e-15
0.0 -0.0 -0.0
0.0 -0.0 -0.0
-1.1806881888699679e-17 1.1059363266354117e-15 1.3900392296091093e-15
0.0 -0.0 -0.0
9.900214353029729e-18 -1.1078670686724869e-15 -1.3885158136625032e-15
-4.5180676231734e-18 5.545112174484794e-16 6.93799540220206e-16
4.1759076009166395e-18 -5.551253350529457e-16 -6.93310413450624e-16
0.0 -0.0 -0.0
3.84669425474622e-18 -5.563454695455234e-16 -6.92333609382423e-16
3.89781247754668e-18 -5.569025713015164e-16 -6.918852783205183e-16
0.0 -0.0 -0.0
0.0 -0.0 -0.0
4.53770877421948e-18 -1.4034338828554326e-16 -1.720085728675372e-16
0.0 -0.0 -0.0
0.0 -0.0 -0.0
0.0 -0.0 -0.0
2.164487311406046e-17 -1.1064068847661589e-15 -1.3895463021051033e-15
1.9615568945042058e-17 -1.1047724115360072e-15 -1.390876259430696e-15
0.0 -0.0 -0.0
-1.587575194717366e-17 1.1047323784790749e-15 1.390955769722433e-15
0.0 -0.0 -0.0
0.0 -0.0 -0.0
-1.1806881888699679e-17 1.1059363266354117e-15 1.3900392296091093e-15
0.0 -0.0 -0.0
9.900214353029729e-18 -1.1078670686724869e-15 -1.3885158136625032e-15
-4.5180676231734e-18 5.545112174484794e-16 6.93799540220206e-16
4.1759076009166395e-18 -5.551253350529457e-16 -6.93310413450624e-16
0.0 -0.0 -0.0
3.84669425474622e-18 -5.563454695455234e-16 -6.92333609382423e-16
3.89781247754668e-18 -5.569025713015164e-16 -6.918852783205183e-16
0.0 -0.0 -0.0
0.0 -0.0 -0.0

SCALARS Gamma float
LOOKUP_TABLE default
0.11433460969736828
0.07934739433390861
0.4885457297296183
0.64836028901715
0.7695894849790333
0.814455232541941
0.8232653972036663
0.8328951802633807
0.8221775684987198
0.7997705706480364
0.761321741356782
0.7188375326508535
0.6780687652916855
0.6233930227697966
0.5825573044417822
0.5427693148766406
0.4316290169815716
0.33461943176562553
0.23983958413293507
0.18123833421937674
0.11433460969736828
0.07934739433390861
0.4885457297296183
0.64836028901715
0.7695894849790333
0.814455232541941
0.8232653972036663
0.8328951802633807
0.8221775684987198
0.7997705706480364
0.761321741356782
0.7188375326508535
0.6780687652916855
0.6233930227697966
0.5825573044417822
0.5427693148766406
0.4316290169815716
0.33461943176562553
0.23983958413293507
0.18123833421937674

VECTORS Ftot float
-1.8938609477648036 2.1544033334987134 -1.8077590425458825
-1.9164103859697377 1.726396476981219 -1.4486186471007045
-17.727950871098646 10.312604068493586 -8.653302270350332
-30.51692351747467 13.495377883482792 -11.323966604628493
-43.91485533861501 15.958983065753467 -13.391176804438262
-54.07935227252701 17.024143308038195 -14.284952370884087
-61.92054805696532 17.39871691620517 -14.599256947345742
-69.61594791694513 17.706492369567304 -14.857511216747326
-75.34292826380883 17.335175720185482 -14.545939553201055
-79.3272336767721 16.714926895615303 -14.025488993266071
-80.86988509060599 15.796508321883701 -13.25484430678152
-81.06968978037011 14.766652983325208 -12.39069307203113
-80.54523992568056 13.93204634523707 -11.690374949833263
-77.52902637786431 12.665783896618446 -10.627854596223727
-75.38568162657097 11.820868411339324 -9.91888632415004
-72.73192807267455 10.873378120650516 -9.123847570689003
-59.44960220929944 9.29936402961695 -7.803092927434888
-47.16889702304831 7.771352447912695 -6.520938972792228
-34.4466824815444 6.093241601886085 -5.1128367808167
-26.455297056306428 4.8843015562985155 -4.098415634448721
-1.8938609477648036 2.1544033334987134 -1.8077590425458825
-1.9164103859697377 1.726396476981219 -1.4486186471007045
-17.727950871098646 10.312604068493586 -8.653302270350332
-30.51692351747467 13.495377883482792 -11.323966604628493
-43.91485533861501 15.958983065753467 -13.391176804438262
-54.07935227252701 17.024143308038195 -14.284952370884087
-61.92054805696532 17.39871691620517 -14.599256947345742
-69.61594791694513 17.706492369567304 -14.857511216747326
-75.34292826380883 17.335175720185482 -14.545939553201055
-79.3272336767721 16.714926895615303 -14.025488993266071
-80.86988509060599 15.796508321883701 -13.25484430678152
-81.06968978037011 14.766652983325208 -12.39069307203113
-80.54523992568056 13.93204634523707 -11.690374949833263
-77.52902637786431 12.665783896618446 -10.627854596223727
-75.38568162657097 11.820868411339324 -9.91888632415004
-72.73192807267455 10.873378120650516 -9.123847570689003
-59.44960220929944 9.29936402961695 -7.803092927434888
-47.16889702304831 7.771352447912695 -6.520938972792228
-34.4466824815444 6.093241601886085 -5.1128367808167
-26.455297056306428 4.8843015562985155 -4.098415634448721

VECTORS D float
-0.02192781966252043 -0.011539712326934013 0.008836886689890787
0.25266322759666815 0.21871670957358302 -0.17083519235578976
0.770100914706237 0.9108607108418433 -0.7158033008176843
0.5796488196554506 0.8574432543113284 -0.6750729099622704
0.45167035340725514 0.7947094505518961 -0.6257406886501138
0.42321850640822256 0.8580875041437688 -0.6756098704676895
0.4381416044843845 1.0009883227063818 -0.7898992663367331
0.45224042371722467 1.1491837456647422 -0.9075492286301737
0.40351017587851423 1.1321658040603821 -0.8951861157773139
0.37731609330208316 1.159645685249657 -0.9182067146632925
0.37101182159892954 1.2410492949805096 -0.984246326696848
0.3588846421222885 1.2993054522096936 -1.0322997625341466
0.3883667519583084 1.5136771701932357 -1.2049615560036673
0.3626859085822764 1.5133721701663039 -1.2071832806415361
0.36954969188270964 1.6410061804553484 -1.3117081219879119
0.3398355492841229 1.5957427459309161 -1.2781020721169327
0.4221912950118397 2.0826163125177315 -1.6712031508538416
0.444197976102604 2.2867779399267802 -1.8381387119757422
0.41805719676282327 2.2316491502495004 -1.7964584149201728
0.36444143278581426 1.998777129001293 -1.610403775852764
-0.02192781966252043 -0.011539712326934013 0.008836886689890787
0.25266322759666815 0.21871670957358302 -0.17083519235578976
0.770100914706237 0.9108607108418433 -0.7158033008176843
0.5796488196554506 0.8574432543113284 -0.6750729099622704
0.45167035340725514 0.7947094505518961 -0.6257406886501138
0.42321850640822256 0.8580875041437688 -0.6756098704676895
0.4381416044843845 1.0009883227063818 -0.7898992663367331
0.45224042371722467 1.1491837456647422 -0.9075492286301737
0.40351017587851423 1.1321658040603821 -0.8951861157773139
0.37731609330208316 1.159645685249657 -0.9182067146632925
0.37101182159892954 1.2410492949805096 -0.984246326696848
0.3588846421222885 1.2993054522096936 -1.0322997625341466
0.3883667519583084 1.5136771701932357 -1.2049615560036673
0.3626859085822764 1.5133721701663039 -1.2071832806415361
0.36954969188270964 1.6410061804553484 -1.3117081219879119
0.3398355492841229 1.5957427459309161 -1.2781020721169327
0.4221912950118397 2.0826163125177315 -1.6712031508538416
0.444197976102604 2.2867779399267802 -1.8381387119757422
0.41805719676282327 2.2316491502495004 -1.7964584149201728
0.36444143278581426 1.998777129001293 -1.610403775852764

VECTORS L float
-1.8719331281022833 2.1659430458256472 -1.8165959292357734
-2.1690736135664066 1.5076797674076368 -1.2777834547449152
-18.498051785804886 9.401743357651744 -7.937498969532649
-31.09657233713012 12.637934629171463 -10.648893694666222
-44.36652569202227 15.164273615201571 -12.765436115788148
-54.502570778935215 16.166055803894427 -13.609342500416398
-62.3586896614497 16.397728593498787 -13.809357681009006
-70.06818834066235 16.557308623902557 -13.94996198811715
-75.74643843968735 16.2030099161251 -13.65075343742374
-79.70454977007418 15.555281210365644 -13.10728227860278
-81.24089691220493 14.555459026903192 -12.270597980084672
-81.42857442249239 13.467347531115513 -11.358393309496982
-80.93360667763888 12.41836917504384 -10.485413393829598
-77.8917122864466 11.152411726452145 -9.420671315582194
-75.7552313184537 10.17986223088398 -8.607178202162132
-73.07176362195867 9.2776353747196 -7.845745498572069
-59.871793504311285 7.216747717099219 -6.131889776581047
-47.613094999150924 5.484574507985917 -4.682800260816488
-34.86473967830724 3.861592451636586 -3.316378365896529
-26.819738489092245 2.8855244272972227 -2.4880118585959576
-1.8719331281022833 2.1659430458256472 -1.8165959292357734
-2.1690736135664066 1.5076797674076368 -1.2777834547449152
-18.498051785804886 9.401743357651744 -7.937498969532649
-31.09657233713012 12.637934629171463 -10.648893694666222
-44.36652569202227 15.164273615201571 -12.765436115788148
-54.502570778935215 16.166055803894427 -13.609342500416398
-62.3586896614497 16.397728593498787 -13.809357681009006
-70.06818834066235 16.557308623902557 -13.94996198811715
-75.74643843968735 16.2030099161251 -13.65075343742374
-79.70454977007418 15.555281210365644 -13.10728227860278
-81.24089691220493 14.555459026903192 -12.270597980084672
-81.42857442249239 13.467347531115513 -11.358393309496982
-80.93360667763888 12.41836917504384 -10.485413393829598
-77.8917122864466 11.152411726452145 -9.420671315582194
-75.7552313184537 10.17986223088398 -8.607178202162132
-73.07176362195867 9.2776353747196 -7.845745498572069
-59.871793504311285 7.216747717099219 -6.131889776581047
-47.613094999150924 5.484574507985917 -4.682800260816488
-34.86473967830724 3.861592451636586 -3.316378365896529
-26.819738489092245 2.8855244272972227 -2.4880118585959576

SCALARS mu float
LOOKUP_TABLE default
-0.04959274392718729
0.5372478087715616
1.3009928428336353
0.8613466073831259
0.656953382741556
0.6321214871937082
0.6872712130599485
0.7578682756832078
0.7373932716219005
0.7659703771380536
0.8498736830055117
0.9370120075870638
1.1583245056587457
1.2314523126531256
1.4242174560444032
1.4899295915340098
2.126367475127761
2.615670367084627
2.9493278679724524
3.160091533317123
-0.04959274392718729
0.5372478087715616
1.3009928428336353
0.8613466073831259
0.656953382741556
0.6321214871937082
0.6872712130599485
0.7578682756832078
0.7373932716219005
0.7659703771380536
0.8498736830055117
0.9370120075870638
1.1583245056587457
1.2314523126531256
1.4242174560444032
1.4899295915340098
2.126367475127761
2.615670367084627
2.9493278679724524
3.160091533317123