# vtk DataFile Version 4.0
[MyVLM domain - lattices] 
ASCII
DATASET UNSTRUCTURED_GRID
POINTS 62 float
0.00022673658128986117 0.009572696895257086 0.00953249999999991
-0.003724999406033424 0.010193598365867388 0.01932145833333318
-0.00549739299719125 0.011272443643222317 0.028698249999999786
-0.005451904080891177 0.012778971530094819 0.037662874999999714
-0.004354059046121628 0.01384837091093798 0.046215333333333
-0.0029556321221654493 0.014003176200856783 0.0543556249999996
-0.0016722727371407085 0.013530364128721141 0.062083749999999556
-0.0006485493516483927 0.012907294203932293 0.06939970833333285
0.0001374053121431227 0.01221335273049462 0.07630349999999947
0.0007511984436382017 0.01141651540636809 0.08279512499999943
0.0012455433643025467 0.01055657172131466 0.08887458333333272
0.0016598526811940704 0.009714711822837145 0.09454187499999936
0.002022453218220871 0.008982560626999472 0.09979699999999932
0.002352563731918074 0.008415224441117556 0.10463995833333264
0.002662053738196183 0.007958909429466988 0.10907074999999929
0.002957000443680671 0.007496015253946398 0.11308937499999924
0.0032390594424296184 0.00691280001252183 0.11669583333333254
0.0035066635059833096 0.006138329173825914 0.11989012499999918
0.0037560624618667195 0.00516051877043037 0.12267224999999918
0.003982215822832984 0.00402540614121461 0.12504220833333252
0.004179548496302947 0.002825080565776496 0.12699999999999917
0.008285994416043337 -0.005721730134920559 0.009532499999999949
0.007508437091591354 -0.003969538240973733 0.019321458333333215
0.00973309288421085 -0.0032636142307342557 0.02869824999999982
0.010440442308044806 -0.007056598455757918 0.03766287499999977
0.01004693542569484 -0.008743635055551549 0.04621533333333305
0.0094954698488839 -0.009221717647475878 0.05435562499999966
0.009038213335578684 -0.0092653996114628 0.06208374999999961
0.008539133039147835 -0.00899630244230193 0.06939970833333291
0.008012046218423283 -0.008462139875867608 0.07630349999999952
0.007469873605570215 -0.00775591582276747 0.08279512499999947
0.0069256484677951155 -0.0069537097512494045 0.08887458333333276
0.0064559301991455546 -0.006094328928426699 0.0945418749999994
0.006108090109537901 -0.005214201712214245 0.09979699999999936
0.005835591307912621 -0.0043679558618144425 0.10463995833333266
0.005646315885461864 -0.0035960199123260396 0.1090707499999993
0.005556570152728891 -0.002934541921411293 0.11308937499999926
0.005484703593381549 -0.0024311884335218394 0.11669583333333257
0.005393245002100456 -0.0021030713451157036 0.11989012499999918
0.005297730961761147 -0.0019361913096154922 0.12267224999999918
0.00521698140800628 -0.0019008688713603096 0.12504220833333252
0.005155604557614359 -0.001959564864450415 0.12699999999999917
0.005485628962270063 -0.0011634387333197996 0.014426979166666574
0.005312774690522743 -2.9176925754281816e-5 0.024009854166666508
0.006196413562335568 -0.0008636528607699235 0.033180562499999774
0.006457021259275767 -0.0025966697616119495 0.0419391041666664
0.006414690581931144 -0.0032555638746609382 0.05028547916666635
0.006371643086760199 -0.0034909764309047613 0.05821968749999962
0.006301402129423808 -0.0035434309785800917 0.06574172916666625
0.00614279921665101 -0.003406835002510213 0.0728516041666662
0.005916795403470228 -0.0031280373698803167 0.0795493124999995
0.005647913503504593 -0.002769473699295986 0.0858348541666661
0.005381266505789829 -0.0023591040618595625 0.09170822916666607
0.005171795853183163 -0.0019035399340107762 0.09716943749999936
0.005025757650311314 -0.0014185859567461296 0.10221847916666599
0.004932542381279714 -0.0009397241814796137 0.10685535416666594
0.00490346403705614 -0.0005170951022248258 0.11108006249999927
0.004914985140555201 -0.00021104697479139528 0.11489260416666588
0.0049224460918573685 -6.895626869561106e-5 0.11829297916666588
0.004916956732429355 -0.0001023675024921631 0.12128118749999921
0.004910301924250248 -0.00029065695391030326 0.12385722916666585
0.004909940276999731 -0.0005913518125551335 0.12602110416666584

CELLS 40 140
4 0 21 22 1
4 1 22 23 2
4 2 23 24 3
4 3 24 25 4
4 4 25 26 5
4 5 26 27 6
4 6 27 28 7
4 7 28 29 8
4 8 29 30 9
4 9 30 31 10
4 10 31 32 11
4 11 32 33 12
4 12 33 34 13
4 13 34 35 14
4 14 35 36 15
4 15 36 37 16
4 16 37 38 17
4 17 38 39 18
4 18 39 40 19
4 19 40 41 20
1 42
1 43
1 44
1 45
1 46
1 47
1 48
1 49
1 50
1 51
1 52
1 53
1 54
1 55
1 56
1 57
1 58
1 59
1 60
1 61

CELL_TYPES 40
9
9
9
9
9
9
9
9
9
9
9
9
9
9
9
9
9
9
9
9
1
1
1
1
1
1
1
1
1
1
1
1
1
1
1
1
1
1
1
1

CELL_DATA 40

VECTORS S float
2.2618065415889e-18 -2.077388249964085e-17 1.0903798274517851e-16
-1.13369702067822e-18 1.0586290723028419e-17 -5.448057535316974e-17
-7.37627085969362e-18 8.665272229281007e-17 -4.354906688468796e-16
0.0 -0.0 0.0
0.0 -0.0 0.0
0.0 -0.0 0.0
8.89649805764828e-18 -1.7811762571354188e-16 8.700895752469927e-16
1.620746240126872e-17 -3.5663429990235214e-16 1.7401129029978825e-15
0.0 -0.0 0.0
0.0 -0.0 0.0
0.0 -0.0 0.0
-2.7587256786159797e-18 8.855384691865736e-17 -4.351618456778927e-16
0.0 -0.0 0.0
2.31250480207936e-18 -8.781881141370806e-17 4.353133756142543e-16
2.13277629456566e-18 -8.740834074415038e-17 4.353968988622734e-16
0.0 -0.0 0.0
0.0 -0.0 0.0
1.99176436099173e-18 -8.625946873476268e-17 4.3562663283318635e-16
-1.0306476949938299e-18 4.296518224149608e-17 -2.178456734860646e-16
0.0 -0.0 0.0
2.2618065415889e-18 -2.077388249964085e-17 1.0903798274517851e-16
-1.13369702067822e-18 1.0586290723028419e-17 -5.448057535316974e-17
-7.37627085969362e-18 8.665272229281007e-17 -4.354906688468796e-16
0.0 -0.0 0.0
0.0 -0.0 0.0
0.0 -0.0 0.0
8.89649805764828e-18 -1.7811762571354188e-16 8.700895752469927e-16
1.620746240126872e-17 -3.5663429990235214e-16 1.7401129029978825e-15
0.0 -0.0 0.0
0.0 -0.0 0.0
0.0 -0.0 0.0
-2.7587256786159797e-18 8.855384691865736e-17 -4.351618456778927e-16
0.0 -0.0 0.0
2.31250480207936e-18 -8.781881141370806e-17 4.353133756142543e-16
2.13277629456566e-18 -8.740834074415038e-17 4.353968988622734e-16
0.0 -0.0 0.0
0.0 -0.0 0.0
1.99176436099173e-18 -8.625946873476268e-17 4.3562663283318635e-16
-1.0306476949938299e-18 4.296518224149608e-17 -2.178456734860646e-16
0.0 -0.0 0.0

SCALARS Gamma float
LOOKUP_TABLE default
0.11498243498862401
0.07950919252483377
0.4881989017522577
0.6480636535383825
0.7701784137893191
0.815561885423701
0.8269988338150857
0.839646953378551
0.8282952572635366
0.8058947860149187
0.764638810307438
0.7224995180140713
0.6819446032291221
0.6274604829400671
0.5866620450419573
0.5465903871098208
0.4345055805343013
0.33704153392290603
0.2420290351091702
0.18369416696203422
0.11498243498862401
0.07950919252483377
0.4881989017522577
0.6480636535383825
0.7701784137893191
0.815561885423701
0.8269988338150857
0.839646953378551
0.8282952572635366
0.8058947860149187
0.764638810307438
0.7224995180140713
0.6819446032291221
0.6274604829400671
0.5866620450419573
0.5465903871098208
0.4345055805343013
0.33704153392290603
0.2420290351091702
0.18369416696203422

VECTORS Ftot float
-1.902684114887827 -2.780859715030221 -0.49034059732507407
-1.9191284075993986 -2.2203494765819927 -0.3915075193233177
-17.69997795196339 -13.236036230786198 -2.3338703051223475
-30.482562233712855 -17.327921233476903 -3.0553800330530385
-43.91592736188512 -20.499569684702067 -3.6146272283262424
-54.13256674655949 -21.884845395871906 -3.8588887119255877
-62.21519044332025 -22.41119563212387 -3.951698459879083
-70.24518506013517 -22.858869777146754 -4.030635490212211
-75.95916769037977 -22.374246829052 -3.945183388992629
-79.99357255048339 -21.567986965847183 -3.803018021647305
-81.23935126418785 -20.3446867387081 -3.5873171860958943
-81.50743473983941 -19.018461761921316 -3.3534679401989296
-81.0370200042138 -17.94804496955474 -3.164724579101295
-78.07197506495366 -16.321907886329527 -2.8779927369981273
-75.9601419827973 -15.231681077976921 -2.6857563355938883
-73.28999266427762 -14.00960081131113 -2.470270611989317
-59.88915818268429 -11.983116860592855 -2.112946815505007
-47.54884521005478 -10.025267636087387 -1.7677251730655534
-34.79266774902224 -7.875707837296359 -1.3886997838924413
-26.83596580599555 -6.318689081829297 -1.1141553678344867
-1.902684114887827 -2.780859715030221 -0.49034059732507407
-1.9191284075993986 -2.2203494765819927 -0.3915075193233177
-17.69997795196339 -13.236036230786198 -2.3338703051223475
-30.482562233712855 -17.327921233476903 -3.0553800330530385
-43.91592736188512 -20.499569684702067 -3.6146272283262424
-54.13256674655949 -21.884845395871906 -3.8588887119255877
-62.21519044332025 -22.41119563212387 -3.951698459879083
-70.24518506013517 -22.858869777146754 -4.030635490212211
-75.95916769037977 -22.374246829052 -3.945183388992629
-79.99357255048339 -21.567986965847183 -3.803018021647305
-81.23935126418785 -20.3446867387081 -3.5873171860958943
-81.50743473983941 -19.018461761921316 -3.3534679401989296
-81.0370200042138 -17.94804496955474 -3.164724579101295
-78.07197506495366 -16.321907886329527 -2.8779927369981273
-75.9601419827973 -15.231681077976921 -2.6857563355938883
-73.28999266427762 -14.00960081131113 -2.470270611989317
-59.88915818268429 -11.983116860592855 -2.112946815505007
-47.54884521005478 -10.025267636087387 -1.7677251730655534
-34.79266774902224 -7.875707837296359 -1.3886997838924413
-26.83596580599555 -6.318689081829297 -1.1141553678344867

VECTORS D float
-0.021703130015202115 0.014054002723822552 0.0031277585488047846
0.25215290698536597 -0.27094438142460003 -0.05789514832561449
0.7690195970771762 -1.1321708382041316 -0.23830173525913867
0.5789887531316416 -1.0671347635384143 -0.223083319114136
0.45101733463005306 -0.989570085316252 -0.20649091151226553
0.4228805229514557 -1.069371661525653 -0.22304546229321406
0.43631866654343576 -1.2462886823063166 -0.25959130604611824
0.4495783629558269 -1.4314372802744564 -0.29755894334602734
0.4019102144303161 -1.4131093174094786 -0.29294901834554227
0.37504178422986545 -1.445916032296423 -0.2987074111558566
0.37003007834096857 -1.5513099563221089 -0.3193323427529298
0.35722342613284275 -1.6234021040765807 -0.3326210335031057
0.38700488585774334 -1.8962078905502657 -0.38653827082239134
0.36119543561921413 -1.897514551885512 -0.38471764973875355
0.367468287120219 -2.057500407486906 -0.41485464141478623
0.33829754910892434 -2.005693388869616 -0.402400739857819
0.42155740790688306 -2.628855334547146 -0.5247710084691076
0.44448099601476126 -2.895919986562345 -0.5754602727474741
0.4188717654893155 -2.8324969271715195 -0.5606283289432147
0.36412201934671024 -2.539273561351193 -0.5009123115111233
-0.021703130015202115 0.014054002723822552 0.0031277585488047846
0.25215290698536597 -0.27094438142460003 -0.05789514832561449
0.7690195970771762 -1.1321708382041316 -0.23830173525913867
0.5789887531316416 -1.0671347635384143 -0.223083319114136
0.45101733463005306 -0.989570085316252 -0.20649091151226553
0.4228805229514557 -1.069371661525653 -0.22304546229321406
0.43631866654343576 -1.2462886823063166 -0.25959130604611824
0.4495783629558269 -1.4314372802744564 -0.29755894334602734
0.4019102144303161 -1.4131093174094786 -0.29294901834554227
0.37504178422986545 -1.445916032296423 -0.2987074111558566
0.37003007834096857 -1.5513099563221089 -0.3193323427529298
0.35722342613284275 -1.6234021040765807 -0.3326210335031057
0.38700488585774334 -1.8962078905502657 -0.38653827082239134
0.36119543561921413 -1.897514551885512 -0.38471764973875355
0.367468287120219 -2.057500407486906 -0.41485464141478623
0.33829754910892434 -2.005693388869616 -0.402400739857819
0.42155740790688306 -2.628855334547146 -0.5247710084691076
0.44448099601476126 -2.895919986562345 -0.5754602727474741
0.4188717654893155 -2.8324969271715195 -0.5606283289432147
0.36412201934671024 -2.539273561351193 -0.5009123115111233

VECTORS L float
-1.8809809848726253 -2.794913717754044 -0.493468355873879
-2.171281314584765 -1.9494050951573934 -0.3336123709977032
-18.468997549040566 -12.103865392582067 -2.0955685698632087
-31.0615509868445 -16.260786469938488 -2.832296713938903
-44.36694469651518 -19.50999959938582 -3.4081363168139784
-54.55544726951094 -20.815473734346252 -3.6358432496323734
-62.6515091098637 -21.164906949817563 -3.6921071538329673
-70.694763423091 -21.427432496872303 -3.7330765468661844
-76.36107790481009 -20.961137511642523 -3.652234370647087
-80.36861433471326 -20.122070933550763 -3.504310610491449
-81.60938134252882 -18.793376782385987 -3.267984843342964
-81.86465816597224 -17.395059657844733 -3.020846906695824
-81.42402489007156 -16.05183707900448 -2.778186308278905
-78.43317050057288 -14.424393334444016 -2.4932750872593736
-76.32761026991753 -13.174180670490015 -2.2709016941791025
-73.62829021338656 -12.00390742244152 -2.067869872131499
-60.31071559059117 -9.354261526045708 -1.5881758070358993
-47.99332620606954 -7.129347649525043 -1.1922649003180799
-35.21153951451156 -5.043210910124839 -0.8280714549492264
-27.200087825342262 -3.7794155204781053 -0.6132430563233635
-1.8809809848726253 -2.794913717754044 -0.493468355873879
-2.171281314584765 -1.9494050951573934 -0.3336123709977032
-18.468997549040566 -12.103865392582067 -2.0955685698632087
-31.0615509868445 -16.260786469938488 -2.832296713938903
-44.36694469651518 -19.50999959938582 -3.4081363168139784
-54.55544726951094 -20.815473734346252 -3.6358432496323734
-62.6515091098637 -21.164906949817563 -3.6921071538329673
-70.694763423091 -21.427432496872303 -3.7330765468661844
-76.36107790481009 -20.961137511642523 -3.652234370647087
-80.36861433471326 -20.122070933550763 -3.504310610491449
-81.60938134252882 -18.793376782385987 -3.267984843342964
-81.86465816597224 -17.395059657844733 -3.020846906695824
-81.42402489007156 -16.05183707900448 -2.778186308278905
-78.43317050057288 -14.424393334444016 -2.4932750872593736
-76.32761026991753 -13.174180670490015 -2.2709016941791025
-73.62829021338656 -12.00390742244152 -2.067869872131499
-60.31071559059117 -9.354261526045708 -1.5881758070358993
-47.99332620606954 -7.129347649525043 -1.1922649003180799
-35.21153951451156 -5.043210910124839 -0.8280714549492264
-27.200087825342262 -3.7794155204781053 -0.6132430563233635

SCALARS mu float
LOOKUP_TABLE default
-0.04916688002389156
0.536890731989419
1.3004548417709885
0.8610634361410703
0.6570563687290699
0.6325098792171536
0.6860540036787153
0.7560679734435555
0.736833863659376
0.7640758590199176
0.849671514951973
0.9354655613053866
1.158238660354075
1.2311119310727974
1.4222160396131318
1.4899523341946033
2.133323715011705
2.6303167180838747
2.9701834833969056
3.1844719045119145
-0.04916688002389156
0.536890731989419
1.3004548417709885
0.8610634361410703
0.6570563687290699
0.6325098792171536
0.6860540036787153
0.7560679734435555
0.736833863659376
0.7640758590199176
0.849671514951973
0.9354655613053866
1.158238660354075
1.2311119310727974
1.4222160396131318
1.4899523341946033
2.133323715011705
2.6303167180838747
2.9701834833969056
3.1844719045119145