# vtk DataFile Version 4.0
[MyVLM domain - lattices] 
ASCII
DATASET UNSTRUCTURED_GRID
POINTS 62 float
0.00022673658128986117 0.013455529609587756 -0.0012057383729371712
-0.003724999406033424 0.021353414516905398 0.004610844634181837
-0.00549739299719125 0.029229922044492304 0.009811686706424233
-0.005451904080891177 0.03706560066971664 0.014419969265767931
-0.004354059046121628 0.04430456052278567 0.01909817606162518
-0.0029556321221654493 0.050639892641677106 0.024212066952085356
-0.0016722727371407085 0.05625606211197693 0.029541805008693203
-0.0006485493516483927 0.06145990971169428 0.0347217116319019
0.0001374053121431227 0.066302463973422 0.039690973384669134
0.0007511984436382017 0.07076314007259991 0.04447412230561743
0.0012455433643025467 0.07486751420024271 0.0490406778772201
0.0016598526811940704 0.07866777437719387 0.053328444838146624
0.002022453218220871 0.08222281596423782 0.05726723443059494
0.002352563731918074 0.08556806061293284 0.060814832774064936
0.002662053738196183 0.08866893031219773 0.06401244833748733
0.002957000443680671 0.09144983302180602 0.06695016820637358
0.0032390594424296184 0.09383765685642809 0.06971512373272658
0.0035066635059833096 0.09578680597820204 0.07236165392012558
0.0037560624618667195 0.09728951296258916 0.07489901562466983
0.003982215822832984 0.09837537004060407 0.07729194219873478
0.004179548496302947 0.09910357106015721 0.07946988916141363
0.008285994416043337 0.003624461417334559 0.010510472464219264
0.007508437091591354 0.012249525791729964 0.015460436728987599
0.00973309288421085 0.01988632414942645 0.020946953065624684
0.010440442308044806 0.02431554205174015 0.029614897429528206
0.01004693542569484 0.02978269900956166 0.03640465669116551
0.0094954698488839 0.035711218639683566 0.042003367826628966
0.009038213335578684 0.04160322762644483 0.04700437314851444
0.008539133039147835 0.04738054917992312 0.05150084012706933
0.008012046218423283 0.053012513501886564 0.055529319604520656
0.007469873605570215 0.05843933883094416 0.059161056709777685
0.0069256484677951155 0.06361212222755462 0.06245433169672718
0.0064559301991455546 0.06850591886125178 0.06543887265669392
0.006108090109537901 0.07309731303492666 0.06814258533083054
0.005835591307912621 0.07735119070181903 0.07060731701051409
0.005646315885461864 0.08124156490048966 0.07286403775040043
0.005556570152728891 0.08474520010735899 0.07494043856919123
0.005484703593381549 0.08783145685825695 0.07687303415838637
0.005393245002100456 0.09048933583816209 0.07867493299117875
0.005297730961761147 0.09272783565359806 0.08033541094591548
0.00521698140800628 0.09456603389092592 0.08183173224051271
0.005155604557614359 0.096028060260864 0.08313514020553361
0.005485628962270063 0.01030386321921084 0.010164729230108156
0.005312774690522743 0.01837386079810837 0.015455587590555363
0.006196413562335568 0.024862640164713592 0.021989650932206353
0.006457021259275767 0.03045811054705097 0.028947100961184285
0.006414690581931144 0.03642827576402481 0.03481678957088674
0.006371643086760199 0.042354911694004904 0.040097136860776095
0.006301402129423808 0.04808341278034689 0.04497239455841831
0.00614279921665101 0.05361769521631816 0.04943789552641762
0.005916795403470228 0.058927645130564255 0.053529528079147695
0.005647913503504593 0.06397312968104236 0.05729512067529401
0.005381266505789829 0.06873617648048197 0.06075609197195375
0.005171795853183163 0.07321253575374587 0.06391750665391438
0.005025757650311314 0.07739204847342597 0.06679147177858674
0.004932542381279714 0.08125190721650707 0.06940516817428698
0.00490346403705614 0.08475988229469371 0.07179700568782947
0.004914985140555201 0.08787718259688523 0.07401321376522911
0.0049224460918573685 0.09057335511548592 0.07609008488769345
0.004916956732429355 0.09284097917700895 0.07803646266950977
0.004910301924250248 0.09469331145459564 0.07983654842283613
0.004909940276999731 0.09615765294451638 0.08145780608728592

CELLS 40 140
4 0 21 22 1
4 1 22 23 2
4 2 23 24 3
4 3 24 25 4
4 4 25 26 5
4 5 26 27 6
4 6 27 28 7
4 7 28 29 8
4 8 29 30 9
4 9 30 31 10
4 10 31 32 11
4 11 32 33 12
4 12 33 34 13
4 13 34 35 14
4 14 35 36 15
4 15 36 37 16
4 16 37 38 17
4 17 38 39 18
4 18 39 40 19
4 19 40 41 20
1 42
1 43
1 44
1 45
1 46
1 47
1 48
1 49
1 50
1 51
1 52
1 53
1 54
1 55
1 56
1 57
1 58
1 59
1 60
1 61

CELL_TYPES 40
9
9
9
9
9
9
9
9
9
9
9
9
9
9
9
9
9
9
9
9
1
1
1
1
1
1
1
1
1
1
1
1
1
1
1
1
1
1
1
1

CELL_DATA 40

VECTORS S float
4.19993624961971e-18 1.4050304423661078e-16 1.7188676991571328e-16
-3.9526952788592e-18 -1.4000486596227957e-16 -1.7229863691634317e-16
0.0 0.0 0.0
2.0955135175577638e-17 1.1134128709549928e-15 1.3839495229182245e-15
0.0 0.0 0.0
1.6114803382894428e-17 1.1111203160456406e-15 1.3858555398260722e-15
1.457492882428091e-17 1.1106667212125912e-15 1.3862361367114502e-15
-2.6604462763056338e-17 -2.22078546507972e-15 -2.772936819364612e-15
-1.21038168934552e-17 -1.1102876034756154e-15 -1.3865635780839736e-15
0.0 0.0 0.0
0.0 0.0 0.0
1.854321562009616e-17 2.2223552648185673e-15 2.771744524595269e-15
0.0 0.0 0.0
3.9098724936859695e-18 5.565333194393706e-16 6.92182261020817e-16
-3.6150130522099195e-18 -5.570636112234939e-16 -6.917571611138435e-16
0.0 0.0 0.0
3.3393698485155998e-18 5.58131659579655e-16 6.908971011698389e-16
3.38879539186337e-18 5.58625223116219e-16 6.904978503841691e-16
0.0 0.0 0.0
-1.76825042776644e-18 -2.797163005180947e-16 -3.449215719843405e-16
4.19993624961971e-18 1.4050304423661078e-16 1.7188676991571328e-16
-3.9526952788592e-18 -1.4000486596227957e-16 -1.7229863691634317e-16
0.0 0.0 0.0
2.0955135175577638e-17 1.1134128709549928e-15 1.3839495229182245e-15
0.0 0.0 0.0
1.6114803382894428e-17 1.1111203160456406e-15 1.3858555398260722e-15
1.457492882428091e-17 1.1106667212125912e-15 1.3862361367114502e-15
-2.6604462763056338e-17 -2.22078546507972e-15 -2.772936819364612e-15
-1.21038168934552e-17 -1.1102876034756154e-15 -1.3865635780839736e-15
0.0 0.0 0.0
0.0 0.0 0.0
1.854321562009616e-17 2.2223552648185673e-15 2.771744524595269e-15
0.0 0.0 0.0
3.9098724936859695e-18 5.565333194393706e-16 6.92182261020817e-16
-3.6150130522099195e-18 -5.570636112234939e-16 -6.917571611138435e-16
0.0 0.0 0.0
3.3393698485155998e-18 5.58131659579655e-16 6.908971011698389e-16
3.38879539186337e-18 5.58625223116219e-16 6.904978503841691e-16
0.0 0.0 0.0
-1.76825042776644e-18 -2.797163005180947e-16 -3.449215719843405e-16

SCALARS Gamma float
LOOKUP_TABLE default
0.12365095258515274
0.08932506084714353
0.4944508724078345
0.656493569876017
0.778831887196138
0.8226898704279981
0.8330947152491258
0.8438408661297153
0.831546639025571
0.8065214917590856
0.767831015858735
0.731746690283547
0.6891750085917423
0.6334281764853106
0.5914281934590456
0.5502379263758963
0.4367430365895994
0.33842425830562245
0.24367736958759187
0.18481368212648558
0.12365095258515274
0.08932506084714353
0.4944508724078345
0.656493569876017
0.778831887196138
0.8226898704279981
0.8330947152491258
0.8438408661297153
0.831546639025571
0.8065214917590856
0.767831015858735
0.731746690283547
0.6891750085917423
0.6334281764853106
0.5914281934590456
0.5502379263758963
0.4367430365895994
0.33842425830562245
0.24367736958759187
0.18481368212648558

VECTORS Ftot float
-2.0107696505688146 -2.2658762544147564 1.9012959293727822
-2.1641906595433085 -1.8715060904879595 1.570380070274483
-17.730326481371197 -10.241775989429682 8.593870455330785
-30.601828339132698 -13.399150860764712 11.243222545356424
-44.06879379890858 -15.828493313114766 13.281682901126667
-54.199423053967 -16.877365358746847 14.161791047768705
-62.23385521782201 -17.269485859851716 14.490819215622855
-70.1212993038537 -17.601953707286206 14.76979286378344
-75.76409637555687 -17.244826452465873 14.470127515980344
-79.55923882958945 -16.601958665764798 13.930697393263715
-81.10323524138443 -15.688949243552605 13.164591523824079
-82.30113786775638 -14.757380285233522 12.382912354482334
-81.66094747285042 -13.920761959107663 11.680906225593974
-78.60042768585173 -12.65902763775705 10.622185421904955
-76.38144235716544 -11.805259361780665 9.905788776422307
-73.5998505418884 -10.855134502450616 9.108539357386096
-60.057816610129876 -9.285033236571739 7.791067964276147
-47.63716701379449 -7.771918806603013 6.521414204160367
-34.95530685623609 -6.123007377776746 5.1378132323882415
-26.944770724135957 -4.908190989885183 4.118461249360314
-2.0107696505688146 -2.2658762544147564 1.9012959293727822
-2.1641906595433085 -1.8715060904879595 1.570380070274483
-17.730326481371197 -10.241775989429682 8.593870455330785
-30.601828339132698 -13.399150860764712 11.243222545356424
-44.06879379890858 -15.828493313114766 13.281682901126667
-54.199423053967 -16.877365358746847 14.161791047768705
-62.23385521782201 -17.269485859851716 14.490819215622855
-70.1212993038537 -17.601953707286206 14.76979286378344
-75.76409637555687 -17.244826452465873 14.470127515980344
-79.55923882958945 -16.601958665764798 13.930697393263715
-81.10323524138443 -15.688949243552605 13.164591523824079
-82.30113786775638 -14.757380285233522 12.382912354482334
-81.66094747285042 -13.920761959107663 11.680906225593974
-78.60042768585173 -12.65902763775705 10.622185421904955
-76.38144235716544 -11.805259361780665 9.905788776422307
-73.5998505418884 -10.855134502450616 9.108539357386096
-60.057816610129876 -9.285033236571739 7.791067964276147
-47.63716701379449 -7.771918806603013 6.521414204160367
-34.95530685623609 -6.123007377776746 5.1378132323882415
-26.944770724135957 -4.908190989885183 4.118461249360314

VECTORS D float
-0.019068246888922946 0.010130922203830486 -0.00781526111576647
0.24784749428217442 -0.2169735835635695 0.17062057129285566
0.7951627163492875 -0.9502902871199994 0.7525759549036325
0.5889007072014142 -0.8789977142650423 0.6982529772044426
0.4442230812037184 -0.7876049096443216 0.6264135300251574
0.4162651997877656 -0.849472724242007 0.6762309223801383
0.4232467428884855 -0.9742270379163316 0.7761107435265375
0.437369344582588 -1.1204344579212064 0.8931355972444146
0.393477890593443 -1.1111435521699597 0.886310838349725
0.3675110216739282 -1.135742052033607 0.9066562995190817
0.3629986448040065 -1.2197354421835933 0.9784490568910724
0.3489238108746993 -1.2778745786166177 1.0222519077656158
0.3805283556638602 -1.49961667987504 1.2016233774642169
0.3554816227145006 -1.49932794050294 1.2034923671824367
0.3613308955970905 -1.6215463383852289 1.303923246231369
0.3337948787727218 -1.5839292096898174 1.2759114053979277
0.417976712749367 -2.083682086342819 1.6812534892506907
0.4419871038126176 -2.299765465896969 1.8583826031132078
0.4171840295631808 -2.2511726190817947 1.8215035698499529
0.3619993183654315 -2.013194595690082 1.6307569162575806
-0.019068246888922946 0.010130922203830486 -0.00781526111576647
0.24784749428217442 -0.2169735835635695 0.17062057129285566
0.7951627163492875 -0.9502902871199994 0.7525759549036325
0.5889007072014142 -0.8789977142650423 0.6982529772044426
0.4442230812037184 -0.7876049096443216 0.6264135300251574
0.4162651997877656 -0.849472724242007 0.6762309223801383
0.4232467428884855 -0.9742270379163316 0.7761107435265375
0.437369344582588 -1.1204344579212064 0.8931355972444146
0.393477890593443 -1.1111435521699597 0.886310838349725
0.3675110216739282 -1.135742052033607 0.9066562995190817
0.3629986448040065 -1.2197354421835933 0.9784490568910724
0.3489238108746993 -1.2778745786166177 1.0222519077656158
0.3805283556638602 -1.49961667987504 1.2016233774642169
0.3554816227145006 -1.49932794050294 1.2034923671824367
0.3613308955970905 -1.6215463383852289 1.303923246231369
0.3337948787727218 -1.5839292096898174 1.2759114053979277
0.417976712749367 -2.083682086342819 1.6812534892506907
0.4419871038126176 -2.299765465896969 1.8583826031132078
0.4171840295631808 -2.2511726190817947 1.8215035698499529
0.3619993183654315 -2.013194595690082 1.6307569162575806

VECTORS L float
-1.9917014036798923 -2.276007176618587 1.909111190488549
-2.412038153825483 -1.6545325069243901 1.399759498981627
-18.525489197720486 -9.291485702309682 7.841294500427153
-31.19072904633412 -12.520153146499672 10.544969568151982
-44.51301688011231 -15.040888403470447 12.655269371101515
-54.61568825375478 -16.027892634504845 13.485560125388572
-62.65710196071049 -16.295258821935384 13.714708472096314
-70.55866864843628 -16.481519249364997 13.876657266539024
-76.15757426615032 -16.133682900295913 13.58381667763062
-79.9267498512634 -15.46621661373119 13.024041093744634
-81.46623388618843 -14.46921380136901 12.186142466933006
-82.65006167863108 -13.479505706616902 11.360660446716714
-82.04147582851428 -12.421145279232626 10.47928284812976
-78.95590930856625 -11.159699697254117 9.41869305472252
-76.74277325276253 -10.183713023395436 8.60186553019094
-73.93364542066114 -9.271205292760799 7.83262795198817
-60.47579332287924 -7.20135115022892 6.109814475025457
-48.07915411760711 -5.472153340706044 4.663031601047158
-35.37249088579927 -3.8718347586949515 3.3163096625382895
-27.30677004250139 -2.8949963941951014 2.4877043331027333
-1.9917014036798923 -2.276007176618587 1.909111190488549
-2.412038153825483 -1.6545325069243901 1.399759498981627
-18.525489197720486 -9.291485702309682 7.841294500427153
-31.19072904633412 -12.520153146499672 10.544969568151982
-44.51301688011231 -15.040888403470447 12.655269371101515
-54.61568825375478 -16.027892634504845 13.485560125388572
-62.65710196071049 -16.295258821935384 13.714708472096314
-70.55866864843628 -16.481519249364997 13.876657266539024
-76.15757426615032 -16.133682900295913 13.58381667763062
-79.9267498512634 -15.46621661373119 13.024041093744634
-81.46623388618843 -14.46921380136901 12.186142466933006
-82.65006167863108 -13.479505706616902 11.360660446716714
-82.04147582851428 -12.421145279232626 10.47928284812976
-78.95590930856625 -11.159699697254117 9.41869305472252
-76.74277325276253 -10.183713023395436 8.60186553019094
-73.93364542066114 -9.271205292760799 7.83262795198817
-60.47579332287924 -7.20135115022892 6.109814475025457
-48.07915411760711 -5.472153340706044 4.663031601047158
-35.37249088579927 -3.8718347586949515 3.3163096625382895
-27.30677004250139 -2.8949963941951014 2.4877043331027333

SCALARS mu float
LOOKUP_TABLE default
-0.044378376590035934
0.5409442176367607
1.3757034222201154
0.8943888739240401
0.6592201405504716
0.6334053309603856
0.6760651667280908
0.7460237997013807
0.7304021885552598
0.7567326788162737
0.843723453978228
0.926636529802397
1.1534724460318757
1.2258679443069163
1.413589802992973
1.4850139806844018
2.135651154851508
2.6400150058149783
2.985253862683359
3.1944121542823867
-0.044378376590035934
0.5409442176367607
1.3757034222201154
0.8943888739240401
0.6592201405504716
0.6334053309603856
0.6760651667280908
0.7460237997013807
0.7304021885552598
0.7567326788162737
0.843723453978228
0.926636529802397
1.1534724460318757
1.2258679443069163
1.413589802992973
1.4850139806844018
2.135651154851508
2.6400150058149783
2.985253862683359
3.1944121542823867