# vtk DataFile Version 4.0
[MyVLM domain - lattices] 
ASCII
DATASET UNSTRUCTURED_GRID
POINTS 62 float
0.00022673658128986117 0.013041735609203752 -0.003523948694021151
-0.003724999406033424 0.021829672937762928 0.0008328140258498927
-0.00549739299719125 0.03048963536576794 0.004586902442241003
-0.005451904080891177 0.03900649229460525 0.007764523520699734
-0.004354059046121628 0.046947838166501416 0.011114625656764882
-0.0029556321221654493 0.05407494018900889 0.015050706176388337
-0.0016722727371407085 0.06053128672656267 0.01932423594207379
-0.0006485493516483927 0.06655555753386334 0.023521809491941686
0.0001374053121431227 0.07218744576291314 0.027574676270011683
0.0007511984436382017 0.077410939262692 0.031510570135388896
0.0012455433643025467 0.08224593277808093 0.035295032379135866
0.0016598526811940704 0.08673302138283134 0.03885775027097814
0.002022453218220871 0.09091801753497519 0.04211937430598474
0.002352563731918074 0.09482847438817042 0.04503218102211133
0.002662053738196183 0.09843749502455484 0.047642757247662273
0.002957000443680671 0.10168627927507777 0.05005294786292697
0.0032390594424296184 0.10451795618872223 0.052361256244541604
0.0035066635059833096 0.10689705849980452 0.05462911349867585
0.0037560624618667195 0.10881754422461051 0.056866984648101124
0.003982215822832984 0.11030243203257993 0.059035000187825204
0.004179548496302947 0.11139776656351166 0.06105340846230013
0.008285994416043337 0.005394522094114814 0.009721413650440262
0.007508437091591354 0.01474810463434226 0.013098450124643815
0.00973309288421085 0.023221606428789544 0.01717549783196839
0.010440442308044806 0.02908870730167873 0.024942631026992585
0.01004693542569484 0.03565183518325647 0.030679876746194698
0.0094954698488839 0.04246249326484239 0.03516405424924164
0.009038213335578684 0.049133404856470525 0.03906594643974153
0.008539133039147835 0.05560375921074607 0.042490880621828424
0.008012046218423283 0.061849699459731865 0.04548017810287896
0.007469873605570215 0.06782472364812409 0.04811438263213064
0.0069256484677951155 0.07349079204179876 0.050459380961792547
0.0064559301991455546 0.0788285010071993 0.05254878117103624
0.006108090109537901 0.08381963636536822 0.054414131143234186
0.005835591307912621 0.08843688423670432 0.05610273990560746
0.005646315885461864 0.09266003035365825 0.05764961959658937
0.005556570152728891 0.09647100068739886 0.05908607535241292
0.005484703593381549 0.09984596196570032 0.060453387611483805
0.005393245002100456 0.10277635824033367 0.06176637571084165
0.005297730961761147 0.10526918918458751 0.06301291586071402
0.00521698140800628 0.10733929452629243 0.06416730489852811
0.005155604557614359 0.10900544384839816 0.06519703295297782
0.005485628962270063 0.011912411091542239 0.008221057082135122
0.005312774690522743 0.020778555186615786 0.012030195042240939
0.006196413562335568 0.028303383606472245 0.017338226567477955
0.006457021259275767 0.03502199473948903 0.02321833406212831
0.006414690581931144 0.041920720462475865 0.02796214060243278
0.006371643086760199 0.048674240159938785 0.032133118023176456
0.006301402129423808 0.055162292057759486 0.03593956582734067
0.00614279921665101 0.06138792241352628 0.039376207742009436
0.005916795403470228 0.06732770679364662 0.04248361607630367
0.005647913503504593 0.07295042738881767 0.045315861662036785
0.005381266505789829 0.07824210416348831 0.04789715863107505
0.005171795853183163 0.08319943137943864 0.05023323268997177
0.005025757650311314 0.08781450671617042 0.05233777105932763
0.004932542381279714 0.09206958914797661 0.05424150209704551
0.00490346403705614 0.09593960842785049 0.05598784874469952
0.004914985140555201 0.09939439042788718 0.05762907412489484
0.0049224460918573685 0.10241024691332859 0.05920620746377423
0.004916956732429355 0.10498140562489734 0.0607292466076805
0.004910301924250248 0.10711817842372877 0.06218033088920658
0.004909940276999731 0.10884180171502042 0.06352267777558039

CELLS 40 140
4 0 21 22 1
4 1 22 23 2
4 2 23 24 3
4 3 24 25 4
4 4 25 26 5
4 5 26 27 6
4 6 27 28 7
4 7 28 29 8
4 8 29 30 9
4 9 30 31 10
4 10 31 32 11
4 11 32 33 12
4 12 33 34 13
4 13 34 35 14
4 14 35 36 15
4 15 36 37 16
4 16 37 38 17
4 17 38 39 18
4 18 39 40 19
4 19 40 41 20
1 42
1 43
1 44
1 45
1 46
1 47
1 48
1 49
1 50
1 51
1 52
1 53
1 54
1 55
1 56
1 57
1 58
1 59
1 60
1 61

CELL_TYPES 40
9
9
9
9
9
9
9
9
9
9
9
9
9
9
9
9
9
9
9
9
1
1
1
1
1
1
1
1
1
1
1
1
1
1
1
1
1
1
1
1

CELL_DATA 40

VECTORS S float
1.79085764566007e-18 3.3923702166110767e-16 2.8658377879539355e-16
3.3308368123703e-19 -3.4043498389658543e-16 -2.851651049827904e-16
-0.0 0.0 0.0
-0.0 0.0 0.0
-0.0 0.0 0.0
-0.0 0.0 0.0
-7.9427070697497995e-19 1.3623669785093941e-15 1.139911929003849e-15
-4.2478660269600997e-19 1.3617114439976123e-15 1.1406951318061837e-15
-0.0 0.0 0.0
-1.3119740358387e-19 -1.360423577079328e-15 -1.1422308412041647e-15
0.0 0.0 0.0
0.0 0.0 0.0
0.0 0.0 0.0
0.0 0.0 0.0
-3.0332573706171997e-19 -1.3597264344570114e-15 -1.1430606074554256e-15
0.0 0.0 0.0
0.0 0.0 0.0
1.5405677131991e-19 6.798983374865346e-16 5.714885232185937e-16
1.6335432917398e-19 6.799061176525141e-16 5.714792644664029e-16
0.0 0.0 0.0
1.79085764566007e-18 3.3923702166110767e-16 2.8658377879539355e-16
3.3308368123703e-19 -3.4043498389658543e-16 -2.851651049827904e-16
-0.0 0.0 0.0
-0.0 0.0 0.0
-0.0 0.0 0.0
-0.0 0.0 0.0
-7.9427070697497995e-19 1.3623669785093941e-15 1.139911929003849e-15
-4.2478660269600997e-19 1.3617114439976123e-15 1.1406951318061837e-15
-0.0 0.0 0.0
-1.3119740358387e-19 -1.360423577079328e-15 -1.1422308412041647e-15
0.0 0.0 0.0
0.0 0.0 0.0
0.0 0.0 0.0
0.0 0.0 0.0
-3.0332573706171997e-19 -1.3597264344570114e-15 -1.1430606074554256e-15
0.0 0.0 0.0
0.0 0.0 0.0
1.5405677131991e-19 6.798983374865346e-16 5.714885232185937e-16
1.6335432917398e-19 6.799061176525141e-16 5.714792644664029e-16
0.0 0.0 0.0

SCALARS Gamma float
LOOKUP_TABLE default
0.36135774895049627
0.21829152590009232
0.627018564296149
0.8097852293667134
0.9533557385067665
0.9948058999293726
0.9953742471508472
0.9879843486895499
0.974240980936357
0.9329650644391669
0.8795056492323002
0.8164238882841803
0.7610202265631342
0.6960435469540577
0.6446911865411004
0.5932191104633862
0.4654361942038695
0.35891023151349444
0.2615005823969443
0.1975126572510276
0.36135774895049627
0.21829152590009232
0.627018564296149
0.8097852293667134
0.9533557385067665
0.9948058999293726
0.9953742471508472
0.9879843486895499
0.974240980936357
0.9329650644391669
0.8795056492323002
0.8164238882841803
0.7610202265631342
0.6960435469540577
0.6446911865411004
0.5932191104633862
0.4654361942038695
0.35891023151349444
0.2615005823969443
0.1975126572510276

VECTORS Ftot float
-5.914509551956507 -4.604783739252362 5.487767564373396
-5.609189366178843 -3.1750251831705425 3.783847668620579
-22.348230154769617 -10.135476161282984 12.078990127861955
-37.930282247347385 -12.705529941442865 15.14186095352782
-54.59416126059892 -14.498733950691014 17.278918273803637
-66.38242948431426 -15.26564861377837 18.19289157875117
-75.31999977685177 -15.447175835136486 18.409227296958353
-83.12544694137178 -15.460495905095158 18.425101538185203
-89.74282070379454 -15.33570704983078 18.276383971608166
-92.97897387797966 -14.624312827401782 17.428577351277642
-93.82351935138054 -13.801292561260814 16.447739992326298
-92.45068737474418 -12.733674030405055 15.175401772658796
-90.74724566096738 -11.961129223804337 14.254718723952394
-86.91576766117738 -10.885478628143488 12.97280826219748
-83.76144109004238 -10.081538980942558 12.01471029941685
-79.78862917621034 -9.242165648948177 11.014384115484775
-64.34626838557976 -7.904190758980731 9.41984773356523
-50.783427330816075 -6.657399540016004 7.933979819149103
-37.71094620551961 -5.327325073055801 6.348858794731455
-28.95355863049726 -4.2488275928527734 5.063555548095697
-5.914509551956507 -4.604783739252362 5.487767564373396
-5.609189366178843 -3.1750251831705425 3.783847668620579
-22.348230154769617 -10.135476161282984 12.078990127861955
-37.930282247347385 -12.705529941442865 15.14186095352782
-54.59416126059892 -14.498733950691014 17.278918273803637
-66.38242948431426 -15.26564861377837 18.19289157875117
-75.31999977685177 -15.447175835136486 18.409227296958353
-83.12544694137178 -15.460495905095158 18.425101538185203
-89.74282070379454 -15.33570704983078 18.276383971608166
-92.97897387797966 -14.624312827401782 17.428577351277642
-93.82351935138054 -13.801292561260814 16.447739992326298
-92.45068737474418 -12.733674030405055 15.175401772658796
-90.74724566096738 -11.961129223804337 14.254718723952394
-86.91576766117738 -10.885478628143488 12.97280826219748
-83.76144109004238 -10.081538980942558 12.01471029941685
-79.78862917621034 -9.242165648948177 11.014384115484775
-64.34626838557976 -7.904190758980731 9.41984773356523
-50.783427330816075 -6.657399540016004 7.933979819149103
-37.71094620551961 -5.327325073055801 6.348858794731455
-28.95355863049726 -4.2488275928527734 5.063555548095697

VECTORS D float
0.008017922626715234 -0.0043064764509629745 0.005047589549975131
0.36177779210508443 -0.31118716710359584 0.3719231373239775
1.4221734324937303 -1.6376185011916153 1.9668898669537944
0.9898872124250074 -1.402610891531501 1.684844545021648
0.521027117296877 -0.8674466675378487 1.0402380461314495
0.4088466354571672 -0.7767345231888043 0.929930176382045
0.3654602772404606 -0.7777139587965873 0.9297403278420139
0.35165475811001917 -0.8280697769656387 0.9886440631748881
0.3600290174327758 -0.9303309304459615 1.108952963022487
0.3264969883790839 -0.9187067636403355 1.094163684815104
0.33484592172029803 -1.0199296108854987 1.213906826016879
0.3163147243614952 -1.037579021842887 1.2343349390579454
0.35303172445478415 -1.2408663314055552 1.4757775711800165
0.3317516982120718 -1.241195201389923 1.4764775697809371
0.33119983100565936 -1.3137272544983845 1.562654860577799
0.314927799753712 -1.3162836546153387 1.5657410143416575
0.40812024941330005 -1.7860984948056977 2.124711888105666
0.44071023736021475 -2.0068597325374724 2.3874367478815754
0.4205300541090079 -1.9803912496284697 2.3560109951148944
0.36071051368273105 -1.7464317074734006 2.0776884273227862
0.008017922626715234 -0.0043064764509629745 0.005047589549975131
0.36177779210508443 -0.31118716710359584 0.3719231373239775
1.4221734324937303 -1.6376185011916153 1.9668898669537944
0.9898872124250074 -1.402610891531501 1.684844545021648
0.521027117296877 -0.8674466675378487 1.0402380461314495
0.4088466354571672 -0.7767345231888043 0.929930176382045
0.3654602772404606 -0.7777139587965873 0.9297403278420139
0.35165475811001917 -0.8280697769656387 0.9886440631748881
0.3600290174327758 -0.9303309304459615 1.108952963022487
0.3264969883790839 -0.9187067636403355 1.094163684815104
0.33484592172029803 -1.0199296108854987 1.213906826016879
0.3163147243614952 -1.037579021842887 1.2343349390579454
0.35303172445478415 -1.2408663314055552 1.4757775711800165
0.3317516982120718 -1.241195201389923 1.4764775697809371
0.33119983100565936 -1.3137272544983845 1.562654860577799
0.314927799753712 -1.3162836546153387 1.5657410143416575
0.40812024941330005 -1.7860984948056977 2.124711888105666
0.44071023736021475 -2.0068597325374724 2.3874367478815754
0.4205300541090079 -1.9803912496284697 2.3560109951148944
0.36071051368273105 -1.7464317074734006 2.0776884273227862

VECTORS L float
-5.922527474583223 -4.6004772628014 5.4827199748234206
-5.970967158283927 -2.8638380160669468 3.411924531296602
-23.770403587263353 -8.497857660091372 10.11210026090816
-38.920169459772396 -11.302919049911363 13.45701640850617
-55.115188377895805 -13.631287283153164 16.23868022767219
-66.79127611977142 -14.488914090589565 17.262961402369125
-75.68546005409225 -14.669461876339904 17.47948696911634
-83.47710169948179 -14.632426128129516 17.436457475010315
-90.1028497212273 -14.405376119384822 17.16743100858568
-93.30547086635875 -13.70560606376145 16.33441366646254
-94.15836527310086 -12.781362950375318 15.233833166309424
-92.7670020991057 -11.69609500856217 13.94106683360086
-91.10027738542217 -10.72026289239878 12.778941152772378
-87.24751935938946 -9.644283426753566 11.496330692416546
-84.09264092104807 -8.767811726444176 10.452055438839054
-80.10355697596405 -7.925881994332839 9.448643101143121
-64.75438863499306 -6.1180922641750355 7.295135845459566
-51.22413756817629 -4.650539807478532 5.546543071267528
-38.13147625962863 -3.3469338234273316 3.992847799616561
-29.314269144179985 -2.5023958853793733 2.985867120772911
-5.922527474583223 -4.6004772628014 5.4827199748234206
-5.970967158283927 -2.8638380160669468 3.411924531296602
-23.770403587263353 -8.497857660091372 10.11210026090816
-38.920169459772396 -11.302919049911363 13.45701640850617
-55.115188377895805 -13.631287283153164 16.23868022767219
-66.79127611977142 -14.488914090589565 17.262961402369125
-75.68546005409225 -14.669461876339904 17.47948696911634
-83.47710169948179 -14.632426128129516 17.436457475010315
-90.1028497212273 -14.405376119384822 17.16743100858568
-93.30547086635875 -13.70560606376145 16.33441366646254
-94.15836527310086 -12.781362950375318 15.233833166309424
-92.7670020991057 -11.69609500856217 13.94106683360086
-91.10027738542217 -10.72026289239878 12.778941152772378
-87.24751935938946 -9.644283426753566 11.496330692416546
-84.09264092104807 -8.767811726444176 10.452055438839054
-80.10355697596405 -7.925881994332839 9.448643101143121
-64.75438863499306 -6.1180922641750355 7.295135845459566
-51.22413756817629 -4.650539807478532 5.546543071267528
-38.13147625962863 -3.3469338234273316 3.992847799616561
-29.314269144179985 -2.5023958853793733 2.985867120772911

SCALARS mu float
LOOKUP_TABLE default
0.022623716871183253
0.9382031317946716
2.870251543220701
1.7262685978757386
0.8769661399463906
0.6987401475043935
0.6505889544462625
0.6643135349720116
0.7364266564859387
0.7370012761531928
0.8476483347024871
0.9074101817858907
1.150659192028989
1.222741992951485
1.3794026211254824
1.4858538828771846
2.2032606248956625
2.7715485477013044
3.15809694114732
3.331085815598095
0.022623716871183253
0.9382031317946716
2.870251543220701
1.7262685978757386
0.8769661399463906
0.6987401475043935
0.6505889544462625
0.6643135349720116
0.7364266564859387
0.7370012761531928
0.8476483347024871
0.9074101817858907
1.150659192028989
1.222741992951485
1.3794026211254824
1.4858538828771846
2.2032606248956625
2.7715485477013044
3.15809694114732
3.331085815598095