# vtk DataFile Version 4.0
[MyVLM domain - lattices] 
ASCII
DATASET UNSTRUCTURED_GRID
POINTS 62 float
0.00022673658128986117 0.0035239486940211256 0.013041735609203697
-0.003724999406033424 -0.0008328140258498912 0.021829672937762872
-0.00549739299719125 -0.004586902442240977 0.03048963536576788
-0.005451904080891177 -0.007764523520699687 0.03900649229460518
-0.004354059046121628 -0.011114625656764817 0.04694783816650133
-0.0029556321221654493 -0.015050706176388248 0.054074940189008824
-0.0016722727371407085 -0.01932423594207367 0.0605312867265626
-0.0006485493516483927 -0.02352180949194154 0.06655555753386329
0.0001374053121431227 -0.027574676270011513 0.07218744576291307
0.0007511984436382017 -0.0315105701353887 0.07741093926269195
0.0012455433643025467 -0.035295032379135644 0.0822459327780809
0.0016598526811940704 -0.038857750270977896 0.08673302138283132
0.002022453218220871 -0.042119374305984475 0.09091801753497515
0.002352563731918074 -0.045032181022111054 0.09482847438817038
0.002662053738196183 -0.04764275724766197 0.09843749502455482
0.002957000443680671 -0.050052947862926654 0.10168627927507776
0.0032390594424296184 -0.05236125624454127 0.10451795618872221
0.0035066635059833096 -0.05462911349867551 0.10689705849980452
0.0037560624618667195 -0.05686698464810076 0.10881754422461051
0.003982215822832984 -0.05903500018782484 0.11030243203257993
0.004179548496302947 -0.06105340846229975 0.11139776656351166
0.008285994416043337 -0.0097214136504402 0.00539452209411485
0.007508437091591354 -0.013098450124643727 0.01474810463434229
0.00973309288421085 -0.01717549783196828 0.02322160642878957
0.010440442308044806 -0.024942631026992422 0.029088707301678774
0.01004693542569484 -0.030679876746194504 0.035651835183256535
0.0094954698488839 -0.03516405424924142 0.04246249326484245
0.009038213335578684 -0.03906594643974128 0.049133404856470594
0.008539133039147835 -0.042490880621828146 0.05560375921074614
0.008012046218423283 -0.04548017810287867 0.061849699459731934
0.007469873605570215 -0.048114382632130324 0.06782472364812414
0.0069256484677951155 -0.05045938096179222 0.07349079204179883
0.0064559301991455546 -0.0525487811710359 0.07882850100719936
0.006108090109537901 -0.05441413114323384 0.08381963636536827
0.005835591307912621 -0.0561027399056071 0.08843688423670436
0.005646315885461864 -0.05764961959658901 0.09266003035365829
0.005556570152728891 -0.05908607535241254 0.09647100068739889
0.005484703593381549 -0.060453387611483424 0.09984596196570036
0.005393245002100456 -0.061766375710841266 0.10277635824033371
0.005297730961761147 -0.06301291586071363 0.10526918918458757
0.00521698140800628 -0.0641673048985277 0.10733929452629248
0.005155604557614359 -0.06519703295297741 0.10900544384839818
0.005485628962270063 -0.008221057082135068 0.011912411091542249
0.005312774690522743 -0.01203019504224086 0.020778555186615793
0.006196413562335568 -0.017338226567477844 0.02830338360647226
0.006457021259275767 -0.023218334062128164 0.03502199473948906
0.006414690581931144 -0.027962140602432604 0.0419207204624759
0.006371643086760199 -0.032133118023176255 0.04867424015993882
0.006301402129423808 -0.03593956582734044 0.055162292057759514
0.00614279921665101 -0.03937620774200919 0.061387922413526315
0.005916795403470228 -0.042483616076303396 0.06732770679364665
0.005647913503504593 -0.0453158616620365 0.07295042738881771
0.005381266505789829 -0.04789715863107475 0.07824210416348835
0.005171795853183163 -0.05023323268997146 0.08319943137943867
0.005025757650311314 -0.0523377710593273 0.08781450671617043
0.004932542381279714 -0.05424150209704517 0.09206958914797664
0.00490346403705614 -0.055987848744699156 0.09593960842785051
0.004914985140555201 -0.05762907412489447 0.09939439042788721
0.0049224460918573685 -0.05920620746377386 0.10241024691332862
0.004916956732429355 -0.060729246607680115 0.10498140562489736
0.004910301924250248 -0.0621803308892062 0.10711817842372882
0.004909940276999731 -0.06352267777558 0.10884180171502043

CELLS 40 140
4 0 21 22 1
4 1 22 23 2
4 2 23 24 3
4 3 24 25 4
4 4 25 26 5
4 5 26 27 6
4 6 27 28 7
4 7 28 29 8
4 8 29 30 9
4 9 30 31 10
4 10 31 32 11
4 11 32 33 12
4 12 33 34 13
4 13 34 35 14
4 14 35 36 15
4 15 36 37 16
4 16 37 38 17
4 17 38 39 18
4 18 39 40 19
4 19 40 41 20
1 42
1 43
1 44
1 45
1 46
1 47
1 48
1 49
1 50
1 51
1 52
1 53
1 54
1 55
1 56
1 57
1 58
1 59
1 60
1 61

CELL_TYPES 40
9
9
9
9
9
9
9
9
9
9
9
9
9
9
9
9
9
9
9
9
1
1
1
1
1
1
1
1
1
1
1
1
1
1
1
1
1
1
1
1

CELL_DATA 40

VECTORS S float
5.01752042892947e-18 -1.4528075291570722e-16 1.6784556561703898e-16
0.0 -0.0 0.0
-1.584811513933271e-17 5.867200893400342e-16 -6.666102903738918e-16
2.6412397008985917e-17 -1.1765789472902715e-15 1.3305667916198732e-15
-2.2874998232149608e-17 1.178535246929884e-15 -1.3288999311776052e-15
-2.034515841433755e-17 1.1795382666310657e-15 -1.3280508924608739e-15
0.0 -0.0 0.0
0.0 -0.0 0.0
0.0 -0.0 0.0
-1.364383448937398e-17 1.1798138198212668e-15 -1.327891869552346e-15
0.0 -0.0 0.0
-1.1191553508121599e-17 1.177966511517119e-15 -1.3295537852070188e-15
2.055297508450047e-17 -2.3536214304541783e-15 2.661168581818557e-15
9.346815379709899e-18 -1.1755798049442637e-15 1.3316787826399847e-15
-4.31022303335624e-18 5.871983604879275e-16 -6.66363573913449e-16
0.0 -0.0 0.0
7.93432902467016e-18 -1.17186057396355e-15 1.3349619704309164e-15
4.0232251477764594e-18 -5.853466219518469e-16 6.679925531396167e-16
4.16119335208276e-18 -5.848248719999727e-16 6.684485460984367e-16
2.09305488997471e-18 -2.921965287065131e-16 3.3441296930344125e-16
5.01752042892947e-18 -1.4528075291570722e-16 1.6784556561703898e-16
0.0 -0.0 0.0
-1.584811513933271e-17 5.867200893400342e-16 -6.666102903738918e-16
2.6412397008985917e-17 -1.1765789472902715e-15 1.3305667916198732e-15
-2.2874998232149608e-17 1.178535246929884e-15 -1.3288999311776052e-15
-2.034515841433755e-17 1.1795382666310657e-15 -1.3280508924608739e-15
0.0 -0.0 0.0
0.0 -0.0 0.0
0.0 -0.0 0.0
-1.364383448937398e-17 1.1798138198212668e-15 -1.327891869552346e-15
0.0 -0.0 0.0
-1.1191553508121599e-17 1.177966511517119e-15 -1.3295537852070188e-15
2.055297508450047e-17 -2.3536214304541783e-15 2.661168581818557e-15
9.346815379709899e-18 -1.1755798049442637e-15 1.3316787826399847e-15
-4.31022303335624e-18 5.871983604879275e-16 -6.66363573913449e-16
0.0 -0.0 0.0
7.93432902467016e-18 -1.17186057396355e-15 1.3349619704309164e-15
4.0232251477764594e-18 -5.853466219518469e-16 6.679925531396167e-16
4.16119335208276e-18 -5.848248719999727e-16 6.684485460984367e-16
2.09305488997471e-18 -2.921965287065131e-16 3.3441296930344125e-16

SCALARS Gamma float
LOOKUP_TABLE default
0.12216539495900636
0.0863368519303558
0.4947304538754007
0.6567787888836703
0.7798724443676186
0.8253303431098615
0.8377792532696
0.8503841525986313
0.8399471298964009
0.8150391618256685
0.7766410095958647
0.7331999968963886
0.6920779407547349
0.6374279027201293
0.597510735191371
0.5564300217261573
0.4417171625321262
0.3426972821155045
0.2474860952449367
0.1878856759074804
0.12216539495900636
0.0863368519303558
0.4947304538754007
0.6567787888836703
0.7798724443676186
0.8253303431098615
0.8377792532696
0.8503841525986313
0.8399471298964009
0.8150391618256685
0.7766410095958647
0.7331999968963886
0.6920779407547349
0.6374279027201293
0.597510735191371
0.5564300217261573
0.4417171625321262
0.3426972821155045
0.2474860952449367
0.1878856759074804

VECTORS Ftot float
-2.0133980033764005 -2.2744650564551083 -1.9085027899970852
-2.1023613479363443 -1.8425114952262578 -1.5460507160842456
-17.905020478724754 -10.368479723997037 -8.700187512274987
-30.863433130700052 -13.56349105444295 -11.381120341259372
-44.45901913892833 -16.02690230303318 -13.448167811389391
-54.76310823035086 -17.09594442423364 -14.345200661001668
-63.02004768711222 -17.506412183817986 -14.68962400667906
-71.14392108513124 -17.850381855457677 -14.97824883128809
-77.03022392525929 -17.495124785604993 -14.680152755001584
-80.87362712538017 -16.825591857430467 -14.118347921909296
-82.53570483906648 -15.912614901329219 -13.352269294771386
-82.73968683172261 -14.854172141899262 -12.464130365711451
-82.26903663182534 -14.016342494735172 -11.761107817786675
-79.34266314533147 -12.749161007434259 -10.697816299157806
-77.40330099086997 -11.8927140334829 -9.979171959192326
-74.64850818348896 -10.932340897958834 -9.173323215381517
-60.917118210181975 -9.349866518275457 -7.845469547041705
-48.374786908851114 -7.836843644279195 -6.575892611508659
-35.60107916716698 -6.1906946796249915 -5.19460962240446
-27.469737337031745 -4.960487434740839 -4.162343176950555
-2.0133980033764005 -2.2744650564551083 -1.9085027899970852
-2.1023613479363443 -1.8425114952262578 -1.5460507160842456
-17.905020478724754 -10.368479723997037 -8.700187512274987
-30.863433130700052 -13.56349105444295 -11.381120341259372
-44.45901913892833 -16.02690230303318 -13.448167811389391
-54.76310823035086 -17.09594442423364 -14.345200661001668
-63.02004768711222 -17.506412183817986 -14.68962400667906
-71.14392108513124 -17.850381855457677 -14.97824883128809
-77.03022392525929 -17.495124785604993 -14.680152755001584
-80.87362712538017 -16.825591857430467 -14.118347921909296
-82.53570483906648 -15.912614901329219 -13.352269294771386
-82.73968683172261 -14.854172141899262 -12.464130365711451
-82.26903663182534 -14.016342494735172 -11.761107817786675
-79.34266314533147 -12.749161007434259 -10.697816299157806
-77.40330099086997 -11.8927140334829 -9.979171959192326
-74.64850818348896 -10.932340897958834 -9.173323215381517
-60.917118210181975 -9.349866518275457 -7.845469547041705
-48.374786908851114 -7.836843644279195 -6.575892611508659
-35.60107916716698 -6.1906946796249915 -5.19460962240446
-27.469737337031745 -4.960487434740839 -4.162343176950555

VECTORS D float
-0.020236971817360422 0.009932184893001817 0.009201879794611637
0.2520879828375161 -0.20689021322760928 -0.18784687460262892
0.7929867234503905 -0.8937585380172537 -0.805498267765918
0.592131949823534 -0.8361169704094096 -0.7511064121625799
0.4508123818643796 -0.7575963918436928 -0.6796346075302552
0.4222688593201764 -0.8183732952166041 -0.7333256206233448
0.4298338116046011 -0.9415824844403453 -0.8432343135308521
0.4428220555858308 -1.081928624675301 -0.967693184338985
0.3974275305162352 -1.0730424291214846 -0.9583499607042651
0.36999856418842886 -1.0949862204548153 -0.9766819906915736
0.36599987203690787 -1.1814833294899556 -1.0517816276358143
0.35180157160271136 -1.2322408082125764 -1.0947098406292841
0.38267290728200676 -1.4469906941185486 -1.2827197034399693
0.35673166923739685 -1.4483609551434613 -1.2810883648734281
0.3607174011143089 -1.5657235024277443 -1.3820459012266177
0.33322350117695615 -1.5339743737939175 -1.3511333740354736
0.4185027161521541 -2.029350997517937 -1.7838987294925188
0.4436470059154468 -2.250503880723355 -1.9747371881047997
0.41943897884211423 -2.210760001930458 -1.9368024800092083
0.3629674394202629 -1.9747054538717397 -1.7276895415167635
-0.020236971817360422 0.009932184893001817 0.009201879794611637
0.2520879828375161 -0.20689021322760928 -0.18784687460262892
0.7929867234503905 -0.8937585380172537 -0.805498267765918
0.592131949823534 -0.8361169704094096 -0.7511064121625799
0.4508123818643796 -0.7575963918436928 -0.6796346075302552
0.4222688593201764 -0.8183732952166041 -0.7333256206233448
0.4298338116046011 -0.9415824844403453 -0.8432343135308521
0.4428220555858308 -1.081928624675301 -0.967693184338985
0.3974275305162352 -1.0730424291214846 -0.9583499607042651
0.36999856418842886 -1.0949862204548153 -0.9766819906915736
0.36599987203690787 -1.1814833294899556 -1.0517816276358143
0.35180157160271136 -1.2322408082125764 -1.0947098406292841
0.38267290728200676 -1.4469906941185486 -1.2827197034399693
0.35673166923739685 -1.4483609551434613 -1.2810883648734281
0.3607174011143089 -1.5657235024277443 -1.3820459012266177
0.33322350117695615 -1.5339743737939175 -1.3511333740354736
0.4185027161521541 -2.029350997517937 -1.7838987294925188
0.4436470059154468 -2.250503880723355 -1.9747371881047997
0.41943897884211423 -2.210760001930458 -1.9368024800092083
0.3629674394202629 -1.9747054538717397 -1.7276895415167635

VECTORS L float
-1.9931610315590405 -2.284397241348111 -1.917704669791697
-2.3544493307738605 -1.6356212819986486 -1.358203841481617
-18.698007202175148 -9.474721185979785 -7.8946892445090695
-31.45556508052359 -12.727374084033542 -10.630013929096796
-44.90983152079272 -15.269305911189493 -12.768533203859137
-55.185377089671036 -16.277571129017037 -13.611875040378322
-63.44988149871681 -16.56482969937764 -13.846389693148204
-71.58674314071708 -16.768453230782377 -14.010555646949108
-77.42765145577555 -16.422082356483514 -13.721802794297325
-81.2436256895686 -15.730605636975652 -13.141665931217725
-82.9017047111034 -14.731131571839263 -12.300487667135572
-83.09148840332534 -13.62193133368669 -11.36942052508217
-82.65170953910737 -12.569351800616623 -10.478388114346707
-79.69939481456888 -11.300800052290796 -9.416727934284376
-77.76401839198428 -10.326990531055158 -8.597126057965708
-74.98173168466592 -9.398366524164917 -7.822189841346044
-61.33562092633416 -7.32051552075752 -6.061570817549189
-48.818433914766565 -5.5863397635558405 -4.60115542340386
-36.020518146009096 -3.9799346776945335 -3.257807142395252
-27.83270477645201 -2.9857819808691 -2.434653635433792
-1.9931610315590405 -2.284397241348111 -1.917704669791697
-2.3544493307738605 -1.6356212819986486 -1.358203841481617
-18.698007202175148 -9.474721185979785 -7.8946892445090695
-31.45556508052359 -12.727374084033542 -10.630013929096796
-44.90983152079272 -15.269305911189493 -12.768533203859137
-55.185377089671036 -16.277571129017037 -13.611875040378322
-63.44988149871681 -16.56482969937764 -13.846389693148204
-71.58674314071708 -16.768453230782377 -14.010555646949108
-77.42765145577555 -16.422082356483514 -13.721802794297325
-81.2436256895686 -15.730605636975652 -13.141665931217725
-82.9017047111034 -14.731131571839263 -12.300487667135572
-83.09148840332534 -13.62193133368669 -11.36942052508217
-82.65170953910737 -12.569351800616623 -10.478388114346707
-79.69939481456888 -11.300800052290796 -9.416727934284376
-77.76401839198428 -10.326990531055158 -8.597126057965708
-74.98173168466592 -9.398366524164917 -7.822189841346044
-61.33562092633416 -7.32051552075752 -6.061570817549189
-48.818433914766565 -5.5863397635558405 -4.60115542340386
-36.020518146009096 -3.9799346776945335 -3.257807142395252
-27.83270477645201 -2.9857819808691 -2.434653635433792

SCALARS mu float
LOOKUP_TABLE default
-0.04635636523532698
0.542273386979317
1.3537315306085373
0.8884189392366344
0.6617884647051329
0.6365541889804646
0.6813892619925058
0.7507944069523835
0.7346503728098572
0.759695832289569
0.8484905333647004
0.9303230460893267
1.157100492776979
1.2292331645191383
1.4146834832381625
1.488328862900874
2.149406751022409
2.666244551029163
3.022143431253697
3.226912346503978
-0.04635636523532698
0.542273386979317
1.3537315306085373
0.8884189392366344
0.6617884647051329
0.6365541889804646
0.6813892619925058
0.7507944069523835
0.7346503728098572
0.759695832289569
0.8484905333647004
0.9303230460893267
1.157100492776979
1.2292331645191383
1.4146834832381625
1.488328862900874
2.149406751022409
2.666244551029163
3.022143431253697
3.226912346503978