# vtk DataFile Version 4.0
[MyVLM domain - lattices] 
ASCII
DATASET UNSTRUCTURED_GRID
POINTS 62 float
0.00022673658128986117 -0.013041735609203641 0.003523948694021099
-0.003724999406033424 -0.021829672937762785 -0.0008328140258499049
-0.00549739299719125 -0.03048963536576776 -0.0045869024422409786
-0.005451904080891177 -0.03900649229460503 -0.007764523520699682
-0.004354059046121628 -0.04694783816650115 -0.011114625656764798
-0.0029556321221654493 -0.05407494018900862 -0.015050706176388215
-0.0016722727371407085 -0.06053128672656236 -0.01932423594207363
-0.0006485493516483927 -0.06655555753386304 -0.02352180949194148
0.0001374053121431227 -0.0721874457629128 -0.027574676270011433
0.0007511984436382017 -0.07741093926269166 -0.03151057013538861
0.0012455433643025467 -0.0822459327780806 -0.03529503237913553
0.0016598526811940704 -0.08673302138283098 -0.03885775027097778
0.002022453218220871 -0.09091801753497482 -0.04211937430598435
0.002352563731918074 -0.09482847438817005 -0.045032181022110915
0.002662053738196183 -0.09843749502455447 -0.047642757247661816
0.002957000443680671 -0.10168627927507737 -0.050052947862926495
0.0032390594424296184 -0.10451795618872183 -0.0523612562445411
0.0035066635059833096 -0.10689705849980413 -0.05462911349867534
0.0037560624618667195 -0.10881754422461012 -0.05686698464810058
0.003982215822832984 -0.11030243203257954 -0.05903500018782463
0.004179548496302947 -0.11139776656351125 -0.06105340846229956
0.008285994416043337 -0.0053945220941148345 -0.009721413650440158
0.007508437091591354 -0.014748104634342238 -0.01309845012464368
0.00973309288421085 -0.02322160642878949 -0.017175497831968218
0.010440442308044806 -0.02908870730167868 -0.02494263102699233
0.01004693542569484 -0.03565183518325641 -0.030679876746194386
0.0094954698488839 -0.042462493264842305 -0.03516405424924128
0.009038213335578684 -0.04913340485647043 -0.03906594643974114
0.008539133039147835 -0.055603759210745944 -0.04249088062182799
0.008012046218423283 -0.061849699459731705 -0.0454801781028785
0.007469873605570215 -0.0678247236481239 -0.04811438263213015
0.0069256484677951155 -0.07349079204179858 -0.05045938096179204
0.0064559301991455546 -0.07882850100719907 -0.05254878117103572
0.006108090109537901 -0.08381963636536797 -0.05441413114323366
0.005835591307912621 -0.08843688423670405 -0.0561027399056069
0.005646315885461864 -0.09266003035365795 -0.057649619596588805
0.005556570152728891 -0.09647100068739854 -0.05908607535241234
0.005484703593381549 -0.0998459619657 -0.06045338761148321
0.005393245002100456 -0.10277635824033332 -0.061766375710841044
0.005297730961761147 -0.1052691891845872 -0.0630129158607134
0.00521698140800628 -0.10733929452629207 -0.06416730489852747
0.005155604557614359 -0.10900544384839782 -0.0651970329529772
0.005485628962270063 -0.011912411091542207 -0.008221057082135039
0.005312774690522743 -0.020778555186615717 -0.012030195042240819
0.006196413562335568 -0.02830338360647216 -0.017338226567477785
0.006457021259275767 -0.035021994739488936 -0.023218334062128077
0.006414690581931144 -0.04192072046247575 -0.027962140602432503
0.006371643086760199 -0.048674240159938646 -0.03213311802317614
0.006301402129423808 -0.05516229205775931 -0.035939565827340314
0.00614279921665101 -0.0613879224135261 -0.03937620774200904
0.005916795403470228 -0.06732770679364641 -0.04248361607630324
0.005647913503504593 -0.07295042738881746 -0.045315861662036334
0.005381266505789829 -0.07824210416348808 -0.04789715863107458
0.005171795853183163 -0.08319943137943837 -0.05023323268997128
0.005025757650311314 -0.08781450671617012 -0.05233777105932712
0.004932542381279714 -0.09206958914797632 -0.05424150209704498
0.00490346403705614 -0.09593960842785018 -0.05598784874469896
0.004914985140555201 -0.09939439042788685 -0.05762907412489428
0.0049224460918573685 -0.10241024691332826 -0.059206207463773655
0.004916956732429355 -0.10498140562489698 -0.0607292466076799
0.004910301924250248 -0.10711817842372841 -0.062180330889205986
0.004909940276999731 -0.10884180171502006 -0.06352267777557978

CELLS 40 140
4 0 21 22 1
4 1 22 23 2
4 2 23 24 3
4 3 24 25 4
4 4 25 26 5
4 5 26 27 6
4 6 27 28 7
4 7 28 29 8
4 8 29 30 9
4 9 30 31 10
4 10 31 32 11
4 11 32 33 12
4 12 33 34 13
4 13 34 35 14
4 14 35 36 15
4 15 36 37 16
4 16 37 38 17
4 17 38 39 18
4 18 39 40 19
4 19 40 41 20
1 42
1 43
1 44
1 45
1 46
1 47
1 48
1 49
1 50
1 51
1 52
1 53
1 54
1 55
1 56
1 57
1 58
1 59
1 60
1 61

CELL_TYPES 40
9
9
9
9
9
9
9
9
9
9
9
9
9
9
9
9
9
9
9
9
1
1
1
1
1
1
1
1
1
1
1
1
1
1
1
1
1
1
1
1

CELL_DATA 40

VECTORS S float
0.0 -0.0 -0.0
4.40800842197894e-18 -1.6761242729947544e-16 -1.4556940012531157e-16
-1.434884710257926e-17 6.679817445187511e-16 5.851968940429576e-16
0.0 -0.0 -0.0
-2.1027615814150548e-17 1.3317680601489234e-15 1.1753277390687216e-15
0.0 -0.0 -0.0
0.0 -0.0 -0.0
0.0 -0.0 -0.0
0.0 -0.0 -0.0
-1.275311918691735e-17 1.3303778011149523e-15 1.1770199170513623e-15
-1.1590448534140629e-17 1.3309828404225552e-15 1.1763477210789044e-15
0.0 -0.0 -0.0
-9.7098556025072e-18 1.3326488107399297e-15 1.174477112089323e-15
0.0 -0.0 -0.0
-8.18454307299895e-18 1.3346279728700171e-15 1.1722392282173473e-15
0.0 -0.0 -0.0
-3.7688262794534495e-18 6.683306681782594e-16 5.84962237363993e-16
0.0 -0.0 -0.0
-1.97643326021935e-18 3.346076357555252e-16 2.9197439975264728e-16
-2.0087333619708498e-18 3.347471301409773e-16 2.9181423912810195e-16
0.0 -0.0 -0.0
4.40800842197894e-18 -1.6761242729947544e-16 -1.4556940012531157e-16
-1.434884710257926e-17 6.679817445187511e-16 5.851968940429576e-16
0.0 -0.0 -0.0
-2.1027615814150548e-17 1.3317680601489234e-15 1.1753277390687216e-15
0.0 -0.0 -0.0
0.0 -0.0 -0.0
0.0 -0.0 -0.0
0.0 -0.0 -0.0
-1.275311918691735e-17 1.3303778011149523e-15 1.1770199170513623e-15
-1.1590448534140629e-17 1.3309828404225552e-15 1.1763477210789044e-15
0.0 -0.0 -0.0
-9.7098556025072e-18 1.3326488107399297e-15 1.174477112089323e-15
0.0 -0.0 -0.0
-8.18454307299895e-18 1.3346279728700171e-15 1.1722392282173473e-15
0.0 -0.0 -0.0
-3.7688262794534495e-18 6.683306681782594e-16 5.84962237363993e-16
0.0 -0.0 -0.0
-1.97643326021935e-18 3.346076357555252e-16 2.9197439975264728e-16
-2.0087333619708498e-18 3.347471301409773e-16 2.9181423912810195e-16

SCALARS Gamma float
LOOKUP_TABLE default
0.11590121324373535
0.08091510761894904
0.4898674154480948
0.6502587070863544
0.7684143742267064
0.8138129222561599
0.8251298411798208
0.8378566051790547
0.8260046874431959
0.8029668265508968
0.7646727093615122
0.720212109342669
0.6798652580510494
0.6254889274242595
0.5847807672922333
0.5449311824589316
0.4333078117594148
0.33610716122452355
0.24119213815959628
0.18252831845997874
0.11590121324373535
0.08091510761894904
0.4898674154480948
0.6502587070863544
0.7684143742267064
0.8138129222561599
0.8251298411798208
0.8378566051790547
0.8260046874431959
0.8029668265508968
0.7646727093615122
0.720212109342669
0.6798652580510494
0.6254889274242595
0.5847807672922333
0.5449311824589316
0.4333078117594148
0.33610716122452355
0.24119213815959628
0.18252831845997874

VECTORS Ftot float
-1.9166193173962138 1.8268210773403066 -2.1771205819471433
-1.9574533415431326 1.4698196478821486 -1.7516628458291137
-17.75962748383484 8.65922353259334 -10.319660754044476
-30.589853572939486 11.331779968618982 -13.504689488088825
-43.80974412376865 13.36391177425221 -15.926489868077192
-53.99051436372947 14.26072331588766 -16.995268244701194
-62.02902317675183 14.598367845125644 -17.397657325440342
-70.03342957908501 14.887332030477127 -17.74203143146403
-75.67885015271463 14.56633523730984 -17.359482349995698
-79.6234234465774 14.037160938519147 -16.728836978303363
-81.2059570271665 13.26890284001181 -15.813262629367644
-81.20936356971337 12.392505891811842 -14.76881341781173
-80.75153862199487 11.696050742257391 -13.938810491249471
-77.79130992188261 10.636699225864204 -12.676324515767762
-75.68357359737006 9.928069384104159 -11.83181235603076
-73.03868140317718 9.133228263771509 -10.884557595332714
-59.700870303414995 7.812527942454574 -9.310608242662925
-47.39909437243358 6.5343360407867 -7.787318451825404
-34.659355762166186 5.129728581065781 -6.113372465518366
-26.648243890613536 4.11019015974119 -4.898333889116951
-1.9166193173962138 1.8268210773403066 -2.1771205819471433
-1.9574533415431326 1.4698196478821486 -1.7516628458291137
-17.75962748383484 8.65922353259334 -10.319660754044476
-30.589853572939486 11.331779968618982 -13.504689488088825
-43.80974412376865 13.36391177425221 -15.926489868077192
-53.99051436372947 14.26072331588766 -16.995268244701194
-62.02902317675183 14.598367845125644 -17.397657325440342
-70.03342957908501 14.887332030477127 -17.74203143146403
-75.67885015271463 14.56633523730984 -17.359482349995698
-79.6234234465774 14.037160938519147 -16.728836978303363
-81.2059570271665 13.26890284001181 -15.813262629367644
-81.20936356971337 12.392505891811842 -14.76881341781173
-80.75153862199487 11.696050742257391 -13.938810491249471
-77.79130992188261 10.636699225864204 -12.676324515767762
-75.68357359737006 9.928069384104159 -11.83181235603076
-73.03868140317718 9.133228263771509 -10.884557595332714
-59.700870303414995 7.812527942454574 -9.310608242662925
-47.39909437243358 6.5343360407867 -7.787318451825404
-34.659355762166186 5.129728581065781 -6.113372465518366
-26.648243890613536 4.11019015974119 -4.898333889116951

VECTORS D float
-0.021511262918750326 -0.009652999514061105 0.01053123903305709
0.2522505087357326 0.1858092119249311 -0.20630716780128303
0.7749196940270958 0.7790690935068717 -0.8702792737953335
0.5810071241001012 0.730052934030113 -0.8174067207369805
0.4508998311104079 0.6718961389746281 -0.7532609329088348
0.422523328679224 0.7255169221845008 -0.8139482131085953
0.4364115706863168 0.8461324719117166 -0.9499452255869126
0.44941647003406743 0.9710243763094064 -1.0907945158024965
0.40177527807639346 0.9576279907177302 -1.0769343641489202
0.3753762689043189 0.9796254168740699 -1.1031968711055409
0.3695710115102947 1.049692223639409 -1.1840366743967214
0.35792836594774324 1.098349690006914 -1.2411870409823471
0.38745360485929786 1.2802460881746551 -1.4494589045470276
0.3616941847539516 1.2796252453307997 -1.4516131904171425
0.3682326739745004 1.3864250073238316 -1.5759136329955283
0.3388522184328849 1.349062532786099 -1.5364389651357744
0.4217431475008252 1.7638320659655085 -2.012495014803756
0.4443308255053223 1.9392842006462085 -2.2163444107788473
0.4185520337560443 1.8941138259372887 -2.1678534471662756
0.3640701503189467 1.6947677231744438 -1.9416026902046983
-0.021511262918750326 -0.009652999514061105 0.01053123903305709
0.2522505087357326 0.1858092119249311 -0.20630716780128303
0.7749196940270958 0.7790690935068717 -0.8702792737953335
0.5810071241001012 0.730052934030113 -0.8174067207369805
0.4508998311104079 0.6718961389746281 -0.7532609329088348
0.422523328679224 0.7255169221845008 -0.8139482131085953
0.4364115706863168 0.8461324719117166 -0.9499452255869126
0.44941647003406743 0.9710243763094064 -1.0907945158024965
0.40177527807639346 0.9576279907177302 -1.0769343641489202
0.3753762689043189 0.9796254168740699 -1.1031968711055409
0.3695710115102947 1.049692223639409 -1.1840366743967214
0.35792836594774324 1.098349690006914 -1.2411870409823471
0.38745360485929786 1.2802460881746551 -1.4494589045470276
0.3616941847539516 1.2796252453307997 -1.4516131904171425
0.3682326739745004 1.3864250073238316 -1.5759136329955283
0.3388522184328849 1.349062532786099 -1.5364389651357744
0.4217431475008252 1.7638320659655085 -2.012495014803756
0.4443308255053223 1.9392842006462085 -2.2163444107788473
0.4185520337560443 1.8941138259372887 -2.1678534471662756
0.3640701503189467 1.6947677231744438 -1.9416026902046983

VECTORS L float
-1.8951080544774639 1.8364740768543684 -2.187651820980201
-2.2097038502788657 1.2840104359572178 -1.5453556780278308
-18.534547177861935 7.880154439086468 -9.449381480249142
-31.170860697039583 10.601727034588867 -12.687282767351842
-44.260643954879065 12.692015635277587 -15.173228935168366
-54.41303769240869 13.53520639370316 -16.181320031592595
-62.46543474743816 13.752235373213933 -16.447712099853437
-70.48284604911909 13.916307654167722 -16.65123691566154
-76.08062543079103 13.608707246592116 -16.282547985846783
-79.99879971548172 13.057535521645073 -15.625640107197825
-81.57552803867681 12.219210616372399 -14.629225954970922
-81.5672919356611 11.29415620180493 -13.52762637682938
-81.13899222685419 10.415804654082736 -12.489351586702446
-78.15300410663657 9.357073980533405 -11.22471132535062
-76.05180627134456 8.541644376780328 -10.255898723035234
-73.37753362161007 7.784165730985411 -9.34811863019694
-60.12261345091582 6.048695876489067 -7.29811322785917
-47.8434251979389 4.595051840140493 -5.570974041046557
-35.07790779592223 3.2356147551284913 -3.94551901835209
-27.012314040932488 2.4154224365667463 -2.9567311989122533
-1.8951080544774639 1.8364740768543684 -2.187651820980201
-2.2097038502788657 1.2840104359572178 -1.5453556780278308
-18.534547177861935 7.880154439086468 -9.449381480249142
-31.170860697039583 10.601727034588867 -12.687282767351842
-44.260643954879065 12.692015635277587 -15.173228935168366
-54.41303769240869 13.53520639370316 -16.181320031592595
-62.46543474743816 13.752235373213933 -16.447712099853437
-70.48284604911909 13.916307654167722 -16.65123691566154
-76.08062543079103 13.608707246592116 -16.282547985846783
-79.99879971548172 13.057535521645073 -15.625640107197825
-81.57552803867681 12.219210616372399 -14.629225954970922
-81.5672919356611 11.29415620180493 -13.52762637682938
-81.13899222685419 10.415804654082736 -12.489351586702446
-78.15300410663657 9.357073980533405 -11.22471132535062
-76.05180627134456 8.541644376780328 -10.255898723035234
-73.37753362161007 7.784165730985411 -9.34811863019694
-60.12261345091582 6.048695876489067 -7.29811322785917
-47.8434251979389 4.595051840140493 -5.570974041046557
-35.07790779592223 3.2356147551284913 -3.94551901835209
-27.012314040932488 2.4154224365667463 -2.9567311989122533

SCALARS mu float
LOOKUP_TABLE default
-0.04880850138068407
0.5380208537739793
1.3127129703577516
0.8654883100085176
0.6561347572513233
0.6316156395815172
0.6860370724058493
0.7558464670864814
0.7364451861437712
0.7642367381023155
0.849231546556225
0.9360185958760803
1.1579478860376498
1.2309624139003088
1.4228063029008646
1.4897385235691496
2.1303364756313496
2.6244698227763004
2.9622001939913853
3.172684551610642
-0.04880850138068407
0.5380208537739793
1.3127129703577516
0.8654883100085176
0.6561347572513233
0.6316156395815172
0.6860370724058493
0.7558464670864814
0.7364451861437712
0.7642367381023155
0.849231546556225
0.9360185958760803
1.1579478860376498
1.2309624139003088
1.4228063029008646
1.4897385235691496
2.1303364756313496
2.6244698227763004
2.9622001939913853
3.172684551610642