# vtk DataFile Version 4.0
[MyVLM domain - lattices] 
ASCII
DATASET UNSTRUCTURED_GRID
POINTS 62 float
0.00022673658128986117 0.0057350856172414255 0.012231675071770663
-0.003724999406033424 0.002970521215233401 0.021642647792753923
-0.00549739299719125 0.0007772525315653082 0.030822936544954493
-0.005451904080891177 -0.0008731566574932612 0.039762191389359575
-0.004354059046121628 -0.0027933629755953777 0.048164629504280174
-0.0029556321221654493 -0.00543203730954612 0.05586694804193741
-0.0016722727371407085 -0.008519509744889157 0.06296729882427053
-0.0006485493516483927 -0.011607209073178151 0.0696289484191028
0.0001374053121431227 -0.014620536570348725 0.0758790485415079
0.0007511984436382017 -0.017589585236713706 0.08170664623511219
0.0012455433643025467 -0.020476965182358947 0.0871253503069069
0.0016598526811940704 -0.023206382624795546 0.0921629294227776
0.002022453218220871 -0.025691738306518094 0.09685072114964864
0.002352563731918074 -0.027881249237183055 0.1012075729546464
0.002662053738196183 -0.02982546508726444 0.10521508626236636
0.002957000443680671 -0.03163489402667803 0.10883303938831591
0.0032390594424296184 -0.03341641848143929 0.11202253031085932
0.0035066635059833096 -0.03523669510723304 0.11475929799141156
0.0037560624618667195 -0.037107079119081454 0.11703920946970088
0.003982215822832984 -0.03898430956935894 0.11887801044296911
0.004179548496302947 -0.040781850841573875 0.1203071972998231
0.008285994416043337 -0.008636974602165186 0.007000672946825269
0.007508437091591354 -0.010338473741398105 0.016798569780541048
0.00973309288421085 -0.012882173787908721 0.025851311947513604
0.010440442308044806 -0.019512495402281713 0.03297802689985182
0.01004693542569484 -0.024022904271057015 0.04043770838560698
0.0094954698488839 -0.02725629867736058 0.04792356651920716
0.009038213335578684 -0.029940520716719203 0.05517068844263466
0.008539133039147835 -0.03218985721031563 0.062137477154810064
0.008012046218423283 -0.034049144403661115 0.068807613596951
0.007469873605570215 -0.03560577738525787 0.07514928855822164
0.0069256484677951155 -0.03693124747001178 0.08113648132798768
0.0064559301991455546 -0.03806202156046204 0.08675591903918894
0.006108090109537901 -0.03903233111572865 0.09199514245963025
0.005835591307912621 -0.03989350943802415 0.09683546779527968
0.005646315885461864 -0.04068354692345003 0.1012630676727683
0.005556570152728891 -0.041436411635047264 0.10526557872823346
0.005484703593381549 -0.042196895472895395 0.10882669804331005
0.005393245002100456 -0.04298107835982371 0.11194057300471888
0.005297730961761147 -0.04377580521315759 0.11461199167098284
0.00521698140800628 -0.04455318646742356 0.11685110501378089
0.005155604557614359 -0.045277946845435166 0.11867075218401438
0.005485628962270063 -0.00602759227477688 0.013159006380827943
0.005312774690522743 -0.00823927110514022 0.02255190369023405
0.006196413562335568 -0.012159988962062405 0.030884143059551287
0.006457021259275767 -0.0167840898316381 0.03852175334375202
0.006414690581931144 -0.02025787614129929 0.04613942528258251
0.006371643086760199 -0.02319275065458433 0.05351462646896668
0.006301402129423808 -0.02581473157489647 0.06056509300446344
0.00614279921665101 -0.02811809381068214 0.06729290865198673
0.005916795403470228 -0.030146860896727423 0.07368205015526726
0.005647913503504593 -0.0319597031231102 0.07971116327508086
0.005381266505789829 -0.033582894362321994 0.08537068510390179
0.005171795853183163 -0.03502264736998571 0.09065835438361049
0.005025757650311314 -0.03629381365061994 0.09556876560862812
0.004932542381279714 -0.03742973542610875 0.10008978320264457
0.00490346403705614 -0.03847752934867929 0.10420425810671095
0.004914985140555201 -0.03949390422899316 0.10789155000172572
0.0049224460918573685 -0.04052337938585371 0.11113545518079472
0.004916956732429355 -0.0415768031181573 0.11393202518602721
0.004910301924250248 -0.042634795466272975 0.11628831374587015
0.004909940276999731 -0.043657445043688625 0.11821884741702225

CELLS 40 140
4 0 21 22 1
4 1 22 23 2
4 2 23 24 3
4 3 24 25 4
4 4 25 26 5
4 5 26 27 6
4 6 27 28 7
4 7 28 29 8
4 8 29 30 9
4 9 30 31 10
4 10 31 32 11
4 11 32 33 12
4 12 33 34 13
4 13 34 35 14
4 14 35 36 15
4 15 36 37 16
4 16 37 38 17
4 17 38 39 18
4 18 39 40 19
4 19 40 41 20
1 42
1 43
1 44
1 45
1 46
1 47
1 48
1 49
1 50
1 51
1 52
1 53
1 54
1 55
1 56
1 57
1 58
1 59
1 60
1 61

CELL_TYPES 40
9
9
9
9
9
9
9
9
9
9
9
9
9
9
9
9
9
9
9
9
1
1
1
1
1
1
1
1
1
1
1
1
1
1
1
1
1
1
1
1

CELL_DATA 40

VECTORS S float
5.00477924754108e-18 -1.1390935608654275e-16 1.9053455685766252e-16
0.0 -0.0 0.0
-1.599893105479692e-17 4.621575843350138e-16 -7.582976372558077e-16
-1.322414490636744e-17 4.637611407355242e-16 -7.573715280865742e-16
-2.298926955848742e-17 9.298172038908609e-16 -1.5133919127964821e-15
-2.046974833170211e-17 9.310084762796294e-16 -1.5126955501298888e-15
0.0 -0.0 0.0
-1.677025177007354e-17 9.318320011050413e-16 -1.5122339439571478e-15
-1.513770615090285e-17 9.3171282653777e-16 -1.5123245946560334e-15
0.0 -0.0 0.0
0.0 -0.0 0.0
0.0 -0.0 0.0
0.0 -0.0 0.0
-1.4207401227428298e-17 1.3900913664651678e-15 -2.2731459015246845e-15
-4.36615888489892e-18 4.626335482180357e-16 -7.58163598401291e-16
-7.993894914007619e-18 9.238129492149315e-16 -1.5172176354732243e-15
3.99780416118572e-18 -4.6110694797002085e-16 7.59095056838518e-16
0.0 -0.0 0.0
-2.09157617161245e-18 2.299129237711307e-16 -3.799353880561555e-16
2.10519673357143e-18 -2.296639215134661e-16 3.800858818833217e-16
5.00477924754108e-18 -1.1390935608654275e-16 1.9053455685766252e-16
0.0 -0.0 0.0
-1.599893105479692e-17 4.621575843350138e-16 -7.582976372558077e-16
-1.322414490636744e-17 4.637611407355242e-16 -7.573715280865742e-16
-2.298926955848742e-17 9.298172038908609e-16 -1.5133919127964821e-15
-2.046974833170211e-17 9.310084762796294e-16 -1.5126955501298888e-15
0.0 -0.0 0.0
-1.677025177007354e-17 9.318320011050413e-16 -1.5122339439571478e-15
-1.513770615090285e-17 9.3171282653777e-16 -1.5123245946560334e-15
0.0 -0.0 0.0
0.0 -0.0 0.0
0.0 -0.0 0.0
0.0 -0.0 0.0
-1.4207401227428298e-17 1.3900913664651678e-15 -2.2731459015246845e-15
-4.36615888489892e-18 4.626335482180357e-16 -7.58163598401291e-16
-7.993894914007619e-18 9.238129492149315e-16 -1.5172176354732243e-15
3.99780416118572e-18 -4.6110694797002085e-16 7.59095056838518e-16
0.0 -0.0 0.0
-2.09157617161245e-18 2.299129237711307e-16 -3.799353880561555e-16
2.10519673357143e-18 -2.296639215134661e-16 3.800858818833217e-16

SCALARS Gamma float
LOOKUP_TABLE default
0.11797449703134152
0.08201283780519324
0.49022803471470155
0.6503795170841915
0.7722341598000148
0.8179562968538684
0.8300240195764855
0.8431041532493165
0.8312935394622961
0.8075845496172378
0.7698463345576199
0.7272776884581967
0.6865791852593344
0.6320789965887635
0.5911093951494202
0.5507065512293825
0.43738470535289203
0.3392869755404435
0.24413571783849927
0.18529168517133413
0.11797449703134152
0.08201283780519324
0.49022803471470155
0.6503795170841915
0.7722341598000148
0.8179562968538684
0.8300240195764855
0.8431041532493165
0.8312935394622961
0.8075845496172378
0.7698463345576199
0.7272776884581967
0.6865791852593344
0.6320789965887635
0.5911093951494202
0.5507065512293825
0.43738470535289203
0.3392869755404435
0.24413571783849927
0.18529168517133413

VECTORS Ftot float
-1.9505020286210537 -2.500355026813897 -1.4435806478006379
-1.9885201041896132 -2.0034841111866815 -1.1567120909107689
-17.786760191894366 -11.684583781542969 -6.74609759164257
-30.60977769157753 -15.279356917230121 -8.821540829207184
-44.07205416822858 -18.07322107351682 -10.434579051918556
-54.32810527796762 -19.28914343754571 -11.136592156104323
-62.48159303587318 -19.753534649120358 -11.40470854711624
-70.57666386700876 -20.148474609624976 -11.632727239627323
-76.2393743937124 -19.703832848525373 -11.376013199163518
-80.15498603848515 -18.976509695096887 -10.956092980743733
-81.83228583753862 -17.94588930138815 -10.361064019003676
-82.08495232348305 -16.76586548689287 -9.679776952054658
-81.62461937009788 -15.82117885144835 -9.13436186878092
-78.6813409128145 -14.388696555552281 -8.307317829635952
-76.5695158242045 -13.422200377156043 -7.749311000868141
-73.87342321320396 -12.34219774554587 -7.125771190782501
-60.309190513141196 -10.554747153795113 -6.093786110472046
-47.88348665029811 -8.836396122692815 -5.101695680102862
-35.109272705247044 -6.955844208168216 -4.01595852602702
-27.0807255810891 -5.5776286722754005 -3.220245415377978
-1.9505020286210537 -2.500355026813897 -1.4435806478006379
-1.9885201041896132 -2.0034841111866815 -1.1567120909107689
-17.786760191894366 -11.684583781542969 -6.74609759164257
-30.60977769157753 -15.279356917230121 -8.821540829207184
-44.07205416822858 -18.07322107351682 -10.434579051918556
-54.32810527796762 -19.28914343754571 -11.136592156104323
-62.48159303587318 -19.753534649120358 -11.40470854711624
-70.57666386700876 -20.148474609624976 -11.632727239627323
-76.2393743937124 -19.703832848525373 -11.376013199163518
-80.15498603848515 -18.976509695096887 -10.956092980743733
-81.83228583753862 -17.94588930138815 -10.361064019003676
-82.08495232348305 -16.76586548689287 -9.679776952054658
-81.62461937009788 -15.82117885144835 -9.13436186878092
-78.6813409128145 -14.388696555552281 -8.307317829635952
-76.5695158242045 -13.422200377156043 -7.749311000868141
-73.87342321320396 -12.34219774554587 -7.125771190782501
-60.309190513141196 -10.554747153795113 -6.093786110472046
-47.88348665029811 -8.836396122692815 -5.101695680102862
-35.109272705247044 -6.955844208168216 -4.01595852602702
-27.0807255810891 -5.5776286722754005 -3.220245415377978

VECTORS D float
-0.021157527617744806 0.011839096622704133 0.0076336421700957426
0.2526266848338419 -0.23551846102958313 -0.1485761240351862
0.7759000745982582 -0.9914064659272652 -0.6206000995717373
0.5812971636308959 -0.9305094407516644 -0.579928425278056
0.45178372482525686 -0.860599225218467 -0.5356088771464365
0.42337929157368226 -0.9301135997828924 -0.5781798675702459
0.4354008493145878 -1.0811995602110316 -0.671325335708841
0.4483063202882437 -1.24166123395954 -0.7700778618611817
0.4007815270969745 -1.2260262637548305 -0.75934181898407
0.3740722262488563 -1.2543817586247235 -0.7753214021504736
0.36865864656876063 -1.3482068143642205 -0.8318619147547508
0.3551581043078975 -1.408785618368629 -0.8674735454303855
0.3853535963236765 -1.6493146422097198 -1.0132863357639292
0.3593975235979667 -1.6506658920732442 -1.0116739575602949
0.3649823630331746 -1.7881233299553068 -1.0932197398076113
0.3363827911089473 -1.746654265386884 -1.0652860862276912
0.42053063583420053 -2.297950137149593 -1.398088373640865
0.44432041945025424 -2.5381517539788145 -1.541049253108407
0.4192269031322054 -2.4866920651962507 -1.5070970123588479
0.36379478655308906 -2.2261079972617175 -1.3471233117707226
-0.021157527617744806 0.011839096622704133 0.0076336421700957426
0.2526266848338419 -0.23551846102958313 -0.1485761240351862
0.7759000745982582 -0.9914064659272652 -0.6206000995717373
0.5812971636308959 -0.9305094407516644 -0.579928425278056
0.45178372482525686 -0.860599225218467 -0.5356088771464365
0.42337929157368226 -0.9301135997828924 -0.5781798675702459
0.4354008493145878 -1.0811995602110316 -0.671325335708841
0.4483063202882437 -1.24166123395954 -0.7700778618611817
0.4007815270969745 -1.2260262637548305 -0.75934181898407
0.3740722262488563 -1.2543817586247235 -0.7753214021504736
0.36865864656876063 -1.3482068143642205 -0.8318619147547508
0.3551581043078975 -1.408785618368629 -0.8674735454303855
0.3853535963236765 -1.6493146422097198 -1.0132863357639292
0.3593975235979667 -1.6506658920732442 -1.0116739575602949
0.3649823630331746 -1.7881233299553068 -1.0932197398076113
0.3363827911089473 -1.746654265386884 -1.0652860862276912
0.42053063583420053 -2.297950137149593 -1.398088373640865
0.44432041945025424 -2.5381517539788145 -1.541049253108407
0.4192269031322054 -2.4866920651962507 -1.5070970123588479
0.36379478655308906 -2.2261079972617175 -1.3471233117707226

VECTORS L float
-1.929344501003309 -2.512194123436601 -1.4512142899707339
-2.2411467890234555 -1.7679656501570984 -1.0081359668755825
-18.56266026649263 -10.693177315615706 -6.125497492070833
-31.191074855208434 -14.348847476478461 -8.24161240392913
-44.52383789305384 -17.212621848298355 -9.898970174772117
-54.75148456954132 -18.35902983776282 -10.558412288534077
-62.9169938851878 -18.672335088909332 -10.733383211407402
-71.02497018729701 -18.90681337566544 -10.862649377766141
-76.64015592080938 -18.477806584770544 -10.616671380179445
-80.529058264734 -17.722127936472162 -10.180771578593257
-82.20094448410738 -16.597682487023935 -9.529202104248926
-82.44011042779094 -15.357079868524238 -8.81230340662427
-82.00997296642157 -14.171864209238635 -8.121075533016993
-79.04073843641248 -12.738030663479043 -7.295643872075656
-76.93449818723768 -11.634077047200739 -6.656091261060529
-74.20980600431292 -10.595543480158987 -6.060485104554811
-60.72972114897539 -8.25679701664552 -4.695697736831181
-48.32780706974836 -6.298244368713999 -3.560646426994456
-35.528499608379256 -4.469152142971966 -2.5088615136681724
-27.444520367642202 -3.351520675013684 -1.8731221036072558
-1.929344501003309 -2.512194123436601 -1.4512142899707339
-2.2411467890234555 -1.7679656501570984 -1.0081359668755825
-18.56266026649263 -10.693177315615706 -6.125497492070833
-31.191074855208434 -14.348847476478461 -8.24161240392913
-44.52383789305384 -17.212621848298355 -9.898970174772117
-54.75148456954132 -18.35902983776282 -10.558412288534077
-62.9169938851878 -18.672335088909332 -10.733383211407402
-71.02497018729701 -18.90681337566544 -10.862649377766141
-76.64015592080938 -18.477806584770544 -10.616671380179445
-80.529058264734 -17.722127936472162 -10.180771578593257
-82.20094448410738 -16.597682487023935 -9.529202104248926
-82.44011042779094 -15.357079868524238 -8.81230340662427
-82.00997296642157 -14.171864209238635 -8.121075533016993
-79.04073843641248 -12.738030663479043 -7.295643872075656
-76.93449818723768 -11.634077047200739 -6.656091261060529
-74.20980600431292 -10.595543480158987 -6.060485104554811
-60.72972114897539 -8.25679701664552 -4.695697736831181
-48.32780706974836 -6.298244368713999 -3.560646426994456
-35.528499608379256 -4.469152142971966 -2.5088615136681724
-27.444520367642202 -3.351520675013684 -1.8731221036072558

SCALARS mu float
LOOKUP_TABLE default
-0.048115252571140056
0.5392560542219388
1.3135197228497644
0.8655027437332201
0.658318244672823
0.6337303749168003
0.685477402163106
0.7551760132653664
0.7363051579044279
0.7632388936443483
0.849508227161199
0.9335837928290178
1.1581052467630353
1.2305993269810014
1.4196345981036598
1.4895902638466918
2.1399181925594286
2.6445085065206007
2.990206587529007
3.2005186818082962
-0.048115252571140056
0.5392560542219388
1.3135197228497644
0.8655027437332201
0.658318244672823
0.6337303749168003
0.685477402163106
0.7551760132653664
0.7363051579044279
0.7632388936443483
0.849508227161199
0.9335837928290178
1.1581052467630353
1.2305993269810014
1.4196345981036598
1.4895902638466918
2.1399181925594286
2.6445085065206007
2.990206587529007
3.2005186818082962