# vtk DataFile Version 4.0
[MyVLM domain - lattices] 
ASCII
DATASET UNSTRUCTURED_GRID
POINTS 62 float
0.00022673658128986117 0.0012057383729371174 0.013455529609587737
-0.003724999406033424 -0.004610844634181937 0.02135341451690537
-0.00549739299719125 -0.009811686706424377 0.02922992204449227
-0.005451904080891177 -0.014419969265768117 0.0370656006697166
-0.004354059046121628 -0.019098176061625408 0.04430456052278561
-0.0029556321221654493 -0.02421206695208562 0.05063989264167705
-0.0016722727371407085 -0.02954180500869351 0.05625606211197686
-0.0006485493516483927 -0.034721711631902234 0.06145990971169422
0.0001374053121431227 -0.03969097338466951 0.06630246397342193
0.0007511984436382017 -0.04447412230561783 0.07076314007259984
0.0012455433643025467 -0.04904067787722053 0.07486751420024264
0.0016598526811940704 -0.053328444838147075 0.07866777437719379
0.002022453218220871 -0.05726723443059543 0.08222281596423774
0.002352563731918074 -0.06081483277406543 0.08556806061293276
0.002662053738196183 -0.06401244833748784 0.08866893031219765
0.002957000443680671 -0.06695016820637412 0.09144983302180594
0.0032390594424296184 -0.06971512373272715 0.09383765685642799
0.0035066635059833096 -0.07236165392012614 0.09578680597820197
0.0037560624618667195 -0.0748990156246704 0.09728951296258907
0.003982215822832984 -0.07729194219873538 0.09837537004060398
0.004179548496302947 -0.07946988916141422 0.09910357106015712
0.008285994416043337 -0.010510472464219302 0.0036244614173345604
0.007508437091591354 -0.015460436728987687 0.012249525791729957
0.00973309288421085 -0.020946953065624812 0.019886324149426437
0.010440442308044806 -0.029614897429528376 0.024315542051740135
0.01004693542569484 -0.036404656691165715 0.029782699009561642
0.0094954698488839 -0.04200336782662921 0.035711218639683545
0.009038213335578684 -0.047004373148514716 0.041603227626444805
0.008539133039147835 -0.051500840127069646 0.047380549179923084
0.008012046218423283 -0.05552931960452099 0.053012513501886516
0.007469873605570215 -0.05916105670977806 0.05843933883094411
0.0069256484677951155 -0.062454331696727594 0.06361212222755458
0.0064559301991455546 -0.06543887265669436 0.06850591886125171
0.006108090109537901 -0.06814258533083101 0.07309731303492659
0.005835591307912621 -0.07060731701051458 0.07735119070181896
0.005646315885461864 -0.07286403775040093 0.08124156490048959
0.005556570152728891 -0.07494043856919175 0.08474520010735892
0.005484703593381549 -0.07687303415838692 0.08783145685825688
0.005393245002100456 -0.07867493299117931 0.09048933583816203
0.005297730961761147 -0.08033541094591604 0.09272783565359798
0.00521698140800628 -0.0818317322405133 0.09456603389092585
0.005155604557614359 -0.0831351402055342 0.09602806026086391
0.005485628962270063 -0.010164729230108223 0.010303863219210833
0.005312774690522743 -0.015455587590555474 0.018373860798108353
0.006196413562335568 -0.021989650932206506 0.02486264016471357
0.006457021259275767 -0.028947100961184476 0.03045811054705095
0.006414690581931144 -0.03481678957088698 0.036428275764024784
0.006371643086760199 -0.040097136860776365 0.04235491169400487
0.006301402129423808 -0.04497239455841861 0.04808341278034685
0.00614279921665101 -0.04943789552641795 0.053617695216318116
0.005916795403470228 -0.05352952807914806 0.058927645130564206
0.005647913503504593 -0.05729512067529441 0.06397312968104231
0.005381266505789829 -0.060756091971954175 0.06873617648048191
0.005171795853183163 -0.06391750665391482 0.0732125357537458
0.005025757650311314 -0.06679147177858721 0.0773920484734259
0.004932542381279714 -0.06940516817428746 0.081251907216507
0.00490346403705614 -0.07179700568783 0.08475988229469364
0.004914985140555201 -0.07401321376522964 0.08787718259688516
0.0049224460918573685 -0.076090084887694 0.09057335511548584
0.004916956732429355 -0.07803646266951034 0.09284097917700888
0.004910301924250248 -0.07983654842283672 0.09469331145459556
0.004909940276999731 -0.08145780608728652 0.0961576529445163

CELLS 40 140
4 0 21 22 1
4 1 22 23 2
4 2 23 24 3
4 3 24 25 4
4 4 25 26 5
4 5 26 27 6
4 6 27 28 7
4 7 28 29 8
4 8 29 30 9
4 9 30 31 10
4 10 31 32 11
4 11 32 33 12
4 12 33 34 13
4 13 34 35 14
4 14 35 36 15
4 15 36 37 16
4 16 37 38 17
4 17 38 39 18
4 18 39 40 19
4 19 40 41 20
1 42
1 43
1 44
1 45
1 46
1 47
1 48
1 49
1 50
1 51
1 52
1 53
1 54
1 55
1 56
1 57
1 58
1 59
1 60
1 61

CELL_TYPES 40
9
9
9
9
9
9
9
9
9
9
9
9
9
9
9
9
9
9
9
9
1
1
1
1
1
1
1
1
1
1
1
1
1
1
1
1
1
1
1
1

CELL_DATA 40

VECTORS S float
0.0 -0.0 0.0
0.0 -0.0 0.0
0.0 -0.0 0.0
0.0 -0.0 0.0
0.0 -0.0 0.0
0.0 -0.0 0.0
-9.04355132833759e-18 1.3791951592791319e-15 -1.1194563625637351e-15
7.07793387980083e-18 -1.3768101263324805e-15 1.1224025123654966e-15
0.0 -0.0 0.0
0.0 -0.0 0.0
3.72361688542365e-18 -1.3715598738192272e-15 1.1288282721877244e-15
0.0 -0.0 0.0
0.0 -0.0 0.0
2.3425985899936497e-18 -1.3687972860093919e-15 1.132180251960445e-15
2.02907865654698e-18 -1.3680271847116309e-15 1.1331112591505841e-15
0.0 -0.0 0.0
-8.6015554326889e-19 6.83380347790454e-16 -5.673195445313438e-16
8.4826044797058e-19 -6.831365154744165e-16 5.676131489850253e-16
-1.69844323735486e-18 1.3658779673297608e-15 -1.135701595727389e-15
-8.287737796534399e-19 6.82785380915448e-16 -5.680355111814583e-16
0.0 -0.0 0.0
0.0 -0.0 0.0
0.0 -0.0 0.0
0.0 -0.0 0.0
0.0 -0.0 0.0
0.0 -0.0 0.0
-9.04355132833759e-18 1.3791951592791319e-15 -1.1194563625637351e-15
7.07793387980083e-18 -1.3768101263324805e-15 1.1224025123654966e-15
0.0 -0.0 0.0
0.0 -0.0 0.0
3.72361688542365e-18 -1.3715598738192272e-15 1.1288282721877244e-15
0.0 -0.0 0.0
0.0 -0.0 0.0
2.3425985899936497e-18 -1.3687972860093919e-15 1.132180251960445e-15
2.02907865654698e-18 -1.3680271847116309e-15 1.1331112591505841e-15
0.0 -0.0 0.0
-8.6015554326889e-19 6.83380347790454e-16 -5.673195445313438e-16
8.4826044797058e-19 -6.831365154744165e-16 5.676131489850253e-16
-1.69844323735486e-18 1.3658779673297608e-15 -1.135701595727389e-15
-8.287737796534399e-19 6.82785380915448e-16 -5.680355111814583e-16

SCALARS Gamma float
LOOKUP_TABLE default
0.29857931307560553
0.17665513518131007
0.5847484899678408
0.7781640244215018
0.9346542153442375
0.9943300265987806
1.0214666491455948
1.0058228598204244
0.9984894323671137
0.960411410536374
0.9079243806357814
0.8441487640604329
0.7872108212643926
0.7228224938728359
0.6696909354979153
0.6150260319903619
0.48138879309571103
0.37054977966265945
0.27333412837398424
0.2059639281369964
0.29857931307560553
0.17665513518131007
0.5847484899678408
0.7781640244215018
0.9346542153442375
0.9943300265987806
1.0214666491455948
1.0058228598204244
0.9984894323671137
0.960411410536374
0.9079243806357814
0.8441487640604329
0.7872108212643926
0.7228224938728359
0.6696909354979153
0.6150260319903619
0.48138879309571103
0.37054977966265945
0.27333412837398424
0.2059639281369964

VECTORS Ftot float
-4.651832477457629 -3.9489732807362903 -4.706203094376007
-4.367215257947394 -2.608920030051597 -3.109189818604978
-20.301482131686242 -9.349915500022274 -11.142795387603808
-35.64987967922688 -12.021908771658019 -14.327152968463258
-52.456763934457705 -13.92472130087786 -16.59483663619427
-65.3052585814967 -14.827160047672784 -17.67032125478334
-76.32744173131987 -15.312470773256134 -18.248692055521797
-83.78320846107796 -15.134459457534359 -18.03654643048795
-91.23092516385907 -15.101134441037736 -17.996831222354835
-95.05258575197837 -14.502147108085003 -17.282985916389997
-96.34644489754827 -13.654081967777374 -16.27230123867447
-95.22710016997087 -12.616353526550698 -15.035584640705391
-93.57314442064448 -11.846727683235827 -14.118380276981545
-89.98134518108743 -10.80011359178757 -12.871074173438364
-86.78349974671083 -9.983718972972467 -11.898132953490885
-82.52822723849955 -9.158274513882354 -10.91440655388326
-66.41835649611471 -7.852675417555729 -9.358454140348256
-52.337571240474496 -6.644593575173575 -7.918718264541498
-39.3605321712267 -5.3906038017663835 -6.424271447007079
-30.156091798351568 -4.289084176458881 -5.111531476233838
-4.651832477457629 -3.9489732807362903 -4.706203094376007
-4.367215257947394 -2.608920030051597 -3.109189818604978
-20.301482131686242 -9.349915500022274 -11.142795387603808
-35.64987967922688 -12.021908771658019 -14.327152968463258
-52.456763934457705 -13.92472130087786 -16.59483663619427
-65.3052585814967 -14.827160047672784 -17.67032125478334
-76.32744173131987 -15.312470773256134 -18.248692055521797
-83.78320846107796 -15.134459457534359 -18.03654643048795
-91.23092516385907 -15.101134441037736 -17.996831222354835
-95.05258575197837 -14.502147108085003 -17.282985916389997
-96.34644489754827 -13.654081967777374 -16.27230123867447
-95.22710016997087 -12.616353526550698 -15.035584640705391
-93.57314442064448 -11.846727683235827 -14.118380276981545
-89.98134518108743 -10.80011359178757 -12.871074173438364
-86.78349974671083 -9.983718972972467 -11.898132953490885
-82.52822723849955 -9.158274513882354 -10.91440655388326
-66.41835649611471 -7.852675417555729 -9.358454140348256
-52.337571240474496 -6.644593575173575 -7.918718264541498
-39.3605321712267 -5.3906038017663835 -6.424271447007079
-30.156091798351568 -4.289084176458881 -5.111531476233838

VECTORS D float
0.004313612476637671 -0.0019432043245065733 -0.0026394718876108694
0.293118355841844 -0.2256572177928612 -0.29422335259219495
1.2362056603153617 -1.323359583366458 -1.6935786678986906
0.8905439946766115 -1.2049774852573472 -1.5235293355465092
0.5013276064979562 -0.8135257747567765 -1.019774951804571
0.3988274499030499 -0.7509639619089432 -0.9341362499536041
0.36080263361330184 -0.7703587376240529 -0.9520138654938246
0.33512927733846437 -0.7985617306190853 -0.9816798233656603
0.3497713620640672 -0.9195571440041144 -1.1256810630317
0.338211741718059 -0.9726891795415572 -1.1867582134523684
0.3213507790128141 -1.0035305725656625 -1.2203794736633578
0.30297750464577033 -1.021221668276344 -1.2396606938516133
0.3364058987323037 -1.217542585146376 -1.4751123955724232
0.31572724763522286 -1.2203001202361814 -1.4759868068779347
0.3100652292401243 -1.2722652891623332 -1.536585780449366
0.30004170242287187 -1.298771083600084 -1.5665955389661217
0.3956950457027395 -1.79515669991969 -2.163005278145657
0.43273342797825604 -2.044237138457069 -2.460936834740724
0.4164365042741431 -2.035607987475707 -2.448794123774028
0.35509625749762397 -1.7852926621223435 -2.146460918058225
0.004313612476637671 -0.0019432043245065733 -0.0026394718876108694
0.293118355841844 -0.2256572177928612 -0.29422335259219495
1.2362056603153617 -1.323359583366458 -1.6935786678986906
0.8905439946766115 -1.2049774852573472 -1.5235293355465092
0.5013276064979562 -0.8135257747567765 -1.019774951804571
0.3988274499030499 -0.7509639619089432 -0.9341362499536041
0.36080263361330184 -0.7703587376240529 -0.9520138654938246
0.33512927733846437 -0.7985617306190853 -0.9816798233656603
0.3497713620640672 -0.9195571440041144 -1.1256810630317
0.338211741718059 -0.9726891795415572 -1.1867582134523684
0.3213507790128141 -1.0035305725656625 -1.2203794736633578
0.30297750464577033 -1.021221668276344 -1.2396606938516133
0.3364058987323037 -1.217542585146376 -1.4751123955724232
0.31572724763522286 -1.2203001202361814 -1.4759868068779347
0.3100652292401243 -1.2722652891623332 -1.536585780449366
0.30004170242287187 -1.298771083600084 -1.5665955389661217
0.3956950457027395 -1.79515669991969 -2.163005278145657
0.43273342797825604 -2.044237138457069 -2.460936834740724
0.4164365042741431 -2.035607987475707 -2.448794123774028
0.35509625749762397 -1.7852926621223435 -2.146460918058225

VECTORS L float
-4.656146089934266 -3.9470300764117847 -4.703563622488396
-4.660333613789239 -2.3832628122587365 -2.8149664660127827
-21.53768779200161 -8.026555916655818 -9.449216719705118
-36.5404236739035 -10.816931286400674 -12.80362363291675
-52.95809154095566 -13.111195526121078 -15.575061684389693
-65.70408603139974 -14.076196085763842 -16.736185004829736
-76.68824436493315 -14.542112035632083 -17.29667819002797
-84.11833773841643 -14.335897726915276 -17.05486660712229
-91.58069652592314 -14.181577297033623 -16.87115015932314
-95.39079749369643 -13.529457928543449 -16.09622770293763
-96.66779567656111 -12.650551395211714 -15.051921765011118
-95.53007767461665 -11.595131858274357 -13.79592394685378
-93.9095503193768 -10.629185098089453 -12.643267881409123
-90.29707242872264 -9.579813471551386 -11.39508736656043
-87.09356497595098 -8.711453683810136 -10.361547173041522
-82.82826894092243 -7.85950343028227 -9.34781101491714
-66.81405154181745 -6.057518717636039 -7.195448862202601
-52.77030466845275 -4.600356436716506 -5.457781429800774
-39.77696867550084 -3.354995814290677 -3.975477323233051
-30.511188055849203 -2.503791514336539 -2.965070558175614
-4.656146089934266 -3.9470300764117847 -4.703563622488396
-4.660333613789239 -2.3832628122587365 -2.8149664660127827
-21.53768779200161 -8.026555916655818 -9.449216719705118
-36.5404236739035 -10.816931286400674 -12.80362363291675
-52.95809154095566 -13.111195526121078 -15.575061684389693
-65.70408603139974 -14.076196085763842 -16.736185004829736
-76.68824436493315 -14.542112035632083 -17.29667819002797
-84.11833773841643 -14.335897726915276 -17.05486660712229
-91.58069652592314 -14.181577297033623 -16.87115015932314
-95.39079749369643 -13.529457928543449 -16.09622770293763
-96.66779567656111 -12.650551395211714 -15.051921765011118
-95.53007767461665 -11.595131858274357 -13.79592394685378
-93.9095503193768 -10.629185098089453 -12.643267881409123
-90.29707242872264 -9.579813471551386 -11.39508736656043
-87.09356497595098 -8.711453683810136 -10.361547173041522
-82.82826894092243 -7.85950343028227 -9.34781101491714
-66.81405154181745 -6.057518717636039 -7.195448862202601
-52.77030466845275 -4.600356436716506 -5.457781429800774
-39.77696867550084 -3.354995814290677 -3.975477323233051
-30.511188055849203 -2.503791514336539 -2.965070558175614

SCALARS mu float
LOOKUP_TABLE default
0.01173947929993686
0.7439185567298537
2.4815092715732097
1.5659482894114665
0.8619795812845916
0.7024181662050719
0.6658102513535191
0.6586466975669123
0.7457195196961374
0.7970644624737563
0.8494010537185931
0.9075232689126176
1.1454413519098565
1.2181803160016582
1.3519811266738833
1.4821267749559353
2.2365639094297234
2.8491971683752255
3.274087684652246
3.4329052670530493
0.01173947929993686
0.7439185567298537
2.4815092715732097
1.5659482894114665
0.8619795812845916
0.7024181662050719
0.6658102513535191
0.6586466975669123
0.7457195196961374
0.7970644624737563
0.8494010537185931
0.9075232689126176
1.1454413519098565
1.2181803160016582
1.3519811266738833
1.4821267749559353
2.2365639094297234
2.8491971683752255
3.274087684652246
3.4329052670530493