# vtk DataFile Version 4.0
[MyVLM domain - lattices] 
ASCII
DATASET UNSTRUCTURED_GRID
POINTS 62 float
0.00022673658128986117 -0.013056448694020941 -0.0034690387139465046
-0.003724999406033424 -0.018488644307483138 -0.011636074571895288
-0.00549739299719125 -0.024111347557758605 -0.019217191722545275
-0.005451904080891177 -0.029898351479299774 -0.026227520764509998
-0.004354059046121628 -0.03510070767656788 -0.033099467255562905
-0.0029556321221654493 -0.03930491882361102 -0.04007176398815151
-0.0016722727371407085 -0.04275951405792551 -0.04700092259784086
-0.0006485493516483927 -0.04587789884139089 -0.05364826332993033
0.0001374053121431227 -0.04872882372998752 -0.059974093032417734
0.0007511984436382017 -0.051284554864610254 -0.06599442385632309
0.0012455433643025467 -0.05357955095419658 -0.07168936105676539
0.0016598526811940704 -0.05568412472902094 -0.07701830955999328
0.002022453218220871 -0.057677625694014294 -0.08193545690797475
0.002352563731918074 -0.059607777311221 -0.08641324994705185
0.002662053738196183 -0.0614279927523367 -0.09047858559508683
0.002957000443680671 -0.06303642713707197 -0.0941902640211303
0.0032390594424296184 -0.06433457708879065 -0.09760515617619929
0.0035066635059833096 -0.06526101150132305 -0.10075872932597749
0.0037560624618667195 -0.06580526535189776 -0.10365702545417901
0.003982215822832984 -0.06600720814550702 -0.10627702589136419
0.004179548496302947 -0.06594659153769875 -0.10857268599773402
0.008285994416043337 0.00018891365044026737 -0.011116252229035332
0.007508437091591354 -0.006223008208689408 -0.018717642875315854
0.00973309288421085 -0.01152275216803141 -0.026485220659523565
0.010440442308044806 -0.012720243973007188 -0.03614530575743637
0.01004693542569484 -0.015535456587138362 -0.04439547023880768
0.0094954698488839 -0.01919157075075803 -0.051684210912317854
0.009038213335578684 -0.023017803560258072 -0.05839880446793284
0.008539133039147835 -0.026908827711504442 -0.06460006165304745
0.008012046218423283 -0.030823321897120518 -0.07031183933559886
0.007469873605570215 -0.03468074236786878 -0.07558063947089087
0.0069256484677951155 -0.038415202371540134 -0.08044450179304743
0.0064559301991455546 -0.04199309382896304 -0.08492282993562521
0.006108090109537901 -0.04538286885676505 -0.08903383807758163
0.005835591307912621 -0.04853721842772504 -0.09280484009851786
0.005646315885461864 -0.05142113040340975 -0.09625605026598334
0.005556570152728891 -0.05400329964758618 -0.09940554260880916
0.005484703593381549 -0.05624244572184856 -0.10227715039922113
0.005393245002100456 -0.05812374928915735 -0.1048794295854483
0.005297730961761147 -0.05965933413928496 -0.10720538049420195
0.00521698140800628 -0.060874903434804194 -0.10924016339765164
0.005155604557614359 -0.06180296704702112 -0.11096500871284747
0.005485628962270063 -0.006205922084531438 -0.01307584982486192
0.005312774690522743 -0.011979659124425526 -0.020807732112369852
0.006196413562335568 -0.015842335932521774 -0.02916703646724188
0.006457021259275767 -0.01872077010453804 -0.03761866450110063
0.006414690581931144 -0.02232333856423351 -0.04517628433713638
0.006371643086760199 -0.026086569476823106 -0.052165216590843055
0.006301402129423808 -0.029802163339325498 -0.05870572303633901
0.00614279921665101 -0.03347539642465666 -0.06479475741603587
0.005916795403470228 -0.037065696423695706 -0.07045574416352625
0.005647913503504593 -0.04051899250462919 -0.07571990108811293
0.005381266505789829 -0.043811070535590885 -0.08060120822534708
0.005171795853183163 -0.046936204810027436 -0.08510297131344856
0.005025757650311314 -0.049880708107338204 -0.08923309267291564
0.004932542381279714 -0.052613852069620264 -0.09300931332945528
0.00490346403705614 -0.05509221375529955 -0.09645670353007432
0.004914985140555201 -0.057263530041770844 -0.09960543740267756
0.0049224460918573685 -0.05908677170289144 -0.10247920318202317
0.004916956732429355 -0.06055194089231847 -0.1050837731273884
0.004910301924250248 -0.06167689827745903 -0.10740883537763798
0.004909940276999731 -0.0624984263910852 -0.10943315352757445

CELLS 40 140
4 0 21 22 1
4 1 22 23 2
4 2 23 24 3
4 3 24 25 4
4 4 25 26 5
4 5 26 27 6
4 6 27 28 7
4 7 28 29 8
4 8 29 30 9
4 9 30 31 10
4 10 31 32 11
4 11 32 33 12
4 12 33 34 13
4 13 34 35 14
4 14 35 36 15
4 15 36 37 16
4 16 37 38 17
4 17 38 39 18
4 18 39 40 19
4 19 40 41 20
1 42
1 43
1 44
1 45
1 46
1 47
1 48
1 49
1 50
1 51
1 52
1 53
1 54
1 55
1 56
1 57
1 58
1 59
1 60
1 61

CELL_TYPES 40
9
9
9
9
9
9
9
9
9
9
9
9
9
9
9
9
9
9
9
9
1
1
1
1
1
1
1
1
1
1
1
1
1
1
1
1
1
1
1
1

CELL_DATA 40

VECTORS S float
-2.22339287560732e-18 3.655539443776543e-17 1.0480797348340631e-16
0.0 -0.0 -0.0
0.0 -0.0 -0.0
-1.243022984865139e-17 2.834326513841574e-16 8.416485767446341e-16
-2.1665927583476148e-17 5.644850193270443e-16 1.6841409891755918e-15
9.667613602584609e-18 -2.815841953997776e-16 -8.423050417570245e-16
0.0 -0.0 -0.0
0.0 -0.0 -0.0
-7.15344602499063e-18 2.8123855160922746e-16 8.424456127962939e-16
-6.56227921195894e-18 2.81244544891454e-16 8.424484243449893e-16
1.199666275475164e-17 -5.631251957738993e-16 -1.6846927657146875e-15
5.4729863806371295e-18 -2.8204352571132835e-16 -8.421890531498332e-16
4.98310899829277e-18 -2.82945770107032e-16 -8.418894018956776e-16
0.0 -0.0 -0.0
0.0 -0.0 -0.0
0.0 -0.0 -0.0
3.85900179645077e-18 -2.859520267096728e-16 -8.4087897568364575e-16
-3.9069043469705e-18 2.8664418234754755e-16 8.406430598332097e-16
2.0219988107845e-18 -1.4363184526963502e-16 -4.2021545765297806e-16
1.03067704817939e-18 -7.190007580297367e-17 -2.1007885038875819e-16
-2.22339287560732e-18 3.655539443776543e-17 1.0480797348340631e-16
0.0 -0.0 -0.0
0.0 -0.0 -0.0
-1.243022984865139e-17 2.834326513841574e-16 8.416485767446341e-16
-2.1665927583476148e-17 5.644850193270443e-16 1.6841409891755918e-15
9.667613602584609e-18 -2.815841953997776e-16 -8.423050417570245e-16
0.0 -0.0 -0.0
0.0 -0.0 -0.0
-7.15344602499063e-18 2.8123855160922746e-16 8.424456127962939e-16
-6.56227921195894e-18 2.81244544891454e-16 8.424484243449893e-16
1.199666275475164e-17 -5.631251957738993e-16 -1.6846927657146875e-15
5.4729863806371295e-18 -2.8204352571132835e-16 -8.421890531498332e-16
4.98310899829277e-18 -2.82945770107032e-16 -8.418894018956776e-16
0.0 -0.0 -0.0
0.0 -0.0 -0.0
0.0 -0.0 -0.0
3.85900179645077e-18 -2.859520267096728e-16 -8.4087897568364575e-16
-3.9069043469705e-18 2.8664418234754755e-16 8.406430598332097e-16
2.0219988107845e-18 -1.4363184526963502e-16 -4.2021545765297806e-16
1.03067704817939e-18 -7.190007580297367e-17 -2.1007885038875819e-16

SCALARS Gamma float
LOOKUP_TABLE default
0.11298764273185642
0.07852803317658669
0.4875372583839271
0.6471991730733505
0.7660655877054033
0.8115329746491534
0.8230837606047265
0.8359443109564441
0.8244246500868077
0.799107269975082
0.7606933500855553
0.7183694745852403
0.6775747622035101
0.6230544812986846
0.5822963404558794
0.5425596032011157
0.4314926367517479
0.3346187082369026
0.2397162776742214
0.18198771503105943
0.11298764273185642
0.07852803317658669
0.4875372583839271
0.6471991730733505
0.7660655877054033
0.8115329746491534
0.8230837606047265
0.8359443109564441
0.8244246500868077
0.799107269975082
0.7606933500855553
0.7183694745852403
0.6775747622035101
0.6230544812986846
0.5822963404558794
0.5425596032011157
0.4314926367517479
0.3346187082369026
0.2397162776742214
0.18198771503105943

VECTORS Ftot float
-1.8700383845328046 2.6123779748431692 -0.9508278234955387
-1.892599443346868 2.0979321916981317 -0.7635848712869789
-17.67895688454835 12.620572759103986 -4.593512823704745
-30.43990613749053 16.521211269355085 -6.013229136068612
-43.69127991627136 19.5209264997538 -7.105036191208731
-53.85968928746859 20.836314501487244 -7.583798270350607
-61.89962405013205 21.33684322459953 -7.765975826958749
-69.90135911882253 21.762531990065202 -7.920913866649781
-75.55856851283873 21.290943433007204 -7.749269669060121
-79.23005418282982 20.484509462845555 -7.45575170802016
-80.77364206091525 19.3598292718108 -7.046401595414681
-80.99369015013897 18.10165623717396 -6.58846406125049
-80.46688342366855 17.079556222440505 -6.216450079444465
-77.47610016925992 15.530907679506225 -5.65278810647666
-75.34909921474127 14.498252695483389 -5.276932430025706
-72.7083809143439 13.33902055600719 -4.855006436651641
-59.44012508379204 11.410276701073062 -4.153001083931767
-47.180441830603556 9.538459100146117 -3.4717151932187837
-34.439994916206004 7.476603045884508 -2.7212609621259953
-26.569004410197138 6.002154035865038 -2.1846054105356374
-1.8700383845328046 2.6123779748431692 -0.9508278234955387
-1.892599443346868 2.0979321916981317 -0.7635848712869789
-17.67895688454835 12.620572759103986 -4.593512823704745
-30.43990613749053 16.521211269355085 -6.013229136068612
-43.69127991627136 19.5209264997538 -7.105036191208731
-53.85968928746859 20.836314501487244 -7.583798270350607
-61.89962405013205 21.33684322459953 -7.765975826958749
-69.90135911882253 21.762531990065202 -7.920913866649781
-75.55856851283873 21.290943433007204 -7.749269669060121
-79.23005418282982 20.484509462845555 -7.45575170802016
-80.77364206091525 19.3598292718108 -7.046401595414681
-80.99369015013897 18.10165623717396 -6.58846406125049
-80.46688342366855 17.079556222440505 -6.216450079444465
-77.47610016925992 15.530907679506225 -5.65278810647666
-75.34909921474127 14.498252695483389 -5.276932430025706
-72.7083809143439 13.33902055600719 -4.855006436651641
-59.44012508379204 11.410276701073062 -4.153001083931767
-47.180441830603556 9.538459100146117 -3.4717151932187837
-34.439994916206004 7.476603045884508 -2.7212609621259953
-26.569004410197138 6.002154035865038 -2.1846054105356374

VECTORS D float
-0.0220795605329271 -0.013938093138726614 0.0043929954898317795
0.2521808460637282 0.26326265415167927 -0.08532502115088607
0.7667022378337425 1.0953615697141241 -0.35844908131030456
0.5782035394003638 1.0336227909891527 -0.3395422426690629
0.4511489635626149 0.9575323876359285 -0.31513877459085704
0.42285616479531657 1.0344554939614286 -0.34096710062925534
0.43808104604329573 1.2106059498098964 -0.39966038482204674
0.4510971322764612 1.3894519792880757 -0.45947932665359764
0.40276555763189953 1.3695828225664393 -0.4537958555938956
0.37717938216337027 1.4030637162568846 -0.46546334301534603
0.3708495139897113 1.5020139917777013 -0.4994221995521688
0.35880455705732467 1.5735809923750066 -0.5246501328592815
0.3883175578880449 1.8337905820329323 -0.6140097007605265
0.3627008525185674 1.8346408738926734 -0.6164088144014584
0.3696779207229205 1.9908391521446114 -0.671185744214081
0.34001747210158106 1.937029281895212 -0.6552077902376021
0.4224249843843081 2.5289135104284513 -0.8580519025586064
0.44445320586671533 2.777656665503551 -0.9450654213704957
0.41831467306745956 2.711417205894631 -0.9247637556634601
0.36427390154666295 2.434932729445666 -0.8315753763381147
-0.0220795605329271 -0.013938093138726614 0.0043929954898317795
0.2521808460637282 0.26326265415167927 -0.08532502115088607
0.7667022378337425 1.0953615697141241 -0.35844908131030456
0.5782035394003638 1.0336227909891527 -0.3395422426690629
0.4511489635626149 0.9575323876359285 -0.31513877459085704
0.42285616479531657 1.0344554939614286 -0.34096710062925534
0.43808104604329573 1.2106059498098964 -0.39966038482204674
0.4510971322764612 1.3894519792880757 -0.45947932665359764
0.40276555763189953 1.3695828225664393 -0.4537958555938956
0.37717938216337027 1.4030637162568846 -0.46546334301534603
0.3708495139897113 1.5020139917777013 -0.4994221995521688
0.35880455705732467 1.5735809923750066 -0.5246501328592815
0.3883175578880449 1.8337905820329323 -0.6140097007605265
0.3627008525185674 1.8346408738926734 -0.6164088144014584
0.3696779207229205 1.9908391521446114 -0.671185744214081
0.34001747210158106 1.937029281895212 -0.6552077902376021
0.4224249843843081 2.5289135104284513 -0.8580519025586064
0.44445320586671533 2.777656665503551 -0.9450654213704957
0.41831467306745956 2.711417205894631 -0.9247637556634601
0.36427390154666295 2.434932729445666 -0.8315753763381147

VECTORS L float
-1.847958823999878 2.6263160679818967 -0.9552208189853706
-2.1447802894105967 1.8346695375464535 -0.6782598501360931
-18.445659122382096 11.525211189389864 -4.235063742394441
-31.018109676890898 15.487588478365932 -5.673686893399551
-44.14242887983398 18.563394112117866 -6.789897416617873
-54.282545452263925 19.80185900752582 -7.242831169721351
-62.33770509617537 20.126237274789638 -7.366315442136704
-70.35245625109901 20.373080010777137 -7.461434539996187
-75.96133407047064 19.921360610440768 -7.295473813466228
-79.60723356499318 19.08144574658867 -6.990288365004815
-81.14449157490496 17.857815280033094 -6.546979395862509
-81.35249470719631 16.528075244798952 -6.063813928391209
-80.85520098155659 15.245765640407573 -5.602440378683937
-77.8388010217785 13.696266805613554 -5.0363792920752015
-75.71877713546422 12.507413543338783 -4.605746685811627
-73.0483983864455 11.401991274111976 -4.199798646414039
-59.862550068176354 8.88136319064461 -3.2949491813731604
-47.62489503647027 6.7608024346425655 -2.5266497718482888
-34.858309589273475 4.765185839989877 -1.7964972064625349
-26.933278311743802 3.567221306419372 -1.3530300341975225
-1.847958823999878 2.6263160679818967 -0.9552208189853706
-2.1447802894105967 1.8346695375464535 -0.6782598501360931
-18.445659122382096 11.525211189389864 -4.235063742394441
-31.018109676890898 15.487588478365932 -5.673686893399551
-44.14242887983398 18.563394112117866 -6.789897416617873
-54.282545452263925 19.80185900752582 -7.242831169721351
-62.33770509617537 20.126237274789638 -7.366315442136704
-70.35245625109901 20.373080010777137 -7.461434539996187
-75.96133407047064 19.921360610440768 -7.295473813466228
-79.60723356499318 19.08144574658867 -6.990288365004815
-81.14449157490496 17.857815280033094 -6.546979395862509
-81.35249470719631 16.528075244798952 -6.063813928391209
-80.85520098155659 15.245765640407573 -5.602440378683937
-77.8388010217785 13.696266805613554 -5.0363792920752015
-75.71877713546422 12.507413543338783 -4.605746685811627
-73.0483983864455 11.401991274111976 -4.199798646414039
-59.862550068176354 8.88136319064461 -3.2949491813731604
-47.62489503647027 6.7608024346425655 -2.5266497718482888
-34.858309589273475 4.765185839989877 -1.7964972064625349
-26.933278311743802 3.567221306419372 -1.3530300341975225

SCALARS mu float
LOOKUP_TABLE default
-0.049916052637550425
0.5362040070663798
1.295323126920772
0.859351934048804
0.6550335110902533
0.6306987564469255
0.6872213400172367
0.7571154671185457
0.7370570822378315
0.7658149279573777
0.8496011532935075
0.9368764651670567
1.1580881267700653
1.2313410326206813
1.424340716730086
1.4900893729350209
2.1262420658713386
2.615082286137135
2.948257718988104
3.1674248857150338
-0.049916052637550425
0.5362040070663798
1.295323126920772
0.859351934048804
0.6550335110902533
0.6306987564469255
0.6872213400172367
0.7571154671185457
0.7370570822378315
0.7658149279573777
0.8496011532935075
0.9368764651670567
1.1580881267700653
1.2313410326206813
1.424340716730086
1.4900893729350209
2.1262420658713386
2.615082286137135
2.948257718988104
3.1674248857150338