# vtk DataFile Version 4.0
[MyVLM domain - lattices] 
ASCII
DATASET UNSTRUCTURED_GRID
POINTS 62 float
0.00022673658128986117 0.012255699649745095 0.005683564743512507
-0.003724999406033424 0.016187177112088308 0.014669815844557168
-0.00549739299719125 0.020408011687956657 0.023112130963983346
-0.005451904080891177 0.024889767153619735 0.031020860040803837
-0.004354059046121628 0.028819786885424484 0.03869178589670764
-0.0029556321221654493 0.03174939999656583 0.04628821137947361
-0.0016722727371407085 0.033948276401500097 0.05371198466716254
-0.0006485493516483927 0.035864987308673615 0.06079983919195114
0.0001374053121431227 0.03757413144215078 0.06752462323876572
0.0007511984436382017 0.039045615801618735 0.07389728976397995
0.0012455433643025467 0.04031683027699164 0.07990422996060256
0.0016598526811940704 0.04146406865075841 0.08551767516274805
0.002022453218220871 0.04257343018042444 0.09070628780349198
0.002352563731918074 0.04369669785633325 0.09545122041570801
0.002662053738196183 0.044783322008010856 0.09977087157480072
0.002957000443680671 0.045722794465541464 0.10370546296526259
0.0032390594424296184 0.04640823280290962 0.10729389660872946
0.0035066635059833096 0.04677298036443049 0.11056043354378632
0.0037560624618667195 0.04680568193508192 0.11350920673070497
0.003982215822832984 0.0465495984624895 0.11612447047224349
0.004179548496302947 0.04609126556314482 0.11837472837979507
0.008285994416043337 -0.0021163605696613258 0.010914566868457865
0.007508437091591354 0.002878182155456979 0.01951389385677001
0.00973309288421085 0.006748585368482809 0.028083755561424204
0.010440442308044806 0.006250428408831532 0.037805024530311544
0.01004693542569484 0.007590245589963125 0.04641870701538078
0.0094954698488839 0.009925138628751658 0.05423159290220381
0.009038213335578684 0.012527265429670337 0.061508595048798353
0.008539133039147835 0.015282339171536412 0.06829131045624383
0.008012046218423283 0.01814552360883865 0.07459605818332256
0.007469873605570215 0.021029423653074808 0.08045464744087046
0.0069256484677951155 0.023862547989339032 0.08589309893952175
0.0064559301991455546 0.02660842971509211 0.09092468554633666
0.006108090109537901 0.02923283737121406 0.09556186649351033
0.005835591307912621 0.031684437655492316 0.0998233255750747
0.005646315885461864 0.03392524017182541 0.10372289016439876
0.005556570152728891 0.03592127685717237 0.10727292362534503
0.005484703593381549 0.037627755811453625 0.11048972887627871
0.005393245002100456 0.039028597111839924 0.11337915853047899
0.005297730961761147 0.04013695584100587 0.11593642452942297
0.00521698140800628 0.04098072156442495 0.11815137590143168
0.005155604557614359 0.04159516955928359 0.12001117349560379
0.005485628962270063 0.0038410426899025455 0.013954845345469162
0.005312774690522743 0.008184436421483043 0.02257186188289039
0.006196413562335568 0.010536852521689925 0.0314749164099993
0.006457021259275767 0.011903947004428527 0.04029798007182356
0.006414690581931144 0.014139417442266836 0.04836636212861688
0.006371643086760199 0.01663186107166649 0.05590259498745533
0.006301402129423808 0.01915525968922425 0.06298894254678003
0.00614279921665101 0.021715338386493692 0.06962332104367698
0.005916795403470228 0.024268073628688734 0.07582175373441559
0.005647913503504593 0.02675479512573148 0.08160559485821989
0.005381266505789829 0.029149229005130436 0.08698440732261574
0.005171795853183163 0.03144516251126267 0.09196045238572262
0.005025757650311314 0.0336277441396096 0.0965391355531194
0.004932542381279714 0.035663631668287156 0.10073259240111614
0.00490346403705614 0.0375057084450682 0.10455797198866185
0.004914985140555201 0.039097265659291135 0.1080359146348579
0.0049224460918573685 0.0403937839921526 0.11118262404659864
0.004916956732429355 0.04138441514475622 0.11400204868177465
0.004910301924250248 0.04208853907673298 0.11648713481193904
0.004909940276999731 0.04254606717459499 0.11862335588039313

CELLS 40 140
4 0 21 22 1
4 1 22 23 2
4 2 23 24 3
4 3 24 25 4
4 4 25 26 5
4 5 26 27 6
4 6 27 28 7
4 7 28 29 8
4 8 29 30 9
4 9 30 31 10
4 10 31 32 11
4 11 32 33 12
4 12 33 34 13
4 13 34 35 14
4 14 35 36 15
4 15 36 37 16
4 16 37 38 17
4 17 38 39 18
4 18 39 40 19
4 19 40 41 20
1 42
1 43
1 44
1 45
1 46
1 47
1 48
1 49
1 50
1 51
1 52
1 53
1 54
1 55
1 56
1 57
1 58
1 59
1 60
1 61

CELL_TYPES 40
9
9
9
9
9
9
9
9
9
9
9
9
9
9
9
9
9
9
9
9
1
1
1
1
1
1
1
1
1
1
1
1
1
1
1
1
1
1
1
1

CELL_DATA 40

VECTORS S float
0.0 0.0 0.0
1.1051618665158e-18 8.71285432571385e-18 5.481197586082139e-17
0.0 0.0 0.0
-6.1735988433131095e-18 -6.65613423537814e-17 -4.3902927087682604e-16
5.32625869723823e-18 6.604841574978532e-17 4.3911782479248843e-16
9.534681968769749e-18 1.3135060546078777e-16 8.783604120780094e-16
8.63605740703516e-18 1.309718704735796e-16 8.784262592148108e-16
0.0 0.0 0.0
0.0 0.0 0.0
0.0 0.0 0.0
0.0 0.0 0.0
0.0 0.0 0.0
0.0 0.0 0.0
-2.2749862562824998e-18 -6.658526781517864e-17 -4.390631536040887e-16
0.0 0.0 0.0
0.0 0.0 0.0
0.0 0.0 0.0
-9.7965588087005e-19 -3.40631110633475e-17 -2.1941410919846143e-16
1.01427500147354e-18 3.4224286858144615e-17 2.1938886938854956e-16
5.1175925501906e-19 1.717862808452742e-17 1.0968402109549366e-16
0.0 0.0 0.0
1.1051618665158e-18 8.71285432571385e-18 5.481197586082139e-17
0.0 0.0 0.0
-6.1735988433131095e-18 -6.65613423537814e-17 -4.3902927087682604e-16
5.32625869723823e-18 6.604841574978532e-17 4.3911782479248843e-16
9.534681968769749e-18 1.3135060546078777e-16 8.783604120780094e-16
8.63605740703516e-18 1.309718704735796e-16 8.784262592148108e-16
0.0 0.0 0.0
0.0 0.0 0.0
0.0 0.0 0.0
0.0 0.0 0.0
0.0 0.0 0.0
0.0 0.0 0.0
-2.2749862562824998e-18 -6.658526781517864e-17 -4.390631536040887e-16
0.0 0.0 0.0
0.0 0.0 0.0
0.0 0.0 0.0
-9.7965588087005e-19 -3.40631110633475e-17 -2.1941410919846143e-16
1.01427500147354e-18 3.4224286858144615e-17 2.1938886938854956e-16
5.1175925501906e-19 1.717862808452742e-17 1.0968402109549366e-16

SCALARS Gamma float
LOOKUP_TABLE default
0.11339316723437587
0.07867049581978237
0.48744038347156016
0.6467907810241825
0.7668738221410983
0.8122948748321627
0.8237570302849403
0.8364723203275903
0.8248424074423464
0.8022749429894067
0.7603985227520248
0.7184902781937091
0.6780143008714201
0.6234831352278337
0.5827002575240783
0.542912819553299
0.4317376986400545
0.33479908413157167
0.23988372460340182
0.18199489611633765
0.11339316723437587
0.07867049581978237
0.48744038347156016
0.6467907810241825
0.7668738221410983
0.8122948748321627
0.8237570302849403
0.8364723203275903
0.8248424074423464
0.8022749429894067
0.7603985227520248
0.7184902781937091
0.6780143008714201
0.6234831352278337
0.5827002575240783
0.542912819553299
0.4317376986400545
0.33479908413157167
0.23988372460340182
0.18199489611633765

VECTORS Ftot float
-1.8762741899884519 -2.7458862336089847 0.4841738289412172
-1.896019996354907 -2.201115629357627 0.38811607311484797
-17.670678814378817 -13.220002196071507 2.3310430721925948
-30.414473758545086 -17.303517788852744 3.051077047343657
-43.749120736831614 -20.4763700268261 3.610536502699602
-53.91779321288916 -21.850062410399822 3.852755533117374
-61.95149119509049 -22.368431457736836 3.9441579821270345
-69.93832913802174 -22.808044090826723 4.021673550401073
-75.5800204494452 -22.309064737428933 3.9336900275805773
-79.55059223303692 -21.49831106399356 3.7907322802454204
-80.74207929033608 -20.286516104097423 3.577060133729195
-81.01226408756568 -18.97361961967831 3.345561060648812
-80.53000006882982 -17.906812373021992 3.1574541598479904
-77.53935098775845 -16.283046495624514 2.871140425309058
-75.4096057568978 -15.199358046960997 2.6800569131275775
-72.76156648920997 -13.982957573756847 2.465572690355139
-59.47673804324994 -11.960204331530358 2.108906718435079
-47.206494973325626 -9.998044986113358 1.7629250853887974
-34.4633963268642 -7.83771813118475 1.3820011737158169
-26.56997394802168 -6.290376539086645 1.1091631026565256
-1.8762741899884519 -2.7458862336089847 0.4841738289412172
-1.896019996354907 -2.201115629357627 0.38811607311484797
-17.670678814378817 -13.220002196071507 2.3310430721925948
-30.414473758545086 -17.303517788852744 3.051077047343657
-43.749120736831614 -20.4763700268261 3.610536502699602
-53.91779321288916 -21.850062410399822 3.852755533117374
-61.95149119509049 -22.368431457736836 3.9441579821270345
-69.93832913802174 -22.808044090826723 4.021673550401073
-75.5800204494452 -22.309064737428933 3.9336900275805773
-79.55059223303692 -21.49831106399356 3.7907322802454204
-80.74207929033608 -20.286516104097423 3.577060133729195
-81.01226408756568 -18.97361961967831 3.345561060648812
-80.53000006882982 -17.906812373021992 3.1574541598479904
-77.53935098775845 -16.283046495624514 2.871140425309058
-75.4096057568978 -15.199358046960997 2.6800569131275775
-72.76156648920997 -13.982957573756847 2.465572690355139
-59.47673804324994 -11.960204331530358 2.108906718435079
-47.206494973325626 -9.998044986113358 1.7629250853887974
-34.4633963268642 -7.83771813118475 1.3820011737158169
-26.56997394802168 -6.290376539086645 1.1091631026565256

VECTORS D float
-0.022002375263711606 0.014443816493579563 -0.0019105399443961417
0.25205065804468846 -0.2739654716202133 0.0384672224580085
0.7664268667144983 -1.1405225182234688 0.16319130425236675
0.5777398653114378 -1.0757246120549286 0.15496675171857072
0.4514155279575184 -0.9986377103549625 0.1447312753134527
0.4229776557149913 -1.0786815751460415 0.1567153057843701
0.43773915621765064 -1.2611426977757179 0.1837307069163013
0.4506488305067759 -1.4472750721197367 0.21148620999750006
0.4023475795838355 -1.42665974998102 0.2092204466148837
0.37566117352291434 -1.460020275098049 0.21502882719310357
0.3709551376872583 -1.5659418808141883 0.23132932363021289
0.35881325619976967 -1.6408527665331096 0.24390267582133596
0.38826676948598526 -1.9129879364567908 0.28624948239102743
0.36262700108368945 -1.9141700970312008 0.2884108039391339
0.3695360752114012 -2.0772415807033333 0.31515989942229233
0.33989817319627186 -2.021599330407935 0.3087832652821823
0.42235699327768644 -2.6403472216229633 0.40581707195790173
0.4444280673185354 -2.9008755942124993 0.4483643341634843
0.4183050951389795 -2.8322632845452573 0.4398943072000547
0.36427042370313195 -2.542340695806527 0.3964798708364081
-0.022002375263711606 0.014443816493579563 -0.0019105399443961417
0.25205065804468846 -0.2739654716202133 0.0384672224580085
0.7664268667144983 -1.1405225182234688 0.16319130425236675
0.5777398653114378 -1.0757246120549286 0.15496675171857072
0.4514155279575184 -0.9986377103549625 0.1447312753134527
0.4229776557149913 -1.0786815751460415 0.1567153057843701
0.43773915621765064 -1.2611426977757179 0.1837307069163013
0.4506488305067759 -1.4472750721197367 0.21148620999750006
0.4023475795838355 -1.42665974998102 0.2092204466148837
0.37566117352291434 -1.460020275098049 0.21502882719310357
0.3709551376872583 -1.5659418808141883 0.23132932363021289
0.35881325619976967 -1.6408527665331096 0.24390267582133596
0.38826676948598526 -1.9129879364567908 0.28624948239102743
0.36262700108368945 -1.9141700970312008 0.2884108039391339
0.3695360752114012 -2.0772415807033333 0.31515989942229233
0.33989817319627186 -2.021599330407935 0.3087832652821823
0.42235699327768644 -2.6403472216229633 0.40581707195790173
0.4444280673185354 -2.9008755942124993 0.4483643341634843
0.4183050951389795 -2.8322632845452573 0.4398943072000547
0.36427042370313195 -2.542340695806527 0.3964798708364081

VECTORS L float
-1.854271814724741 -2.7603300501025645 0.4860843688856134
-2.148070654399596 -1.9271501577374142 0.3496488506568395
-18.437105681093314 -12.079479677848038 2.167851767940228
-30.992213623856525 -16.227793176797814 2.8961102956250864
-44.20053626478914 -19.47773231647114 3.4658052273861495
-54.34077086860414 -20.771380835253783 3.696040227333004
-62.38923035130814 -21.10728875996112 3.760427275210732
-70.38897796852852 -21.360769018706986 3.810187340403573
-75.98236802902905 -20.882404987447913 3.724469580965694
-79.92625340655985 -20.038290788895516 3.575703453052317
-81.11303442802337 -18.720574223283243 3.345730810098984
-81.37107734376545 -17.332766853145202 3.1016583848274766
-80.91826683831583 -15.993824436565207 2.8712046774569635
-77.90197798884215 -14.368876398593313 2.582729621369925
-75.7791418321092 -13.122116466257665 2.364897013705285
-73.10146466240623 -11.961358243348911 2.1567894250729567
-59.89909503652763 -9.319857109907398 1.7030896464771779
-47.65092304064415 -7.09716939190086 1.3145607512253132
-34.88170142200318 -5.005454846639495 0.9421068665157624
-26.934244371724812 -3.748035843280118 0.7126832318201173
-1.854271814724741 -2.7603300501025645 0.4860843688856134
-2.148070654399596 -1.9271501577374142 0.3496488506568395
-18.437105681093314 -12.079479677848038 2.167851767940228
-30.992213623856525 -16.227793176797814 2.8961102956250864
-44.20053626478914 -19.47773231647114 3.4658052273861495
-54.34077086860414 -20.771380835253783 3.696040227333004
-62.38923035130814 -21.10728875996112 3.760427275210732
-70.38897796852852 -21.360769018706986 3.810187340403573
-75.98236802902905 -20.882404987447913 3.724469580965694
-79.92625340655985 -20.038290788895516 3.575703453052317
-81.11303442802337 -18.720574223283243 3.345730810098984
-81.37107734376545 -17.332766853145202 3.1016583848274766
-80.91826683831583 -15.993824436565207 2.8712046774569635
-77.90197798884215 -14.368876398593313 2.582729621369925
-75.7791418321092 -13.122116466257665 2.364897013705285
-73.10146466240623 -11.961358243348911 2.1567894250729567
-59.89909503652763 -9.319857109907398 1.7030896464771779
-47.65092304064415 -7.09716939190086 1.3145607512253132
-34.88170142200318 -5.005454846639495 0.9421068665157624
-26.934244371724812 -3.748035843280118 0.7126832318201173

SCALARS mu float
LOOKUP_TABLE default
-0.04977369273310553
0.5361766618031889
1.2952319907727847
0.8586279691011595
0.6555141294140333
0.631075562317531
0.6869866021294836
0.7567774134267081
0.7367701720686951
0.7644852722371723
0.849634161511468
0.9368939707659918
1.1581949627106587
1.2314141048828045
1.424248253956338
1.4901273805979454
2.126820136391448
2.6162182223008696
2.949824539575085
3.167494505034904
-0.04977369273310553
0.5361766618031889
1.2952319907727847
0.8586279691011595
0.6555141294140333
0.631075562317531
0.6869866021294836
0.7567774134267081
0.7367701720686951
0.7644852722371723
0.849634161511468
0.9368939707659918
1.1581949627106587
1.2314141048828045
1.424248253956338
1.4901273805979454
2.126820136391448
2.6162182223008696
2.949824539575085
3.167494505034904