# vtk DataFile Version 4.0
[MyVLM domain - lattices] 
ASCII
DATASET UNSTRUCTURED_GRID
POINTS 62 float
0.00022673658128986117 -0.011049961276807841 0.007771964866074927
-0.003724999406033424 -0.020798021746269896 0.0066835986723478066
-0.00549739299719125 -0.030219698394380493 0.00611779108050843
-0.005451904080891177 -0.03930973641938713 0.006044740628912161
-0.004354059046121628 -0.04791796294704899 0.005612774626077281
-0.0029556321221654493 -0.055961466948650375 0.004351681262202678
-0.0016722727371407085 -0.06349008141019236 0.0025440774448135094
-0.0006485493516483927 -0.07058669894057444 0.0006600705197422237
0.0001374053121431227 -0.07726510482681871 -0.0012221592653446894
0.0007511984436382017 -0.08351973810723484 -0.003134149691381056
0.0012455433643025467 -0.08935750815421031 -0.005036715760360896
0.0016598526811940704 -0.0947925134889035 -0.006849900785555243
0.002022453218220871 -0.09984066461101775 -0.008483471839255243
0.002352563731918074 -0.10451153063039648 -0.009883159802776315
0.002662053738196183 -0.10879577034549637 -0.011101941262604121
0.002957000443680671 -0.11267296267191317 -0.01225562994345774
0.0032390594424296184 -0.11612335653563427 -0.013456239752302568
0.0035066635059833096 -0.11913463428455406 -0.014773627565585479
0.0037560624618667195 -0.12170469755974969 -0.01621969376811699
0.003982215822832984 -0.12384154066122217 -0.01774910043164061
0.004179548496302947 -0.1255611547245563 -0.01927115731963905
0.008285994416043337 -0.008394111894557727 -0.007290105451123248
0.007508437091591354 -0.018338618884444217 -0.007264368065040117
0.00973309288421085 -0.027695538434106975 -0.008197431411997922
0.010440442308044806 -0.03586532583835904 -0.013489482478571546
0.01004693542569484 -0.043994902281127776 -0.016636008005819304
0.0094954698488839 -0.051928506455379615 -0.01852037426252049
0.009038213335578684 -0.059531638578183645 -0.019905367422353833
0.008539133039147835 -0.06678317929860449 -0.020910761276321084
0.008012046218423283 -0.07367484321335792 -0.021583544681436462
0.007469873605570215 -0.08019048036285101 -0.02201530860992682
0.0069256484677951155 -0.08631687968606463 -0.02228097671196773
0.0064559301991455546 -0.09204730237178436 -0.02241876668508556
0.006108090109537901 -0.09737542270204286 -0.02246455345858441
0.005835591307912621 -0.1022917546660046 -0.022472134873256486
0.005646315885461864 -0.10678927792222394 -0.022481325263909956
0.005556570152728891 -0.11086171542636164 -0.02252772351798694
0.005484703593381549 -0.114500789969838 -0.022658272018022715
0.005393245002100456 -0.11770353010301661 -0.022889822692317888
0.005297730961761147 -0.12047236678691924 -0.023208588875825928
0.00521698140800628 -0.12281245380493551 -0.023585342010506816
0.005155604557614359 -0.12473030976481503 -0.023983113234740866
0.005485628962270063 -0.014005771920010446 -0.0036509821262584196
0.005312774690522743 -0.023640024012037995 -0.004198001084782235
0.006196413562335568 -0.032526503453895704 -0.006612276245285976
0.006457021259275767 -0.04085104796561207 -0.009839869524772886
0.006414690581931144 -0.04895620701315269 -0.011938086364592426
0.006371643086760199 -0.05672899793244156 -0.013547683293450848
0.006301402129423808 -0.0641276542476414 -0.014905529766433626
0.00614279921665101 -0.07115323391291005 -0.016005625827359385
0.005916795403470228 -0.07779760170783503 -0.01689410860385195
0.005647913503504593 -0.08404991580102401 -0.017632465177178203
0.005381266505789829 -0.0899053209770826 -0.0182482308421345
0.005171795853183163 -0.09536266916517537 -0.01874791663197755
0.005025757650311314 -0.10041921591819458 -0.019147087079694283
0.004932542381279714 -0.10506879984257231 -0.01948068518460997
0.00490346403705614 -0.10930271413289577 -0.019798089693969068
0.004914985140555201 -0.11311047942451828 -0.02015873203797366
0.0049224460918573685 -0.11648386887984404 -0.020609268931113735
0.004916956732429355 -0.11942087781426391 -0.02116106950476674
0.004910301924250248 -0.121925087499567 -0.021793823357344477
0.004909940276999731 -0.12400387326187877 -0.022465702935877838

CELLS 40 140
4 0 21 22 1
4 1 22 23 2
4 2 23 24 3
4 3 24 25 4
4 4 25 26 5
4 5 26 27 6
4 6 27 28 7
4 7 28 29 8
4 8 29 30 9
4 9 30 31 10
4 10 31 32 11
4 11 32 33 12
4 12 33 34 13
4 13 34 35 14
4 14 35 36 15
4 15 36 37 16
4 16 37 38 17
4 17 38 39 18
4 18 39 40 19
4 19 40 41 20
1 42
1 43
1 44
1 45
1 46
1 47
1 48
1 49
1 50
1 51
1 52
1 53
1 54
1 55
1 56
1 57
1 58
1 59
1 60
1 61

CELL_TYPES 40
9
9
9
9
9
9
9
9
9
9
9
9
9
9
9
9
9
9
9
9
1
1
1
1
1
1
1
1
1
1
1
1
1
1
1
1
1
1
1
1

CELL_DATA 40

VECTORS S float
0.0 -0.0 -0.0
0.0 -0.0 -0.0
0.0 -0.0 -0.0
-1.262634504318208e-17 8.26805331266902e-16 3.2418270283975754e-16
0.0 -0.0 -0.0
-9.826872932233889e-18 8.261086451985395e-16 3.260503705221313e-16
-8.766000169859089e-18 8.261032863847492e-16 3.2609419296631267e-16
7.97498850256932e-18 -8.260559726658939e-16 -3.2623432499110174e-16
0.0 -0.0 -0.0
-6.539127271662679e-18 8.261775310352278e-16 3.25958329005522e-16
0.0 -0.0 -0.0
0.0 -0.0 -0.0
5.04877055548989e-18 -8.267021872592631e-16 -3.246519809236348e-16
0.0 -0.0 -0.0
0.0 -0.0 -0.0
0.0 -0.0 -0.0
0.0 -0.0 -0.0
-1.9771981697908297e-18 4.1407625730442654e-16 1.6047482708951163e-16
0.0 -0.0 -0.0
0.0 -0.0 -0.0
0.0 -0.0 -0.0
0.0 -0.0 -0.0
0.0 -0.0 -0.0
-1.262634504318208e-17 8.26805331266902e-16 3.2418270283975754e-16
0.0 -0.0 -0.0
-9.826872932233889e-18 8.261086451985395e-16 3.260503705221313e-16
-8.766000169859089e-18 8.261032863847492e-16 3.2609419296631267e-16
7.97498850256932e-18 -8.260559726658939e-16 -3.2623432499110174e-16
0.0 -0.0 -0.0
-6.539127271662679e-18 8.261775310352278e-16 3.25958329005522e-16
0.0 -0.0 -0.0
0.0 -0.0 -0.0
5.04877055548989e-18 -8.267021872592631e-16 -3.246519809236348e-16
0.0 -0.0 -0.0
0.0 -0.0 -0.0
0.0 -0.0 -0.0
0.0 -0.0 -0.0
-1.9771981697908297e-18 4.1407625730442654e-16 1.6047482708951163e-16
0.0 -0.0 -0.0
0.0 -0.0 -0.0

SCALARS Gamma float
LOOKUP_TABLE default
0.11344198582744634
0.07688245038278059
0.48904609612073013
0.6466950555552498
0.7659467162155014
0.8097611591002852
0.8308547008107532
0.8336004590343821
0.8208847398379546
0.7972220255311927
0.7579814150738508
0.716852357642672
0.6762446520366093
0.621930592771805
0.5812076849421005
0.5414428969995058
0.43052065968934017
0.33361818160784146
0.23876904323830742
0.18072218788744188
0.11344198582744634
0.07688245038278059
0.48904609612073013
0.6466950555552498
0.7659467162155014
0.8097611591002852
0.8308547008107532
0.8336004590343821
0.8208847398379546
0.7972220255311927
0.7579814150738508
0.716852357642672
0.6762446520366093
0.621930592771805
0.5812076849421005
0.5414428969995058
0.43052065968934017
0.33361818160784146
0.23876904323830742
0.18072218788744188

VECTORS Ftot float
-1.877437731934251 0.9542048795317775 -2.6216563600469938
-1.8458461313902492 0.7496623725630522 -2.059680440831778
-17.745403044879446 4.607363851214116 -12.658628144422353
-30.428595380920473 6.014496037435877 -16.524692052254483
-43.68321046698415 7.104215904513792 -19.518672780582165
-53.73373728583048 7.575016697756425 -20.81218732907763
-62.46543178947661 7.841147387783444 -21.54337539055075
-69.67774049591556 7.908282540984341 -21.72782770802184
-75.19937458116047 7.730892800023425 -21.240453400288818
-79.03200737270933 7.448234557691173 -20.463856262058215
-80.46443019524949 7.034645811087632 -19.327530519824442
-80.79613336997339 6.581001741650085 -18.081153682575266
-80.28445854133497 6.209999010170765 -17.061832055279844
-77.3104226698553 5.646882706391867 -15.51468272612056
-75.18040909250678 5.271456811730561 -14.483208557860067
-72.52958576840786 4.849746039593894 -13.324567733873794
-59.28026470539516 4.148092193746766 -11.396789636135304
-47.01695280410076 3.465530293194172 -9.521466226987005
-34.28606395195759 2.7142752564519466 -7.457409977286176
-26.363814788463635 2.1761527426107348 -5.978930521607279
-1.877437731934251 0.9542048795317775 -2.6216563600469938
-1.8458461313902492 0.7496623725630522 -2.059680440831778
-17.745403044879446 4.607363851214116 -12.658628144422353
-30.428595380920473 6.014496037435877 -16.524692052254483
-43.68321046698415 7.104215904513792 -19.518672780582165
-53.73373728583048 7.575016697756425 -20.81218732907763
-62.46543178947661 7.841147387783444 -21.54337539055075
-69.67774049591556 7.908282540984341 -21.72782770802184
-75.19937458116047 7.730892800023425 -21.240453400288818
-79.03200737270933 7.448234557691173 -20.463856262058215
-80.46443019524949 7.034645811087632 -19.327530519824442
-80.79613336997339 6.581001741650085 -18.081153682575266
-80.28445854133497 6.209999010170765 -17.061832055279844
-77.3104226698553 5.646882706391867 -15.51468272612056
-75.18040909250678 5.271456811730561 -14.483208557860067
-72.52958576840786 4.849746039593894 -13.324567733873794
-59.28026470539516 4.148092193746766 -11.396789636135304
-47.01695280410076 3.465530293194172 -9.521466226987005
-34.28606395195759 2.7142752564519466 -7.457409977286176
-26.363814788463635 2.1761527426107348 -5.978930521607279

VECTORS D float
-0.0220057069560355 -0.005606289399462368 0.013452617911881517
0.2515387149571189 0.1037814694836285 -0.25522556796055934
0.7717990520655225 0.4338122668644117 -1.0777242678714565
0.5780028540545651 0.40438961227605785 -1.0088552566273858
0.45110915911456545 0.374467109507751 -0.9357701870365218
0.42272435203869124 0.4036257245240297 -1.009919545356349
0.43864725809453575 0.47218273922291415 -1.1844017435389804
0.45189104747255576 0.5415005945773956 -1.3600836590597423
0.40363622020832574 0.5329248950668058 -1.3407289800805846
0.37798415065371777 0.5455440799443788 -1.3751591374857681
0.3715478083120092 0.5824717878171832 -1.471565440733786
0.3592624243607652 0.6093369880927897 -1.5429304375800794
0.38858052550896127 0.7086137785560103 -1.7983894787200227
0.36288815340990344 0.7072914134029676 -1.8005510195607826
0.3699639484929426 0.765870206724588 -1.9557162024715267
0.34023669281610713 0.7432174265576622 -1.903598906655315
0.42241715955608883 0.9672833891940045 -2.4845171395999928
0.4441703341249413 1.0592914599138366 -2.7278373704044125
0.4178390912809482 1.031323838488218 -2.6618116025887604
0.3641438082040991 0.9232445751071254 -2.3887801641058646
-0.0220057069560355 -0.005606289399462368 0.013452617911881517
0.2515387149571189 0.1037814694836285 -0.25522556796055934
0.7717990520655225 0.4338122668644117 -1.0777242678714565
0.5780028540545651 0.40438961227605785 -1.0088552566273858
0.45110915911456545 0.374467109507751 -0.9357701870365218
0.42272435203869124 0.4036257245240297 -1.009919545356349
0.43864725809453575 0.47218273922291415 -1.1844017435389804
0.45189104747255576 0.5415005945773956 -1.3600836590597423
0.40363622020832574 0.5329248950668058 -1.3407289800805846
0.37798415065371777 0.5455440799443788 -1.3751591374857681
0.3715478083120092 0.5824717878171832 -1.471565440733786
0.3592624243607652 0.6093369880927897 -1.5429304375800794
0.38858052550896127 0.7086137785560103 -1.7983894787200227
0.36288815340990344 0.7072914134029676 -1.8005510195607826
0.3699639484929426 0.765870206724588 -1.9557162024715267
0.34023669281610713 0.7432174265576622 -1.903598906655315
0.42241715955608883 0.9672833891940045 -2.4845171395999928
0.4441703341249413 1.0592914599138366 -2.7278373704044125
0.4178390912809482 1.031323838488218 -2.6618116025887604
0.3641438082040991 0.9232445751071254 -2.3887801641058646

VECTORS L float
-1.8554320249782152 0.9598111689312399 -2.635108977958875
-2.097384846347368 0.6458809030794237 -1.8044548728712182
-18.51720209694497 4.173551584349704 -11.580903876550897
-31.00659823497503 5.6101064251598185 -15.515836795627099
-44.13431962609873 6.729748795006045 -18.582902593545647
-54.15646163786917 7.171390973232391 -19.802267783721284
-62.90407904757118 7.3689646485605325 -20.358973647011773
-70.12963154338813 7.366781946406948 -20.367744048962106
-75.60301080136878 7.197967904956617 -19.89972442020823
-79.40999152336305 6.902690477746793 -19.088697124572448
-80.83597800356151 6.452174023270451 -17.85596507909066
-81.15539579433417 5.971664753557297 -16.538223244995187
-80.67303906684394 5.501385231614756 -15.263442576559816
-77.67331082326521 4.939591292988901 -13.714131706559774
-75.55037304099974 4.505586605005974 -12.527492355388546
-72.86982246122393 4.106528613036231 -11.420968827218474
-59.70268186495126 3.180808804552763 -8.912272496535314
-47.46112313822571 2.4062388332803355 -6.793628856582596
-34.70390304323854 1.6829514179637288 -4.795598374697416
-26.727958596667737 1.2529081675036096 -3.5901503575014155
-1.8554320249782152 0.9598111689312399 -2.635108977958875
-2.097384846347368 0.6458809030794237 -1.8044548728712182
-18.51720209694497 4.173551584349704 -11.580903876550897
-31.00659823497503 5.6101064251598185 -15.515836795627099
-44.13431962609873 6.729748795006045 -18.582902593545647
-54.15646163786917 7.171390973232391 -19.802267783721284
-62.90407904757118 7.3689646485605325 -20.358973647011773
-70.12963154338813 7.366781946406948 -20.367744048962106
-75.60301080136878 7.197967904956617 -19.89972442020823
-79.40999152336305 6.902690477746793 -19.088697124572448
-80.83597800356151 6.452174023270451 -17.85596507909066
-81.15539579433417 5.971664753557297 -16.538223244995187
-80.67303906684394 5.501385231614756 -15.263442576559816
-77.67331082326521 4.939591292988901 -13.714131706559774
-75.55037304099974 4.505586605005974 -12.527492355388546
-72.86982246122393 4.106528613036231 -11.420968827218474
-59.70268186495126 3.180808804552763 -8.912272496535314
-47.46112313822571 2.4062388332803355 -6.793628856582596
-34.70390304323854 1.6829514179637288 -4.795598374697416
-26.727958596667737 1.2529081675036096 -3.5901503575014155

SCALARS mu float
LOOKUP_TABLE default
-0.049776807024668385
0.534450361943677
1.3046988895222624
0.8581569244194522
0.6549652341268225
0.629860852599383
0.6875641048164397
0.757632968368023
0.7373512943430083
0.7665052364476888
0.8496810704942821
0.9372510225398789
1.1578975347245473
1.2311516025527598
1.4244445670529258
1.4897267433065675
2.1236820959903344
2.609373929089708
2.93922495012866
3.1547283103239847
-0.049776807024668385
0.534450361943677
1.3046988895222624
0.8581569244194522
0.6549652341268225
0.629860852599383
0.6875641048164397
0.757632968368023
0.7373512943430083
0.7665052364476888
0.8496810704942821
0.9372510225398789
1.1578975347245473
1.2311516025527598
1.4244445670529258
1.4897267433065675
2.1236820959903344
2.609373929089708
2.93922495012866
3.1547283103239847