# vtk DataFile Version 4.0
[MyVLM domain - lattices] 
ASCII
DATASET UNSTRUCTURED_GRID
POINTS 62 float
0.00022673658128986117 -0.01346048415161062 -0.0011491076984754718
-0.003724999406033424 -0.02022834340130031 -0.008248777061504045
-0.00549739299719125 -0.027082072332948345 -0.014738347834985625
-0.005451904080891177 -0.03399848952457679 -0.020637271541552038
-0.004354059046121628 -0.040315111226773455 -0.026501438050996032
-0.0029556321221654493 -0.04566617758144895 -0.03263775632533987
-0.0016722727371407085 -0.050271525517058505 -0.03886176127899757
-0.0006485493516483927 -0.05449683363314896 -0.04486661213396
0.0001374053121431227 -0.058402915366762634 -0.05060128035763434
0.0007511984436382017 -0.061965238679276974 -0.056086350774580754
0.0012455433643025467 -0.06521428408821867 -0.061296247193784514
0.0016598526811940704 -0.06821224685491828 -0.06617878159440221
0.002022453218220871 -0.0710293157371778 -0.07067505861564935
0.002352563731918074 -0.07370770461549739 -0.07474965660596773
0.002662053738196183 -0.07620620502094633 -0.07843715357643846
0.002957000443680671 -0.07843472986801313 -0.08181314156728808
0.0032390594424296184 -0.08030614780469492 -0.08495073246384618
0.0035066635059833096 -0.08176611982741246 -0.08789552210397467
0.0037560624618667195 -0.0828053890800665 -0.09065527791221224
0.003982215822832984 -0.0834592222102816 -0.09320040765754431
0.004179548496302947 -0.08379816369896449 -0.09547171749206039
0.008285994416043337 -0.001744273314454526 -0.010980175890728463
0.007508437091591354 -0.009378751306494862 -0.017352665786679287
0.00973309288421085 -0.015946805973748215 -0.02408194573005128
0.010440442308044806 -0.018803561360816956 -0.03338733015952826
0.01004693542569484 -0.02300863059723363 -0.04102329956421974
0.0094954698488839 -0.02787487670690585 -0.04756643032733309
0.009038213335578684 -0.03280895737723778 -0.053514595764529355
0.008539133039147835 -0.03771770513798201 -0.058945972665730866
0.008012046218423283 -0.042564569146911584 -0.0638912308291695
0.007469873605570215 -0.04727830427511715 -0.06841015201623624
0.0069256484677951155 -0.05180063026871199 -0.07255163916647236
0.0064559301991455546 -0.05610181903637134 -0.07634063711034408
0.006108090109537901 -0.06015396483694252 -0.07980056154496033
0.005835591307912621 -0.06391522037904851 -0.08296652651708136
0.005646315885461864 -0.06735461560803349 -0.08586451898814638
0.005556570152728891 -0.0704444595051957 -0.08851777448173496
0.005484703593381549 -0.07314823737903534 -0.09095693246201718
0.005393245002100456 -0.07545284075635947 -0.0931929922440145
0.005297730961761147 -0.07736899375882102 -0.09521695522120324
0.00521698140800628 -0.0789194321685038 -0.09700974380722238
0.005155604557614359 -0.08013291265484462 -0.09854722829135354
0.005485628962270063 -0.008382237676969887 -0.011799551224025347
0.005312774690522743 -0.015410885946872238 -0.018411369930835173
0.006196413562335568 -0.02066645798265258 -0.02597293088065953
0.006457021259275767 -0.024968772078187755 -0.03379632484547401
0.006414690581931144 -0.029828976340080107 -0.0406135480063743
0.006371643086760199 -0.034748650668867294 -0.046842824484990594
0.006301402129423808 -0.039543543336983365 -0.05263875983796729
0.00614279921665101 -0.044218321481824044 -0.05799743787203692
0.005916795403470228 -0.04873709678901573 -0.06294897245855403
0.005647913503504593 -0.05305204079987288 -0.06753349643956139
0.005381266505789829 -0.05714173485729836 -0.07176898220232952
0.005171795853183163 -0.0610011142765047 -0.07565967952199561
0.005025757650311314 -0.06461807200008103 -0.07921574742596778
0.004932542381279714 -0.0679654271997112 -0.08245999333726117
0.00490346403705614 -0.07100477002858088 -0.08542464694417132
0.004914985140555201 -0.07368987104067515 -0.08814849935779885
0.0049224460918573685 -0.07598443775478647 -0.09066200358573949
0.004916956732429355 -0.07787962655662754 -0.09297258030148002
0.004910301924250248 -0.07939123613404031 -0.09506697283187918
0.004909940276999731 -0.08055180254741141 -0.09691788018066656

CELLS 40 140
4 0 21 22 1
4 1 22 23 2
4 2 23 24 3
4 3 24 25 4
4 4 25 26 5
4 5 26 27 6
4 6 27 28 7
4 7 28 29 8
4 8 29 30 9
4 9 30 31 10
4 10 31 32 11
4 11 32 33 12
4 12 33 34 13
4 13 34 35 14
4 14 35 36 15
4 15 36 37 16
4 16 37 38 17
4 17 38 39 18
4 18 39 40 19
4 19 40 41 20
1 42
1 43
1 44
1 45
1 46
1 47
1 48
1 49
1 50
1 51
1 52
1 53
1 54
1 55
1 56
1 57
1 58
1 59
1 60
1 61

CELL_TYPES 40
9
9
9
9
9
9
9
9
9
9
9
9
9
9
9
9
9
9
9
9
1
1
1
1
1
1
1
1
1
1
1
1
1
1
1
1
1
1
1
1

CELL_DATA 40

VECTORS S float
0.0 -0.0 -0.0
-4.6499392387440795e-18 1.0755105143548621e-16 1.9420338816949263e-16
-1.501333280424729e-17 4.268061726743823e-16 7.787631193284425e-16
1.260463739045703e-17 -4.2504718181899895e-16 -7.797672226793032e-16
0.0 -0.0 -0.0
-1.9453327118030988e-17 8.469556512754686e-16 1.5613235775202501e-15
1.756131796922599e-17 -8.464145140732214e-16 -1.5616394242466546e-15
-3.189514025850228e-17 1.6925096504640222e-15 3.1234865561820868e-15
0.0 -0.0 -0.0
1.3080307849989129e-17 -8.467092063731801e-16 -1.561523629751883e-15
-1.1912366116214059e-17 8.474501510520541e-16 1.5611309867847128e-15
5.4216743421760796e-18 -4.2421882343133336e-16 -7.803011601393878e-16
-4.993906408039189e-18 4.2482137187185646e-16 7.799761330455653e-16
-4.55617339950786e-18 4.254832901034107e-16 7.796179297243889e-16
0.0 -0.0 -0.0
-3.87874215111572e-18 4.2678466898681245e-16 7.78909947874691e-16
-3.8453315255715894e-18 4.277025278095655e-16 7.784064917199611e-16
-3.89153903464569e-18 4.283434774203023e-16 7.780537426787668e-16
0.0 -0.0 -0.0
0.0 -0.0 -0.0
0.0 -0.0 -0.0
-4.6499392387440795e-18 1.0755105143548621e-16 1.9420338816949263e-16
-1.501333280424729e-17 4.268061726743823e-16 7.787631193284425e-16
1.260463739045703e-17 -4.2504718181899895e-16 -7.797672226793032e-16
0.0 -0.0 -0.0
-1.9453327118030988e-17 8.469556512754686e-16 1.5613235775202501e-15
1.756131796922599e-17 -8.464145140732214e-16 -1.5616394242466546e-15
-3.189514025850228e-17 1.6925096504640222e-15 3.1234865561820868e-15
0.0 -0.0 -0.0
1.3080307849989129e-17 -8.467092063731801e-16 -1.561523629751883e-15
-1.1912366116214059e-17 8.474501510520541e-16 1.5611309867847128e-15
5.4216743421760796e-18 -4.2421882343133336e-16 -7.803011601393878e-16
-4.993906408039189e-18 4.2482137187185646e-16 7.799761330455653e-16
-4.55617339950786e-18 4.254832901034107e-16 7.796179297243889e-16
0.0 -0.0 -0.0
-3.87874215111572e-18 4.2678466898681245e-16 7.78909947874691e-16
-3.8453315255715894e-18 4.277025278095655e-16 7.784064917199611e-16
-3.89153903464569e-18 4.283434774203023e-16 7.780537426787668e-16
0.0 -0.0 -0.0
0.0 -0.0 -0.0

SCALARS Gamma float
LOOKUP_TABLE default
0.11598200948611792
0.07969373918621137
0.48742863105220574
0.6447118952140853
0.763595824199005
0.8090055149758211
0.8297790270288555
0.8321667449168032
0.8201272167201682
0.7977263889433558
0.7592330658018867
0.716864913486962
0.6762010825795551
0.6216547399964002
0.5812490958961036
0.5415624464588087
0.43048919823938775
0.3337914702327267
0.23917396333869168
0.18145311794618976
0.11598200948611792
0.07969373918621137
0.48742863105220574
0.6447118952140853
0.763595824199005
0.8090055149758211
0.8297790270288555
0.8321667449168032
0.8201272167201682
0.7977263889433558
0.7592330658018867
0.716864913486962
0.6762010825795551
0.6216547399964002
0.5812490958961036
0.5415624464588087
0.43048919823938775
0.3337914702327267
0.23917396333869168
0.18145311794618976

VECTORS Ftot float
-1.9205410063082016 2.466453673029577 -1.424007692067377
-1.925825820549055 1.9585154444578143 -1.1307494190697662
-17.68803169285301 11.640608085332868 -6.72070821159791
-30.32361906710735 15.196556262919389 -8.773735849151858
-43.519595516746726 17.94467685296739 -10.360364011581638
-53.67238276851608 19.166730359367104 -11.065916932465644
-62.395049060437216 19.850914927963938 -11.460931077320415
-69.57555801797453 20.021645557987622 -11.559502452523503
-75.12341543069985 19.56567957377106 -11.296250368794759
-79.08227773964919 18.863591581830967 -10.890899677653339
-80.60017592162725 17.823506068343224 -10.290406026460957
-80.79681626559059 16.663484077904947 -9.620667018015528
-80.27321133259348 15.721859937410528 -9.077020067025622
-77.26575296118367 14.293370833301987 -8.252281498234101
-75.16275583530735 13.340246981565036 -7.701995185862718
-72.5257995755961 12.273940058475745 -7.086362596778348
-59.24895121550974 10.494004232174788 -6.058716168323226
-47.02297988043641 8.769828064293478 -5.063262593666607
-34.332962000695886 6.874325802441373 -3.9688938525367425
-26.46990794538813 5.518133947251531 -3.1858961198701046
-1.9205410063082016 2.466453673029577 -1.424007692067377
-1.925825820549055 1.9585154444578143 -1.1307494190697662
-17.68803169285301 11.640608085332868 -6.72070821159791
-30.32361906710735 15.196556262919389 -8.773735849151858
-43.519595516746726 17.94467685296739 -10.360364011581638
-53.67238276851608 19.166730359367104 -11.065916932465644
-62.395049060437216 19.850914927963938 -11.460931077320415
-69.57555801797453 20.021645557987622 -11.559502452523503
-75.12341543069985 19.56567957377106 -11.296250368794759
-79.08227773964919 18.863591581830967 -10.890899677653339
-80.60017592162725 17.823506068343224 -10.290406026460957
-80.79681626559059 16.663484077904947 -9.620667018015528
-80.27321133259348 15.721859937410528 -9.077020067025622
-77.26575296118367 14.293370833301987 -8.252281498234101
-75.16275583530735 13.340246981565036 -7.701995185862718
-72.5257995755961 12.273940058475745 -7.086362596778348
-59.24895121550974 10.494004232174788 -6.058716168323226
-47.02297988043641 8.769828064293478 -5.063262593666607
-34.332962000695886 6.874325802441373 -3.9688938525367425
-26.46990794538813 5.518133947251531 -3.1858961198701046

VECTORS D float
-0.021590614074232423 -0.01273157739093363 0.0065955158846271586
0.25265132494840425 0.24541320942078154 -0.12986197428107335
0.7661831657572628 1.0156487307206803 -0.5418620556246345
0.5761125880108043 0.9536763663210086 -0.5105315407286617
0.45046222045837764 0.8857709148934036 -0.475108309132835
0.42255760136789133 0.957402774393396 -0.5140878871172164
0.43946135364093913 1.1241696277631357 -0.6043622836352426
0.453063447991553 1.2908304867207179 -0.694830118404958
0.40383676025304627 1.2700807160265606 -0.6845050780240497
0.3777283360249977 1.301471575016168 -0.7025363821453234
0.3711382045480176 1.3919457410114606 -0.7527769958141239
0.3592469497788391 1.4584389627843488 -0.7903993642127837
0.3885216362533118 1.6983010484334091 -0.9225081513050748
0.3628846231885887 1.6985745493288866 -0.9248911485681465
0.3695820629085418 1.8422868063948894 -1.0054175931412812
0.3398913522455107 1.791788857097914 -0.9800743531893497
0.4219486273930164 2.335886554771068 -1.281389688296325
0.44376257360940524 2.564531344437108 -1.40963701411698
0.41759552662094324 2.5028921787857223 -1.3781637754935951
0.36383595192874113 2.247404983503525 -1.2393164157414036
-0.021590614074232423 -0.01273157739093363 0.0065955158846271586
0.25265132494840425 0.24541320942078154 -0.12986197428107335
0.7661831657572628 1.0156487307206803 -0.5418620556246345
0.5761125880108043 0.9536763663210086 -0.5105315407286617
0.45046222045837764 0.8857709148934036 -0.475108309132835
0.42255760136789133 0.957402774393396 -0.5140878871172164
0.43946135364093913 1.1241696277631357 -0.6043622836352426
0.453063447991553 1.2908304867207179 -0.694830118404958
0.40383676025304627 1.2700807160265606 -0.6845050780240497
0.3777283360249977 1.301471575016168 -0.7025363821453234
0.3711382045480176 1.3919457410114606 -0.7527769958141239
0.3592469497788391 1.4584389627843488 -0.7903993642127837
0.3885216362533118 1.6983010484334091 -0.9225081513050748
0.3628846231885887 1.6985745493288866 -0.9248911485681465
0.3695820629085418 1.8422868063948894 -1.0054175931412812
0.3398913522455107 1.791788857097914 -0.9800743531893497
0.4219486273930164 2.335886554771068 -1.281389688296325
0.44376257360940524 2.564531344437108 -1.40963701411698
0.41759552662094324 2.5028921787857223 -1.3781637754935951
0.36383595192874113 2.247404983503525 -1.2393164157414036

VECTORS L float
-1.8989503922339688 2.47918525042051 -1.430603207952004
-2.17847714549746 1.713102235037033 -1.000887444788693
-18.454214858610275 10.624959354612187 -6.178846155973275
-30.899731655118156 14.242879896598378 -8.263204308423196
-43.97005773720509 17.058905938073984 -9.8852557024488
-54.094940369883965 18.209327584973714 -10.55182904534843
-62.83451041407816 18.72674530020081 -10.856568793685176
-70.02862146596608 18.7308150712669 -10.864672334118547
-75.52725219095292 18.29559885774451 -10.611745290770713
-79.46000607567417 17.562120006814798 -10.188363295508013
-80.97131412617526 16.43156032733176 -9.537629030646833
-81.15606321536943 15.205045115120598 -8.830267653802743
-80.6617329688468 14.023558888977123 -8.15451191572055
-77.62863758437224 12.594796283973096 -7.327390349665954
-75.5323378982159 11.497960175170151 -6.6965775927214395
-72.86569092784161 10.48215120137783 -6.106288243589
-59.67089984290276 8.158117677403721 -4.777326480026902
-47.46674245404583 6.205296719856371 -3.653625579549628
-34.75055752731683 4.37143362365565 -2.590730077043148
-26.83374389731688 3.2707289637480064 -1.9465797041287014
-1.8989503922339688 2.47918525042051 -1.430603207952004
-2.17847714549746 1.713102235037033 -1.000887444788693
-18.454214858610275 10.624959354612187 -6.178846155973275
-30.899731655118156 14.242879896598378 -8.263204308423196
-43.97005773720509 17.058905938073984 -9.8852557024488
-54.094940369883965 18.209327584973714 -10.55182904534843
-62.83451041407816 18.72674530020081 -10.856568793685176
-70.02862146596608 18.7308150712669 -10.864672334118547
-75.52725219095292 18.29559885774451 -10.611745290770713
-79.46000607567417 17.562120006814798 -10.188363295508013
-80.97131412617526 16.43156032733176 -9.537629030646833
-81.15606321536943 15.205045115120598 -8.830267653802743
-80.6617329688468 14.023558888977123 -8.15451191572055
-77.62863758437224 12.594796283973096 -7.327390349665954
-75.5323378982159 11.497960175170151 -6.6965775927214395
-72.86569092784161 10.48215120137783 -6.106288243589
-59.67089984290276 8.158117677403721 -4.777326480026902
-47.46674245404583 6.205296719856371 -3.653625579549628
-34.75055752731683 4.37143362365565 -2.590730077043148
-26.83374389731688 3.2707289637480064 -1.9465797041287014

SCALARS mu float
LOOKUP_TABLE default
-0.048921736551424164
0.5375072706473383
1.292909897137595
0.8544110034642134
0.6535895370999443
0.6294659576962462
0.6881207043523483
0.7584763622457681
0.7374256629979615
0.7662808568774173
0.8495614741905875
0.9372318737776434
1.1578083427971986
1.231032318859251
1.423831486898415
1.4892436929340538
2.123127264607822
2.6105105071733408
2.942932910093156
3.1617427361047596
-0.048921736551424164
0.5375072706473383
1.292909897137595
0.8544110034642134
0.6535895370999443
0.6294659576962462
0.6881207043523483
0.7584763622457681
0.7374256629979615
0.7662808568774173
0.8495614741905875
0.9372318737776434
1.1578083427971986
1.231032318859251
1.423831486898415
1.4892436929340538
2.123127264607822
2.6105105071733408
2.942932910093156
3.1617427361047596