# vtk DataFile Version 4.0
[MyVLM domain - lattices] 
ASCII
DATASET UNSTRUCTURED_GRID
POINTS 62 float
0.00022673658128986117 0.011082567373295013 0.007725398534369428
-0.003724999406033424 0.013393870731249518 0.017257822186067202
-0.00549739299719125 0.016084588709968334 0.026304819801383394
-0.005451904080891177 0.01912491984780683 0.03487164618207049
-0.004354059046121628 0.02166319145328327 0.04310847420236933
-0.0029556321221654493 0.023229191716596535 0.0510982148909956
-0.0016722727371407085 0.024105537545271796 0.05879103526194823
-0.0006485493516483927 0.024762336285141497 0.0661040427063277
0.0001374053121431227 0.02527776818387214 0.07302345193711197
0.0007511984436382017 0.02562029546052989 0.0795548239159913
0.0012455433643025467 0.025829103113120717 0.08569124927057825
0.0016598526811940704 0.025984147828373615 0.09141862947971446
0.002022453218220871 0.026175662533997418 0.09672105404369653
0.002352563731918074 0.026457916348676717 0.1015889538526811
0.002662053738196183 0.026777932685925848 0.10603167010821145
0.002957000443680671 0.027019897821025728 0.11006962389469185
0.0032390594424296184 0.027071797847010956 0.1137225662861349
0.0035066635059833096 0.02686377588743467 0.1170028149346462
0.0037560624618667195 0.026383931557486338 0.11991246819914864
0.003982215822832984 0.025677602785422464 0.12244353177964121
0.004179548496302947 0.024835479807760335 0.12458001454053902
0.008285994416043337 -0.0039795029439033715 0.010381247916619643
0.007508437091591354 -0.0005540960061386005 0.01971722504789298
0.00973309288421085 0.001769366217461783 0.028828979761657013
0.010440442308044806 -0.0004093032596771502 0.03831605676309871
0.01004693542569484 -0.000585591178613622 0.047031534868290696
0.0094954698488839 0.00035713619187305486 0.055131175384266505
0.009038213335578684 0.0016560926781041437 0.06274947809395709
0.008539133039147835 0.0031915044890778936 0.0699075623482978
0.008012046218423283 0.004916382767780085 0.07661371355057289
0.007469873605570215 0.0067391365419838594 0.08288408166037527
0.0069256484677951155 0.00858484216151365 0.08873187773872404
0.0064559301991455546 0.01041528192884308 0.0941638405968337
0.006108090109537901 0.012194580914668055 0.09918629595267153
0.005835591307912621 0.013868941278196368 0.10380872981707305
0.005646315885461864 0.015398548684619854 0.10803816253148397
0.005556570152728891 0.016747804246496384 0.11188087114024348
0.005484703593381549 0.01786976558129068 0.11534513285193125
0.005393245002100456 0.018747580760702147 0.1184339191161837
0.005297730961761147 0.019395036449777303 0.12114479897197915
0.00521698140800628 0.01984136120655618 0.12347261863592793
0.005155604557614359 0.020123523892658455 0.12541085950028036
0.005485628962270063 0.0013594551568023268 0.014409829951746814
0.005312774690522743 0.004140533759398425 0.02365015705201257
0.006196413562335568 0.004911212178891131 0.03282644694471513
0.006457021259275767 0.0047254284982772244 0.04175286190982601
0.006414690581931144 0.005525877276207265 0.05008685248137957
0.006371643086760199 0.0066718019839749915 0.057941401323451824
0.006301402129423808 0.00792633316649493 0.0653582749118801
0.00614279921665101 0.009295470779948444 0.07233641529250646
0.005916795403470228 0.010733077696711732 0.07888395768574347
0.005647913503504593 0.01217766683551789 0.08501174392298344
0.005381266505789829 0.013601702901570567 0.09072462921962075
0.005171795853183163 0.014998674861613057 0.09602376164649083
0.005025757650311314 0.016353018182658427 0.10091188565070144
0.004932542381279714 0.017629789865381405 0.10539516262582045
0.00490346403705614 0.018779611162537537 0.1094822993772607
0.004914985140555201 0.019743050643924735 0.11318377526966884
0.0049224460918573685 0.020473451595053014 0.11650781714064073
0.004916956732429355 0.020959444884544917 0.11945642967478541
0.004910301924250248 0.021221340913988657 0.12202603160031386
0.004909940276999731 0.02130096723635334 0.12420924759110064

CELLS 40 140
4 0 21 22 1
4 1 22 23 2
4 2 23 24 3
4 3 24 25 4
4 4 25 26 5
4 5 26 27 6
4 6 27 28 7
4 7 28 29 8
4 8 29 30 9
4 9 30 31 10
4 10 31 32 11
4 11 32 33 12
4 12 33 34 13
4 13 34 35 14
4 14 35 36 15
4 15 36 37 16
4 16 37 38 17
4 17 38 39 18
4 18 39 40 19
4 19 40 41 20
1 42
1 43
1 44
1 45
1 46
1 47
1 48
1 49
1 50
1 51
1 52
1 53
1 54
1 55
1 56
1 57
1 58
1 59
1 60
1 61

CELL_TYPES 40
9
9
9
9
9
9
9
9
9
9
9
9
9
9
9
9
9
9
9
9
1
1
1
1
1
1
1
1
1
1
1
1
1
1
1
1
1
1
1
1

CELL_DATA 40

VECTORS S float
1.3799331323629999e-19 -9.28576364741e-20 6.9369001661067196e-18
-1.3963506863134e-19 1.1839176912616e-19 -6.93647850470917e-18
1.83260109041156e-18 -2.41188035166871e-18 1.109809715694135e-16
-7.7705647116542e-19 1.34435428546593e-18 -5.5489429676428886e-17
-1.3296887884284698e-18 2.7977758308048897e-18 -1.1097907920957355e-16
0.0 -0.0 0.0
0.0 -0.0 0.0
9.8392505707768e-19 -2.9696853880269498e-18 1.109782163501311e-16
8.925097492995e-19 -2.9750414414035997e-18 1.1097884572677646e-16
0.0 -0.0 0.0
7.4724119451715e-19 -2.92792930320399e-18 1.1098117184762001e-16
-3.3855058422855e-19 1.42274321644235e-18 -5.549188315656231e-17
-3.1102399191236e-19 1.37651487357286e-18 -5.5493210232413705e-17
-2.834234540576e-19 1.3281145340791699e-18 -5.5494537514512495e-17
2.6177663966136e-19 -1.27800205152856e-18 5.549582051620459e-17
-2.4005416348921997e-19 1.2292686428766599e-18 -5.549701959224306e-17
0.0 -0.0 0.0
0.0 -0.0 0.0
0.0 -0.0 0.0
0.0 -0.0 0.0
1.3799331323629999e-19 -9.28576364741e-20 6.9369001661067196e-18
-1.3963506863134e-19 1.1839176912616e-19 -6.93647850470917e-18
1.83260109041156e-18 -2.41188035166871e-18 1.109809715694135e-16
-7.7705647116542e-19 1.34435428546593e-18 -5.5489429676428886e-17
-1.3296887884284698e-18 2.7977758308048897e-18 -1.1097907920957355e-16
0.0 -0.0 0.0
0.0 -0.0 0.0
9.8392505707768e-19 -2.9696853880269498e-18 1.109782163501311e-16
8.925097492995e-19 -2.9750414414035997e-18 1.1097884572677646e-16
0.0 -0.0 0.0
7.4724119451715e-19 -2.92792930320399e-18 1.1098117184762001e-16
-3.3855058422855e-19 1.42274321644235e-18 -5.549188315656231e-17
-3.1102399191236e-19 1.37651487357286e-18 -5.5493210232413705e-17
-2.834234540576e-19 1.3281145340791699e-18 -5.5494537514512495e-17
2.6177663966136e-19 -1.27800205152856e-18 5.549582051620459e-17
-2.4005416348921997e-19 1.2292686428766599e-18 -5.549701959224306e-17
0.0 -0.0 0.0
0.0 -0.0 0.0
0.0 -0.0 0.0
0.0 -0.0 0.0

SCALARS Gamma float
LOOKUP_TABLE default
0.1133516996685542
0.0785261519182718
0.4870118941473793
0.6458853304906499
0.7668508595011141
0.8122262410175228
0.823454940059731
0.8357935620306062
0.8236158099339276
0.7978373874888154
0.7599952867436927
0.7178884867540045
0.6773261763101968
0.6227863276356791
0.5820703188693004
0.5424035478361111
0.4314180483248321
0.33459016905882943
0.23972458280267717
0.18189813854380626
0.1133516996685542
0.0785261519182718
0.4870118941473793
0.6458853304906499
0.7668508595011141
0.8122262410175228
0.823454940059731
0.8357935620306062
0.8236158099339276
0.7978373874888154
0.7599952867436927
0.7178884867540045
0.6773261763101968
0.6227863276356791
0.5820703188693004
0.5424035478361111
0.4314180483248321
0.33459016905882943
0.23972458280267717
0.18189813854380626

VECTORS Ftot float
-1.8751482176261085 -2.7866088906054602 5.7234510993043155e-15
-1.8916594292244924 -2.231084104718141 4.582451744426515e-15
-17.650948848511355 -13.411589046777362 2.7546231669603788e-14
-30.363304029931275 -17.550434537605593 3.6047058554278166e-14
-43.74740305887996 -20.791669843510746 4.270427257423923e-14
-53.913023931547116 -22.186217253897638 4.556855106553359e-14
-61.92795656421214 -22.710062576796062 4.664448357235803e-14
-69.87981727900505 -23.152790353492357 4.7553807729317273e-14
-75.46520861239736 -22.639494523378147 4.6499542958599075e-14
-79.09364133468763 -21.782961720893997 4.4740299447069554e-14
-80.69719341423891 -20.5948508165982 4.2300023495818374e-14
-80.93940387864929 -19.260033823071645 3.955842606005131e-14
-80.44181208225612 -18.175854101412867 3.7331615673889385e-14
-77.44598235085937 -16.52719495008104 3.394541387718944e-14
-75.32167569391255 -15.42834390072383 3.1688469866274173e-14
-72.68792462669774 -14.194650651133728 2.9154571761888026e-14
-59.42911968747636 -12.141962677867552 2.493853007884925e-14
-47.17505310916996 -10.149842887885383 2.0846890150347478e-14
-34.439740001013014 -7.956021951724273 1.6340973697170594e-14
-26.55578717601932 -6.386161080883586 1.3116616681279593e-14
-1.8751482176261085 -2.7866088906054602 5.7234510993043155e-15
-1.8916594292244924 -2.231084104718141 4.582451744426515e-15
-17.650948848511355 -13.411589046777362 2.7546231669603788e-14
-30.363304029931275 -17.550434537605593 3.6047058554278166e-14
-43.74740305887996 -20.791669843510746 4.270427257423923e-14
-53.913023931547116 -22.186217253897638 4.556855106553359e-14
-61.92795656421214 -22.710062576796062 4.664448357235803e-14
-69.87981727900505 -23.152790353492357 4.7553807729317273e-14
-75.46520861239736 -22.639494523378147 4.6499542958599075e-14
-79.09364133468763 -21.782961720893997 4.4740299447069554e-14
-80.69719341423891 -20.5948508165982 4.2300023495818374e-14
-80.93940387864929 -19.260033823071645 3.955842606005131e-14
-80.44181208225612 -18.175854101412867 3.7331615673889385e-14
-77.44598235085937 -16.52719495008104 3.394541387718944e-14
-75.32167569391255 -15.42834390072383 3.1688469866274173e-14
-72.68792462669774 -14.194650651133728 2.9154571761888026e-14
-59.42911968747636 -12.141962677867552 2.493853007884925e-14
-47.17505310916996 -10.149842887885383 2.0846890150347478e-14
-34.439740001013014 -7.956021951724273 1.6340973697170594e-14
-26.55578717601932 -6.386161080883586 1.3116616681279593e-14

VECTORS D float
-0.021993119952389752 0.014549787171024163 0.0006322654548159099
0.25191181130096785 -0.2762879935553153 -0.009786802822109142
0.7649795824717011 -1.14895575675364 -0.03760145701212327
0.5767977057674185 -1.08385331604799 -0.034336039335341274
0.45140779791343727 -1.008569874106873 -0.03083449898594609
0.422975932984328 -1.0894515653591579 -0.032926676982476796
0.4378906350840791 -1.2740657000807014 -0.038051675437869845
0.4510092882357866 -1.462483531837105 -0.043133467736535744
0.4027946581594669 -1.441706106791963 -0.04188756463415093
0.3776705220259912 -1.4782692036828295 -0.042776201643896825
0.37107078596648746 -1.5823265552053325 -0.044243717955342786
0.3590715232227416 -1.658614347112928 -0.04471547988405835
0.38849362329654014 -1.9334986374245131 -0.050138034154901395
0.3628763213135389 -1.9351117986827688 -0.04816506065271876
0.36985695936602114 -2.1007152087470264 -0.050121580914763805
0.3401128631178935 -2.044398863395042 -0.046754959891838505
0.422447918807007 -2.669627247886027 -0.058605395516022826
0.4444305657592964 -2.9330922108556545 -0.061976831709769246
0.41827984103707727 -2.8641234772268107 -0.0584719254306649
0.36430792182742894 -2.571821614905202 -0.050958656731395754
-0.021993119952389752 0.014549787171024163 0.0006322654548159099
0.25191181130096785 -0.2762879935553153 -0.009786802822109142
0.7649795824717011 -1.14895575675364 -0.03760145701212327
0.5767977057674185 -1.08385331604799 -0.034336039335341274
0.45140779791343727 -1.008569874106873 -0.03083449898594609
0.422975932984328 -1.0894515653591579 -0.032926676982476796
0.4378906350840791 -1.2740657000807014 -0.038051675437869845
0.4510092882357866 -1.462483531837105 -0.043133467736535744
0.4027946581594669 -1.441706106791963 -0.04188756463415093
0.3776705220259912 -1.4782692036828295 -0.042776201643896825
0.37107078596648746 -1.5823265552053325 -0.044243717955342786
0.3590715232227416 -1.658614347112928 -0.04471547988405835
0.38849362329654014 -1.9334986374245131 -0.050138034154901395
0.3628763213135389 -1.9351117986827688 -0.04816506065271876
0.36985695936602114 -2.1007152087470264 -0.050121580914763805
0.3401128631178935 -2.044398863395042 -0.046754959891838505
0.422447918807007 -2.669627247886027 -0.058605395516022826
0.4444305657592964 -2.9330922108556545 -0.061976831709769246
0.41827984103707727 -2.8641234772268107 -0.0584719254306649
0.36430792182742894 -2.571821614905202 -0.050958656731395754

VECTORS L float
-1.8531550976737192 -2.8011586777764848 -0.0006322654548101891
-2.14357124052546 -1.9547961111628256 0.009786802822113732
-18.415928430983058 -12.262633290023727 0.03760145701215069
-30.940101735698704 -16.466581221557604 0.0343360393353774
-44.1988108567934 -19.783099969403878 0.03083449898598882
-54.33599986453144 -21.09676568853848 0.03292667698252224
-62.365847199296205 -21.435996876715357 0.038051675437916446
-70.33082656724085 -21.690306821655255 0.04313346773658324
-75.86800327055684 -21.19778841658619 0.0418875646341974
-79.47131185671364 -20.304692517211173 0.04277620164394151
-81.06826420020539 -19.012524261392866 0.044243717955384954
-81.29847540187203 -17.601419475958718 0.04471547988409787
-80.83030570555268 -16.242355463988353 0.05013803415493887
-77.80885867217293 -14.59208315139828 0.04816506065275268
-75.6915326532786 -13.32762869197681 0.05012158091479545
-73.02803748981563 -12.15025178773869 0.04675495989186768
-59.85156760628337 -9.472335429981523 0.058605395516047806
-47.61948367492927 -7.216750677029731 0.0619768317097901
-34.8580198420501 -5.091898474497464 0.0584719254306813
-26.920095097846744 -3.8143394659783842 0.05095865673140885
-1.8531550976737192 -2.8011586777764848 -0.0006322654548101891
-2.14357124052546 -1.9547961111628256 0.009786802822113732
-18.415928430983058 -12.262633290023727 0.03760145701215069
-30.940101735698704 -16.466581221557604 0.0343360393353774
-44.1988108567934 -19.783099969403878 0.03083449898598882
-54.33599986453144 -21.09676568853848 0.03292667698252224
-62.365847199296205 -21.435996876715357 0.038051675437916446
-70.33082656724085 -21.690306821655255 0.04313346773658324
-75.86800327055684 -21.19778841658619 0.0418875646341974
-79.47131185671364 -20.304692517211173 0.04277620164394151
-81.06826420020539 -19.012524261392866 0.044243717955384954
-81.29847540187203 -17.601419475958718 0.04471547988409787
-80.83030570555268 -16.242355463988353 0.05013803415493887
-77.80885867217293 -14.59208315139828 0.04816506065275268
-75.6915326532786 -13.32762869197681 0.05012158091479545
-73.02803748981563 -12.15025178773869 0.04675495989186768
-59.85156760628337 -9.472335429981523 0.058605395516047806
-47.61948367492927 -7.216750677029731 0.0619768317097901
-34.8580198420501 -5.091898474497464 0.0584719254306813
-26.920095097846744 -3.8143394659783842 0.05095865673140885

SCALARS mu float
LOOKUP_TABLE default
-0.04976426860647077
0.5359445029262091
1.292698306169277
0.8569507803696198
0.6555000610419546
0.6310438973548962
0.687087898322501
0.7570347203770047
0.7369876393002618
0.766236043237778
0.8496590275338342
0.9371345564718202
1.158194324767525
1.2314658771507423
1.4245548343330172
1.4901416910143348
2.1260685656716687
2.6149058175062643
2.9483237933344344
3.1665573171310513
-0.04976426860647077
0.5359445029262091
1.292698306169277
0.8569507803696198
0.6555000610419546
0.6310438973548962
0.687087898322501
0.7570347203770047
0.7369876393002618
0.766236043237778
0.8496590275338342
0.9371345564718202
1.158194324767525
1.2314658771507423
1.4245548343330172
1.4901416910143348
2.1260685656716687
2.6149058175062643
2.9483237933344344
3.1665573171310513