# vtk DataFile Version 4.0
[MyVLM domain - lattices] 
ASCII
DATASET UNSTRUCTURED_GRID
POINTS 62 float
0.00022673658128986117 -0.012255699649745046 -0.0056835647435125106
-0.003724999406033424 -0.01618717711208827 -0.014669815844557163
-0.00549739299719125 -0.02040801168795663 -0.02311213096398333
-0.005451904080891177 -0.024889767153619707 -0.031020860040803813
-0.004354059046121628 -0.02881978688542447 -0.0386917858967076
-0.0029556321221654493 -0.03174939999656582 -0.046288211379473566
-0.0016722727371407085 -0.0339482764015001 -0.05371198466716249
-0.0006485493516483927 -0.03586498730867364 -0.06079983919195107
0.0001374053121431227 -0.03757413144215082 -0.06752462323876565
0.0007511984436382017 -0.03904561580161879 -0.07389728976397987
0.0012455433643025467 -0.04031683027699172 -0.07990422996060248
0.0016598526811940704 -0.041464068650758495 -0.08551767516274796
0.002022453218220871 -0.04257343018042454 -0.09070628780349188
0.002352563731918074 -0.043696697856333365 -0.09545122041570792
0.002662053738196183 -0.04478332200801098 -0.09977087157480061
0.002957000443680671 -0.0457227944655416 -0.10370546296526248
0.0032390594424296184 -0.04640823280290976 -0.10729389660872932
0.0035066635059833096 -0.046772980364430644 -0.1105604335437862
0.0037560624618667195 -0.04680568193508208 -0.11350920673070483
0.003982215822832984 -0.046549598462489676 -0.11612447047224335
0.004179548496302947 -0.04609126556314501 -0.11837472837979494
0.008285994416043337 0.0021163605696612724 -0.010914566868457846
0.007508437091591354 -0.0028781821554570357 -0.019513893856769986
0.00973309288421085 -0.0067485853684828775 -0.02808375556142417
0.010440442308044806 -0.006250428408831639 -0.037805024530311496
0.01004693542569484 -0.007590245589963262 -0.04641870701538071
0.0094954698488839 -0.009925138628751806 -0.054231592902203744
0.009038213335578684 -0.0125272654296705 -0.06150859504879827
0.008539133039147835 -0.015282339171536588 -0.06829131045624373
0.008012046218423283 -0.018145523608838827 -0.07459605818332246
0.007469873605570215 -0.021029423653074992 -0.08045464744087034
0.0069256484677951155 -0.023862547989339226 -0.08589309893952164
0.0064559301991455546 -0.026608429715092308 -0.09092468554633654
0.006108090109537901 -0.02923283737121426 -0.0955618664935102
0.005835591307912621 -0.03168443765549252 -0.09982332557507459
0.005646315885461864 -0.03392524017182561 -0.10372289016439863
0.005556570152728891 -0.03592127685717257 -0.1072729236253449
0.005484703593381549 -0.03762775581145383 -0.11048972887627857
0.005393245002100456 -0.03902859711184013 -0.11337915853047885
0.005297730961761147 -0.04013695584100608 -0.11593642452942284
0.00521698140800628 -0.040980721564425164 -0.11815137590143156
0.005155604557614359 -0.04159516955928381 -0.12001117349560367
0.005485628962270063 -0.0038410426899025767 -0.013954845345469147
0.005312774690522743 -0.008184436421483081 -0.022571861882890367
0.006196413562335568 -0.010536852521689986 -0.03147491640999926
0.006457021259275767 -0.011903947004428612 -0.0402979800718235
0.006414690581931144 -0.014139417442266936 -0.04836636212861682
0.006371643086760199 -0.016631861071666608 -0.05590259498745525
0.006301402129423808 -0.01915525968922438 -0.06298894254677995
0.00614279921665101 -0.021715338386493834 -0.06962332104367691
0.005916795403470228 -0.024268073628688883 -0.07582175373441549
0.005647913503504593 -0.026754795125731638 -0.08160559485821979
0.005381266505789829 -0.029149229005130603 -0.08698440732261563
0.005171795853183163 -0.031445162511262836 -0.09196045238572251
0.005025757650311314 -0.03362774413960978 -0.09653913555311927
0.004932542381279714 -0.035663631668287336 -0.10073259240111601
0.00490346403705614 -0.03750570844506839 -0.10455797198866171
0.004914985140555201 -0.03909726565929132 -0.10803591463485777
0.0049224460918573685 -0.04039378399215279 -0.11118262404659847
0.004916956732429355 -0.04138441514475642 -0.11400204868177452
0.004910301924250248 -0.042088539076733184 -0.11648713481193892
0.004909940276999731 -0.0425460671745952 -0.11862335588039298

CELLS 40 140
4 0 21 22 1
4 1 22 23 2
4 2 23 24 3
4 3 24 25 4
4 4 25 26 5
4 5 26 27 6
4 6 27 28 7
4 7 28 29 8
4 8 29 30 9
4 9 30 31 10
4 10 31 32 11
4 11 32 33 12
4 12 33 34 13
4 13 34 35 14
4 14 35 36 15
4 15 36 37 16
4 16 37 38 17
4 17 38 39 18
4 18 39 40 19
4 19 40 41 20
1 42
1 43
1 44
1 45
1 46
1 47
1 48
1 49
1 50
1 51
1 52
1 53
1 54
1 55
1 56
1 57
1 58
1 59
1 60
1 61

CELL_TYPES 40
9
9
9
9
9
9
9
9
9
9
9
9
9
9
9
9
9
9
9
9
1
1
1
1
1
1
1
1
1
1
1
1
1
1
1
1
1
1
1
1

CELL_DATA 40

VECTORS S float
0.0 -0.0 -0.0
1.1051618665158199e-18 -8.71285432571388e-18 -5.4811975860821375e-17
7.2626284611406e-18 -6.767213596724363e-17 -4.388427537817154e-16
0.0 -0.0 -0.0
0.0 -0.0 -0.0
-9.53468196876974e-18 1.3135060546078842e-16 8.783604120780094e-16
-4.31802870351758e-18 6.54859352367901e-17 4.392131296074054e-16
3.92704029414988e-18 -6.54060392093118e-17 -4.3922870431556616e-16
0.0 -0.0 -0.0
0.0 -0.0 -0.0
2.97893388839512e-18 -6.558798821642954e-17 -4.3920902547632493e-16
-2.70865657768708e-18 6.587197887385739e-17 4.3916827285681644e-16
-2.49376715270879e-18 6.621348628497901e-17 4.391181864425907e-16
0.0 -0.0 -0.0
0.0 -0.0 -0.0
-1.92721854818302e-18 6.736942506738567e-17 4.3894518188494837e-16
-9.674294291943e-19 3.3882646895195677e-17 2.1944210374490183e-16
-9.7965588087005e-19 3.406311106334764e-17 2.1941410919846143e-16
0.0 -0.0 -0.0
-5.1175925501906e-19 1.71786280845275e-17 1.0968402109549366e-16
0.0 -0.0 -0.0
1.1051618665158199e-18 -8.71285432571388e-18 -5.4811975860821375e-17
7.2626284611406e-18 -6.767213596724363e-17 -4.388427537817154e-16
0.0 -0.0 -0.0
0.0 -0.0 -0.0
-9.53468196876974e-18 1.3135060546078842e-16 8.783604120780094e-16
-4.31802870351758e-18 6.54859352367901e-17 4.392131296074054e-16
3.92704029414988e-18 -6.54060392093118e-17 -4.3922870431556616e-16
0.0 -0.0 -0.0
0.0 -0.0 -0.0
2.97893388839512e-18 -6.558798821642954e-17 -4.3920902547632493e-16
-2.70865657768708e-18 6.587197887385739e-17 4.3916827285681644e-16
-2.49376715270879e-18 6.621348628497901e-17 4.391181864425907e-16
0.0 -0.0 -0.0
0.0 -0.0 -0.0
-1.92721854818302e-18 6.736942506738567e-17 4.3894518188494837e-16
-9.674294291943e-19 3.3882646895195677e-17 2.1944210374490183e-16
-9.7965588087005e-19 3.406311106334764e-17 2.1941410919846143e-16
0.0 -0.0 -0.0
-5.1175925501906e-19 1.71786280845275e-17 1.0968402109549366e-16

SCALARS Gamma float
LOOKUP_TABLE default
0.11339316723437559
0.0786704958197812
0.4874403834715596
0.6467907810241822
0.7668738221410978
0.8122948748321612
0.8237570302849391
0.836472320327588
0.8248424074423457
0.8022749429894055
0.7603985227520239
0.7184902781937086
0.6780143008714195
0.6234831352278339
0.5827002575240784
0.5429128195532986
0.4317376986400545
0.33479908413157167
0.23988372460340177
0.18199489611633737
0.11339316723437559
0.0786704958197812
0.4874403834715596
0.6467907810241822
0.7668738221410978
0.8122948748321612
0.8237570302849391
0.836472320327588
0.8248424074423457
0.8022749429894055
0.7603985227520239
0.7184902781937086
0.6780143008714195
0.6234831352278339
0.5827002575240784
0.5429128195532986
0.4317376986400545
0.33479908413157167
0.23988372460340177
0.18199489611633737

VECTORS Ftot float
-1.8762741899884479 2.74588623360896 -0.484173828941215
-1.8960199963548738 2.201115629357583 -0.388116073114842
-17.670678814378793 13.2200021960714 -2.3310430721925868
-30.414473758545064 17.303517788852616 -3.051077047343649
-43.74912073683157 20.476370026825947 -3.610536502699592
-53.917793212889016 21.850062410399634 -3.852755533117359
-61.951491195090355 22.36843145773666 -3.9441579821270207
-69.93832913802149 22.808044090826513 -4.021673550401055
-75.58002044944514 22.309064737428766 -3.933690027580566
-79.55059223303675 21.49831106399338 -3.7907322802454058
-80.74207929033598 20.286516104097267 -3.5770601337291845
-81.01226408756561 18.973619619678175 -3.345561060648804
-80.53000006882972 17.906812373021857 -3.1574541598479815
-77.5393509877585 16.283046495624415 -2.8711404253090542
-75.40960575689783 15.199358046960898 -2.6800569131275727
-72.76156648920988 13.982957573756737 -2.4655726903551316
-59.47673804324994 11.960204331530276 -2.1089067184350747
-47.206494973325626 9.99804498611329 -1.7629250853887939
-34.463396326864185 7.837718131184694 -1.3820011737158135
-26.56997394802164 6.290376539086599 -1.1091631026565225
-1.8762741899884479 2.74588623360896 -0.484173828941215
-1.8960199963548738 2.201115629357583 -0.388116073114842
-17.670678814378793 13.2200021960714 -2.3310430721925868
-30.414473758545064 17.303517788852616 -3.051077047343649
-43.74912073683157 20.476370026825947 -3.610536502699592
-53.917793212889016 21.850062410399634 -3.852755533117359
-61.951491195090355 22.36843145773666 -3.9441579821270207
-69.93832913802149 22.808044090826513 -4.021673550401055
-75.58002044944514 22.309064737428766 -3.933690027580566
-79.55059223303675 21.49831106399338 -3.7907322802454058
-80.74207929033598 20.286516104097267 -3.5770601337291845
-81.01226408756561 18.973619619678175 -3.345561060648804
-80.53000006882972 17.906812373021857 -3.1574541598479815
-77.5393509877585 16.283046495624415 -2.8711404253090542
-75.40960575689783 15.199358046960898 -2.6800569131275727
-72.76156648920988 13.982957573756737 -2.4655726903551316
-59.47673804324994 11.960204331530276 -2.1089067184350747
-47.206494973325626 9.99804498611329 -1.7629250853887939
-34.463396326864185 7.837718131184694 -1.3820011737158135
-26.56997394802164 6.290376539086599 -1.1091631026565225

VECTORS D float
-0.022002375263728686 -0.014443816493590675 0.001910539944397624
0.25205065804467475 0.2739654716201962 -0.03846722245800611
0.7664268667144194 1.1405225182233434 -0.1631913042523482
0.5777398653113452 1.0757246120547486 -0.15496675171854446
0.4514155279574209 0.9986377103547396 -0.1447312753134219
0.4229776557148938 1.0786815751457846 -0.15671530578433354
0.4377391562175657 1.261142697775464 -0.18373070691626514
0.4506488305066964 1.4472750721194705 -0.21148620999746057
0.4023475795837607 1.426659749980745 -0.20922044661484288
0.37566117352284856 1.460020275097783 -0.21502882719306263
0.3709551376872008 1.565941880813934 -0.23132932363017636
0.3588132561997217 1.6408527665328785 -0.2439026758213027
0.3882667694859435 1.9129879364565707 -0.28624948239099735
0.3626270010836545 1.9141700970310034 -0.2884108039391068
0.3695360752113707 2.0772415807031477 -0.31515989942226547
0.3398981731962453 2.0215993304077626 -0.30878326528215877
0.42235699327766646 2.64034722162282 -0.4058170719578833
0.4444280673185211 2.9008755942123856 -0.44836433416346877
0.4183050951389695 2.83226328454517 -0.4398943072000431
0.3642704237031251 2.5423406958064616 -0.39647987083639974
-0.022002375263728686 -0.014443816493590675 0.001910539944397624
0.25205065804467475 0.2739654716201962 -0.03846722245800611
0.7664268667144194 1.1405225182233434 -0.1631913042523482
0.5777398653113452 1.0757246120547486 -0.15496675171854446
0.4514155279574209 0.9986377103547396 -0.1447312753134219
0.4229776557148938 1.0786815751457846 -0.15671530578433354
0.4377391562175657 1.261142697775464 -0.18373070691626514
0.4506488305066964 1.4472750721194705 -0.21148620999746057
0.4023475795837607 1.426659749980745 -0.20922044661484288
0.37566117352284856 1.460020275097783 -0.21502882719306263
0.3709551376872008 1.565941880813934 -0.23132932363017636
0.3588132561997217 1.6408527665328785 -0.2439026758213027
0.3882667694859435 1.9129879364565707 -0.28624948239099735
0.3626270010836545 1.9141700970310034 -0.2884108039391068
0.3695360752113707 2.0772415807031477 -0.31515989942226547
0.3398981731962453 2.0215993304077626 -0.30878326528215877
0.42235699327766646 2.64034722162282 -0.4058170719578833
0.4444280673185211 2.9008755942123856 -0.44836433416346877
0.4183050951389695 2.83226328454517 -0.4398943072000431
0.3642704237031251 2.5423406958064616 -0.39647987083639974

VECTORS L float
-1.8542718147247197 2.7603300501025507 -0.4860843688856127
-2.148070654399549 1.9271501577373875 -0.3496488506568359
-18.437105681093218 12.07947967784806 -2.1678517679402387
-30.992213623856415 16.227793176797874 -2.8961102956251055
-44.20053626478899 19.477732316471208 -3.46580522738617
-54.340770868603926 20.771380835253854 -3.6960402273330266
-62.3892303513079 21.107288759961193 -3.760427275210755
-70.3889779685282 21.360769018707046 -3.8101873404035946
-75.98236802902892 20.882404987448023 -3.7244695809657244
-79.9262534065596 20.038290788895594 -3.575703453052343
-81.11303442802318 18.72057422328333 -3.345730810099007
-81.37107734376535 17.3327668531453 -3.101658384827503
-80.91826683831566 15.993824436565285 -2.8712046774569844
-77.90197798884215 14.36887639859341 -2.5827296213699467
-75.7791418321092 13.122116466257753 -2.3648970137053076
-73.10146466240613 11.96135824334898 -2.156789425072974
-59.89909503652761 9.319857109907456 -1.7030896464771916
-47.65092304064415 7.097169391900906 -1.3145607512253252
-34.88170142200316 5.005454846639524 -0.9421068665157705
-26.934244371724766 3.7480358432801366 -0.7126832318201228
-1.8542718147247197 2.7603300501025507 -0.4860843688856127
-2.148070654399549 1.9271501577373875 -0.3496488506568359
-18.437105681093218 12.07947967784806 -2.1678517679402387
-30.992213623856415 16.227793176797874 -2.8961102956251055
-44.20053626478899 19.477732316471208 -3.46580522738617
-54.340770868603926 20.771380835253854 -3.6960402273330266
-62.3892303513079 21.107288759961193 -3.760427275210755
-70.3889779685282 21.360769018707046 -3.8101873404035946
-75.98236802902892 20.882404987448023 -3.7244695809657244
-79.9262534065596 20.038290788895594 -3.575703453052343
-81.11303442802318 18.72057422328333 -3.345730810099007
-81.37107734376535 17.3327668531453 -3.101658384827503
-80.91826683831566 15.993824436565285 -2.8712046774569844
-77.90197798884215 14.36887639859341 -2.5827296213699467
-75.7791418321092 13.122116466257753 -2.3648970137053076
-73.10146466240613 11.96135824334898 -2.156789425072974
-59.89909503652761 9.319857109907456 -1.7030896464771916
-47.65092304064415 7.097169391900906 -1.3145607512253252
-34.88170142200316 5.005454846639524 -0.9421068665157705
-26.934244371724766 3.7480358432801366 -0.7126832318201228

SCALARS mu float
LOOKUP_TABLE default
-0.049773692733105605
0.5361766618031873
1.2952319907727812
0.8586279691011585
0.6555141294140332
0.6310755623175304
0.6869866021294841
0.7567774134267076
0.736770172068695
0.7644852722371719
0.8496341615114678
0.9368939707659919
1.158194962710658
1.2314141048828047
1.4242482539563384
1.490127380597945
2.126820136391448
2.6162182223008696
2.9498245395750846
3.1674945050349033
-0.049773692733105605
0.5361766618031873
1.2952319907727812
0.8586279691011585
0.6555141294140332
0.6310755623175304
0.6869866021294841
0.7567774134267076
0.736770172068695
0.7644852722371719
0.8496341615114678
0.9368939707659919
1.158194962710658
1.2314141048828047
1.4242482539563384
1.490127380597945
2.126820136391448
2.6162182223008696
2.9498245395750846
3.1674945050349033