# vtk DataFile Version 4.0
[MyVLM domain - lattices] 
ASCII
DATASET UNSTRUCTURED_GRID
POINTS 62 float
0.00022673658128986117 -0.0012057383729371252 -0.013455529609587583
-0.003724999406033424 0.004610844634181845 -0.02135341451690511
-0.00549739299719125 0.009811686706424213 -0.029229922044491912
-0.005451904080891177 0.014419969265767885 -0.037065600669716134
-0.004354059046121628 0.019098176061625102 -0.04430456052278506
-0.0029556321221654493 0.02421206695208525 -0.05063989264167641
-0.0016722727371407085 0.029541805008693058 -0.05625606211197615
-0.0006485493516483927 0.034721711631901714 -0.06145990971169344
0.0001374053121431227 0.03969097338466892 -0.06630246397342109
0.0007511984436382017 0.044474122305617175 -0.07076314007259893
0.0012455433643025467 0.049040677877219815 -0.07486751420024167
0.0016598526811940704 0.053328444838146305 -0.07866777437719277
0.002022453218220871 0.057267234430594595 -0.08222281596423668
0.002352563731918074 0.060814832774064555 -0.08556806061293165
0.002662053738196183 0.06401244833748693 -0.08866893031219651
0.002957000443680671 0.06695016820637316 -0.09144983302180476
0.0032390594424296184 0.06971512373272615 -0.09383765685642677
0.0035066635059833096 0.07236165392012513 -0.0957868059782007
0.0037560624618667195 0.07489901562466936 -0.0972895129625878
0.003982215822832984 0.07729194219873428 -0.09837537004060269
0.004179548496302947 0.07946988916141311 -0.09910357106015581
0.008285994416043337 0.01051047246421917 -0.0036244614173345
0.007508437091591354 0.015460436728987479 -0.012249525791729787
0.00973309288421085 0.020946953065624527 -0.019886324149426166
0.010440442308044806 0.02961489742952798 -0.0243155420517398
0.01004693542569484 0.03640465669116523 -0.029782699009561226
0.0094954698488839 0.04200336782662865 -0.03571121863968306
0.009038213335578684 0.04700437314851408 -0.041603227626444236
0.008539133039147835 0.05150084012706894 -0.04738054917992244
0.008012046218423283 0.05552931960452024 -0.05301251350188581
0.007469873605570215 0.05916105670977726 -0.05843933883094333
0.0069256484677951155 0.06245433169672673 -0.06361212222755372
0.0064559301991455546 0.06543887265669346 -0.0685059188612508
0.006108090109537901 0.06814258533083006 -0.07309731303492562
0.005835591307912621 0.0706073170105136 -0.07735119070181794
0.005646315885461864 0.07286403775039992 -0.08124156490048852
0.005556570152728891 0.07494043856919072 -0.08474520010735781
0.005484703593381549 0.07687303415838584 -0.08783145685825572
0.005393245002100456 0.07867493299117823 -0.09048933583816082
0.005297730961761147 0.08033541094591493 -0.09272783565359675
0.00521698140800628 0.08183173224051216 -0.09456603389092459
0.005155604557614359 0.08313514020553305 -0.09602806026086264
0.005485628962270063 0.010164729230108083 -0.010303863219210693
0.005312774690522743 0.015455587590555259 -0.01837386079810811
0.006196413562335568 0.0219896509322062 -0.02486264016471324
0.006457021259275767 0.028947100961184077 -0.030458110547050537
0.006414690581931144 0.0348167895708865 -0.0364282757640243
0.006371643086760199 0.04009713686077582 -0.0423549116940043
0.006301402129423808 0.04497239455841799 -0.04808341278034621
0.00614279921665101 0.049437895526417266 -0.05361769521631741
0.005916795403470228 0.05352952807914732 -0.05892764513056342
0.005647913503504593 0.057295120675293604 -0.06397312968104146
0.005381266505789829 0.060756091971953335 -0.068736176480481
0.005171795853183163 0.06391750665391394 -0.07321253575374484
0.005025757650311314 0.06679147177858628 -0.07739204847342489
0.004932542381279714 0.0694051681742865 -0.08125190721650592
0.00490346403705614 0.071797005687829 -0.08475988229469252
0.004914985140555201 0.07401321376522861 -0.087877182596884
0.0049224460918573685 0.07609008488769294 -0.09057335511548464
0.004916956732429355 0.07803646266950924 -0.09284097917700765
0.004910301924250248 0.0798365484228356 -0.09469331145459432
0.004909940276999731 0.08145780608728538 -0.09615765294451503

CELLS 40 140
4 0 21 22 1
4 1 22 23 2
4 2 23 24 3
4 3 24 25 4
4 4 25 26 5
4 5 26 27 6
4 6 27 28 7
4 7 28 29 8
4 8 29 30 9
4 9 30 31 10
4 10 31 32 11
4 11 32 33 12
4 12 33 34 13
4 13 34 35 14
4 14 35 36 15
4 15 36 37 16
4 16 37 38 17
4 17 38 39 18
4 18 39 40 19
4 19 40 41 20
1 42
1 43
1 44
1 45
1 46
1 47
1 48
1 49
1 50
1 51
1 52
1 53
1 54
1 55
1 56
1 57
1 58
1 59
1 60
1 61

CELL_TYPES 40
9
9
9
9
9
9
9
9
9
9
9
9
9
9
9
9
9
9
9
9
1
1
1
1
1
1
1
1
1
1
1
1
1
1
1
1
1
1
1
1

CELL_DATA 40

VECTORS S float
0.0 0.0 -0.0
0.0 0.0 -0.0
0.0 0.0 -0.0
-2.505022750111847e-17 -1.3881134026627919e-15 1.108132342427616e-15
2.1738760398237478e-17 1.3896130829695213e-15 -1.106321168025062e-15
-1.930478211184769e-17 -1.3903374055468969e-15 1.105455944399769e-15
-1.748022311141299e-17 -1.3908338993317388e-15 1.1048615873283372e-15
-3.1759958798997136e-17 -2.7820313849525564e-15 2.209313730933711e-15
0.0 0.0 -0.0
1.300027546078626e-17 1.3906511563525969e-15 -1.1051533717349716e-15
-1.1837632522469299e-17 -1.3901405751286946e-15 1.1058086058270536e-15
0.0 0.0 -0.0
9.989583394925189e-18 1.3887382961241474e-15 -1.1075873662993107e-15
-9.13633012883685e-18 -1.3878756456197861e-15 1.108675489334587e-15
-4.2311028849571e-18 -6.934450005059364e-16 5.549567859416718e-16
-7.74601661991328e-18 -1.3858770941196855e-15 1.1111832882584886e-15
0.0 0.0 -0.0
0.0 0.0 -0.0
0.0 0.0 -0.0
-2.05094806795273e-18 -3.456041363655604e-16 2.7887058081535e-16
0.0 0.0 -0.0
0.0 0.0 -0.0
0.0 0.0 -0.0
-2.505022750111847e-17 -1.3881134026627919e-15 1.108132342427616e-15
2.1738760398237478e-17 1.3896130829695213e-15 -1.106321168025062e-15
-1.930478211184769e-17 -1.3903374055468969e-15 1.105455944399769e-15
-1.748022311141299e-17 -1.3908338993317388e-15 1.1048615873283372e-15
-3.1759958798997136e-17 -2.7820313849525564e-15 2.209313730933711e-15
0.0 0.0 -0.0
1.300027546078626e-17 1.3906511563525969e-15 -1.1051533717349716e-15
-1.1837632522469299e-17 -1.3901405751286946e-15 1.1058086058270536e-15
0.0 0.0 -0.0
9.989583394925189e-18 1.3887382961241474e-15 -1.1075873662993107e-15
-9.13633012883685e-18 -1.3878756456197861e-15 1.108675489334587e-15
-4.2311028849571e-18 -6.934450005059364e-16 5.549567859416718e-16
-7.74601661991328e-18 -1.3858770941196855e-15 1.1111832882584886e-15
0.0 0.0 -0.0
0.0 0.0 -0.0
0.0 0.0 -0.0
-2.05094806795273e-18 -3.456041363655604e-16 2.7887058081535e-16

SCALARS Gamma float
LOOKUP_TABLE default
0.11340566772022112
0.07898870412155287
0.48816580542289456
0.6479755298660599
0.7667242911342864
0.8105062108571317
0.8226698465002078
0.8354828694113565
0.823485203336344
0.8005419441968223
0.7622280704280601
0.720193715614561
0.6772127230880602
0.6229174089864843
0.580568436238259
0.5414013364847202
0.4308585416143417
0.3342353399222711
0.23943877526706617
0.18169358099386937
0.11340566772022112
0.07898870412155287
0.48816580542289456
0.6479755298660599
0.7667242911342864
0.8105062108571317
0.8226698465002078
0.8354828694113565
0.823485203336344
0.8005419441968223
0.7622280704280601
0.720193715614561
0.6772127230880602
0.6229174089864843
0.580568436238259
0.5414013364847202
0.4308585416143417
0.3342353399222711
0.23943877526706617
0.18169358099386937

VECTORS Ftot float
-1.8762108584686632 1.7921443366556915 2.1357944516567855
-1.9054522426480116 1.4421337707357695 1.7186681022757864
-17.708494523256803 8.645008350531528 10.302719759752883
-30.494699555767948 11.318248241658559 13.488563003869674
-43.74202311735858 13.364524446027605 15.927220021866527
-53.77912469998148 14.24011516945452 16.970708412152714
-61.86818735773453 14.592540555708261 17.390712632342012
-69.86541094947397 14.884724479368604 17.738923873062493
-75.47184526240883 14.557486395767295 17.348936711296993
-79.39774759564013 14.028042922767646 16.717970550274107
-80.95168692867733 13.256148490912953 15.798062588007811
-81.20509157096586 12.391831769920023 14.76801003062524
-80.43556326686378 11.684629423492266 13.925199093578906
-77.47294419166776 10.626683473812625 12.664388207277701
-75.11302032527887 9.908906842651266 11.808975328410982
-72.54314293769913 9.11906160806532 10.867674432499765
-59.34551434472022 7.8015307454112675 9.297502293578054
-47.12110587342553 6.52138242415192 7.77188093266378
-34.396325162066034 5.1107983909967585 6.090812343495088
-26.52426377348491 4.102827964412239 4.889559966384271
-1.8762108584686632 1.7921443366556915 2.1357944516567855
-1.9054522426480116 1.4421337707357695 1.7186681022757864
-17.708494523256803 8.645008350531528 10.302719759752883
-30.494699555767948 11.318248241658559 13.488563003869674
-43.74202311735858 13.364524446027605 15.927220021866527
-53.77912469998148 14.24011516945452 16.970708412152714
-61.86818735773453 14.592540555708261 17.390712632342012
-69.86541094947397 14.884724479368604 17.738923873062493
-75.47184526240883 14.557486395767295 17.348936711296993
-79.39774759564013 14.028042922767646 16.717970550274107
-80.95168692867733 13.256148490912953 15.798062588007811
-81.20509157096586 12.391831769920023 14.76801003062524
-80.43556326686378 11.684629423492266 13.925199093578906
-77.47294419166776 10.626683473812625 12.664388207277701
-75.11302032527887 9.908906842651266 11.808975328410982
-72.54314293769913 9.11906160806532 10.867674432499765
-59.34551434472022 7.8015307454112675 9.297502293578054
-47.12110587342553 6.52138242415192 7.77188093266378
-34.396325162066034 5.1107983909967585 6.090812343495088
-26.52426377348491 4.102827964412239 4.889559966384271

VECTORS D float
-0.021990117016377445 -0.008853103724154205 -0.011563101772435835
0.2522838195887233 0.17031491807275123 0.21847303680301342
0.7688046035422753 0.7135916666834509 0.9097954476323775
0.5792165187745312 0.6737774838407528 0.8571079689080643
0.4514270586691191 0.6241171589760005 0.7928030841624815
0.42266861978902676 0.6735565560508512 0.8545165504106033
0.4383049179773482 0.7897779569184564 1.001131395887253
0.4514184597334191 0.9072682090232831 1.1489475796096764
0.4031278225343974 0.8950123973307597 1.1321098269541854
0.37682879153249144 0.9175084954077215 1.158964141042964
0.37050150702720386 0.9836138708198469 1.2404926182947533
0.35789770941869875 1.0307980486917685 1.2976880320842674
0.38864379100315866 1.2045264843201475 1.5137897903570194
0.3629550955029891 1.2070073337827976 1.513961638336106
0.370627316310669 1.3120560593074153 1.6423024280548688
0.3405316676463615 1.2778996324780236 1.5961809468645092
0.4225968215395369 1.669645574038924 2.0814279584494755
0.44441929323441237 1.8359674103264394 2.2847641799028082
0.4182096054192498 1.7943460573847565 2.229569746798015
0.36433818802827506 1.6129239743714356 2.0015751903868133
-0.021990117016377445 -0.008853103724154205 -0.011563101772435835
0.2522838195887233 0.17031491807275123 0.21847303680301342
0.7688046035422753 0.7135916666834509 0.9097954476323775
0.5792165187745312 0.6737774838407528 0.8571079689080643
0.4514270586691191 0.6241171589760005 0.7928030841624815
0.42266861978902676 0.6735565560508512 0.8545165504106033
0.4383049179773482 0.7897779569184564 1.001131395887253
0.4514184597334191 0.9072682090232831 1.1489475796096764
0.4031278225343974 0.8950123973307597 1.1321098269541854
0.37682879153249144 0.9175084954077215 1.158964141042964
0.37050150702720386 0.9836138708198469 1.2404926182947533
0.35789770941869875 1.0307980486917685 1.2976880320842674
0.38864379100315866 1.2045264843201475 1.5137897903570194
0.3629550955029891 1.2070073337827976 1.513961638336106
0.370627316310669 1.3120560593074153 1.6423024280548688
0.3405316676463615 1.2778996324780236 1.5961809468645092
0.4225968215395369 1.669645574038924 2.0814279584494755
0.44441929323441237 1.8359674103264394 2.2847641799028082
0.4182096054192498 1.7943460573847565 2.229569746798015
0.36433818802827506 1.6129239743714356 2.0015751903868133

VECTORS L float
-1.8542207414522858 1.800997440379846 2.1473575534292215
-2.1577360622367348 1.2718188526630183 1.5001950654727731
-18.47729912679908 7.931416683848077 9.392924312120504
-31.07391607454249 10.64447075781781 12.631455034961611
-44.193450176027696 12.740407287051605 15.134416937704048
-54.20179331977051 13.566558613403672 16.116191861742113
-62.30649227571189 13.802762598789805 16.38958123645476
-70.31682940920739 13.977456270345325 16.589976293452814
-75.87497308494324 13.662473998436536 16.216826884342808
-79.77457638717262 13.110534427359923 15.559006409231147
-81.32218843570453 12.272534620093108 14.557569969713056
-81.56298928038458 11.361033721228258 13.470321998540973
-80.82420705786693 10.480102939172118 12.41140930322189
-77.83589928717075 9.41967614002983 11.150426568941597
-75.48364764158956 8.596850783343852 10.166672900356115
-72.88367460534549 7.841161975587296 9.271493485635254
-59.76811116625977 6.131885171372346 7.216074335128581
-47.56552516665994 4.685415013825478 5.48711675276097
-34.81453476748529 3.316452333612003 3.861242596697074
-26.888601961513192 2.4899039900408044 2.8879847759974586
-1.8542207414522858 1.800997440379846 2.1473575534292215
-2.1577360622367348 1.2718188526630183 1.5001950654727731
-18.47729912679908 7.931416683848077 9.392924312120504
-31.07391607454249 10.64447075781781 12.631455034961611
-44.193450176027696 12.740407287051605 15.134416937704048
-54.20179331977051 13.566558613403672 16.116191861742113
-62.30649227571189 13.802762598789805 16.38958123645476
-70.31682940920739 13.977456270345325 16.589976293452814
-75.87497308494324 13.662473998436536 16.216826884342808
-79.77457638717262 13.110534427359923 15.559006409231147
-81.32218843570453 12.272534620093108 14.557569969713056
-81.56298928038458 11.361033721228258 13.470321998540973
-80.82420705786693 10.480102939172118 12.41140930322189
-77.83589928717075 9.41967614002983 11.150426568941597
-75.48364764158956 8.596850783343852 10.166672900356115
-72.88367460534549 7.841161975587296 9.271493485635254
-59.76811116625977 6.131885171372346 7.216074335128581
-47.56552516665994 4.685415013825478 5.48711675276097
-34.81453476748529 3.316452333612003 3.861242596697074
-26.888601961513192 2.4899039900408044 2.8879847759974586

SCALARS mu float
LOOKUP_TABLE default
-0.04975672126087828
0.5366362425817041
1.2989784803415494
0.8606334463806895
0.6554462851413664
0.630178647190494
0.6873717020980264
0.7573498452627313
0.7372387918216545
0.7655365822320217
0.8495919357082032
0.9359923015256106
1.1583243290962097
1.2316258756174663
1.425303723374119
1.4901734821406876
2.124747352254041
2.612676769633819
2.9456212804393402
3.164539973932844
-0.04975672126087828
0.5366362425817041
1.2989784803415494
0.8606334463806895
0.6554462851413664
0.630178647190494
0.6873717020980264
0.7573498452627313
0.7372387918216545
0.7655365822320217
0.8495919357082032
0.9359923015256106
1.1583243290962097
1.2316258756174663
1.425303723374119
1.4901734821406876
2.124747352254041
2.612676769633819
2.9456212804393402
3.164539973932844