# vtk DataFile Version 4.0
[MyVLM domain - lattices] 
ASCII
DATASET UNSTRUCTURED_GRID
POINTS 62 float
0.00022673658128986117 -0.009532499999999836 0.00957269689525706
-0.003724999406033424 -0.01932145833333302 0.010193598365867335
-0.00549739299719125 -0.028698249999999544 0.011272443643222238
-0.005451904080891177 -0.0376628749999994 0.012778971530094711
-0.004354059046121628 -0.04621533333333261 0.013848370910937848
-0.0029556321221654493 -0.05435562499999915 0.014003176200856633
-0.0016722727371407085 -0.06208374999999904 0.013530364128720962
-0.0006485493516483927 -0.06939970833333226 0.012907294203932095
0.0001374053121431227 -0.07630349999999883 0.012213352730494401
0.0007511984436382017 -0.08279512499999873 0.011416515406367851
0.0012455433643025467 -0.08887458333333197 0.010556571721314405
0.0016598526811940704 -0.09454187499999857 0.00971471182283687
0.002022453218220871 -0.09979699999999848 0.008982560626999184
0.002352563731918074 -0.10463995833333174 0.008415224441117254
0.002662053738196183 -0.10907074999999833 0.00795890942946667
0.002957000443680671 -0.1130893749999983 0.00749601525394607
0.0032390594424296184 -0.11669583333333156 0.006912800012521492
0.0035066635059833096 -0.11989012499999817 0.006138329173825566
0.0037560624618667195 -0.12267224999999814 0.005160518770430014
0.003982215822832984 -0.12504220833333146 0.0040254061412142465
0.004179548496302947 -0.1269999999999981 0.0028250805657761267
0.008285994416043337 -0.009532499999999867 -0.005721730134920587
0.007508437091591354 -0.01932145833333305 -0.00396953824097379
0.00973309288421085 -0.028698249999999578 -0.0032636142307343402
0.010440442308044806 -0.03766287499999944 -0.007056598455758031
0.01004693542569484 -0.04621533333333266 -0.008743635055551686
0.0094954698488839 -0.05435562499999921 -0.009221717647476037
0.009038213335578684 -0.0620837499999991 -0.009265399611462981
0.008539133039147835 -0.0693997083333323 -0.008996302442302134
0.008012046218423283 -0.07630349999999887 -0.008462139875867834
0.007469873605570215 -0.08279512499999878 -0.007755915822767714
0.0069256484677951155 -0.08887458333333201 -0.006953709751249666
0.0064559301991455546 -0.0945418749999986 -0.0060943289284269755
0.006108090109537901 -0.09979699999999851 -0.005214201712214536
0.005835591307912621 -0.10463995833333176 -0.004367955861814749
0.005646315885461864 -0.10907074999999838 -0.003596019912326358
0.005556570152728891 -0.1130893749999983 -0.0029345419214116234
0.005484703593381549 -0.11669583333333157 -0.00243118843352218
0.005393245002100456 -0.1198901249999982 -0.0021030713451160536
0.005297730961761147 -0.12267224999999816 -0.00193619130961585
0.00521698140800628 -0.12504220833333146 -0.0019008688713606746
0.005155604557614359 -0.1269999999999981 -0.0019595648644507857
0.005485628962270063 -0.01442697916666645 -0.0011634387333198418
0.005312774690522743 -0.024009854166666306 -2.9176925754351795e-5
0.006196413562335568 -0.0331805624999995 -0.0008636528607700204
0.006457021259275767 -0.04193910416666605 -0.0025966697616120723
0.006414690581931144 -0.050285479166665925 -0.0032555638746610853
0.006371643086760199 -0.05821968749999914 -0.0034909764309049313
0.006301402129423808 -0.0657417291666657 -0.0035434309785802847
0.00614279921665101 -0.07285160416666558 -0.003406835002510426
0.005916795403470228 -0.0795493124999988 -0.003128037369880549
0.005647913503504593 -0.08583485416666538 -0.0027694736992962365
0.005381266505789829 -0.0917082291666653 -0.00235910406185983
0.005171795853183163 -0.09716943749999854 -0.0019035399340110598
0.005025757650311314 -0.10221847916666514 -0.0014185859567464277
0.004932542381279714 -0.10685535416666504 -0.0009397241814799252
0.00490346403705614 -0.11108006249999833 -0.0005170951022251496
0.004914985140555201 -0.11489260416666493 -0.00021104697479173014
0.0049224460918573685 -0.11829297916666488 -6.895626869595582e-5
0.004916956732429355 -0.12128118749999817 -0.00010236750249251655
0.004910301924250248 -0.12385722916666479 -0.00029065695391066425
0.004909940276999731 -0.12602110416666476 -0.0005913518125555008

CELLS 40 140
4 0 21 22 1
4 1 22 23 2
4 2 23 24 3
4 3 24 25 4
4 4 25 26 5
4 5 26 27 6
4 6 27 28 7
4 7 28 29 8
4 8 29 30 9
4 9 30 31 10
4 10 31 32 11
4 11 32 33 12
4 12 33 34 13
4 13 34 35 14
4 14 35 36 15
4 15 36 37 16
4 16 37 38 17
4 17 38 39 18
4 18 39 40 19
4 19 40 41 20
1 42
1 43
1 44
1 45
1 46
1 47
1 48
1 49
1 50
1 51
1 52
1 53
1 54
1 55
1 56
1 57
1 58
1 59
1 60
1 61

CELL_TYPES 40
9
9
9
9
9
9
9
9
9
9
9
9
9
9
9
9
9
9
9
9
1
1
1
1
1
1
1
1
1
1
1
1
1
1
1
1
1
1
1
1

CELL_DATA 40

VECTORS S float
-1.12952344539571e-18 5.4519309485012506e-17 1.0385421565025849e-17
1.1338338150793e-18 -5.44814312629715e-17 -1.058187031849626e-17
-7.36719718230532e-18 4.354953417407951e-16 8.66300065392939e-17
6.20113564126599e-18 -4.35309965438471e-16 -8.764705478205603e-17
5.3174254733707196e-18 -4.352299242928229e-16 -8.81014431871109e-17
-4.77917193986789e-18 4.351522079127275e-16 8.851520643087596e-17
-4.33253160971164e-18 4.351169639630314e-16 8.871123461376117e-17
-3.9357978567461696e-18 4.351071339721093e-16 8.8777912608152e-17
-3.5510158210967395e-18 4.3511755888868436e-16 8.874303656424841e-17
-3.23278500237305e-18 4.3513994654912143e-16 8.86453739549287e-17
2.94786071079918e-18 -4.351794015842396e-16 -8.846143147872883e-17
0.0 -0.0 -0.0
2.4739355462396297e-18 -4.353013865221254e-16 -8.787382340652549e-17
0.0 -0.0 -0.0
0.0 -0.0 -0.0
-1.90986497747312e-18 4.355336877708926e-16 8.672938105225628e-17
1.91564427938946e-18 -4.3561238327304484e-16 -8.633312314184882e-17
0.0 -0.0 -0.0
2.02776186438123e-18 -4.357285461012807e-16 -8.574233843054651e-17
1.0232011203324199e-18 -2.1789013185680542e-16 -4.273932703265865e-17
-1.12952344539571e-18 5.4519309485012506e-17 1.0385421565025849e-17
1.1338338150793e-18 -5.44814312629715e-17 -1.058187031849626e-17
-7.36719718230532e-18 4.354953417407951e-16 8.66300065392939e-17
6.20113564126599e-18 -4.35309965438471e-16 -8.764705478205603e-17
5.3174254733707196e-18 -4.352299242928229e-16 -8.81014431871109e-17
-4.77917193986789e-18 4.351522079127275e-16 8.851520643087596e-17
-4.33253160971164e-18 4.351169639630314e-16 8.871123461376117e-17
-3.9357978567461696e-18 4.351071339721093e-16 8.8777912608152e-17
-3.5510158210967395e-18 4.3511755888868436e-16 8.874303656424841e-17
-3.23278500237305e-18 4.3513994654912143e-16 8.86453739549287e-17
2.94786071079918e-18 -4.351794015842396e-16 -8.846143147872883e-17
0.0 -0.0 -0.0
2.4739355462396297e-18 -4.353013865221254e-16 -8.787382340652549e-17
0.0 -0.0 -0.0
0.0 -0.0 -0.0
-1.90986497747312e-18 4.355336877708926e-16 8.672938105225628e-17
1.91564427938946e-18 -4.3561238327304484e-16 -8.633312314184882e-17
0.0 -0.0 -0.0
2.02776186438123e-18 -4.357285461012807e-16 -8.574233843054651e-17
1.0232011203324199e-18 -2.1789013185680542e-16 -4.273932703265865e-17

SCALARS Gamma float
LOOKUP_TABLE default
0.11404920367894562
0.07836131155246757
0.4863768062234831
0.6460642551347484
0.76600326058068
0.8110676282039854
0.8224131445417792
0.8353072351575401
0.8240214906351201
0.7979473858120495
0.7599955086716889
0.7179343917952867
0.6774294227292413
0.6229261936938897
0.5822238485055715
0.5425508411340026
0.43152807635086443
0.3346760194832865
0.2396457108021677
0.1818226909236406
0.11404920367894562
0.07836131155246757
0.4863768062234831
0.6460642551347484
0.76600326058068
0.8110676282039854
0.8224131445417792
0.8353072351575401
0.8240214906351201
0.7979473858120495
0.7599955086716889
0.7179343917952867
0.6774294227292413
0.6229261936938897
0.5822238485055715
0.5425508411340026
0.43152807635086443
0.3346760194832865
0.2396457108021677
0.1818226909236406

VECTORS Ftot float
-1.8884150335397054 0.4870614250726511 -2.7622626050516526
-1.8880406961382001 0.3870174959806857 -2.194885288829259
-17.634441160276186 2.327923938168103 -13.20231270798578
-30.400753011068808 3.052389611026129 -17.310961707402665
-43.66690183414869 3.6045020934458156 -20.442147191333476
-53.81087848129435 3.8474255761864335 -21.819834722558568
-61.83749645913334 3.940507175305928 -22.347726703385913
-69.84554724743849 4.020302665078278 -22.800269413819336
-75.53092488324583 3.9344963118166127 -22.313637402558754
-79.12265866023985 3.784219210659163 -21.461373610859646
-80.70990345460973 3.5772133056073483 -20.28738478498577
-80.9539040379961 3.3452149501257966 -18.971656729362024
-80.46089815718733 3.156806820100573 -17.903141126881785
-77.46799287515121 2.870383637632317 -16.2787545394325
-75.3443969635158 2.679422875816986 -15.195762242688852
-72.7089139070833 2.465056454848679 -13.98002985671476
-59.44408364191638 2.108495793385672 -11.957873859768721
-47.185935018195806 1.76253237382112 -9.995817808139483
-34.42727917258069 1.381277107829859 -7.833611749489703
-26.543825933350725 1.108710267381146 -6.287808382622258
-1.8884150335397054 0.4870614250726511 -2.7622626050516526
-1.8880406961382001 0.3870174959806857 -2.194885288829259
-17.634441160276186 2.327923938168103 -13.20231270798578
-30.400753011068808 3.052389611026129 -17.310961707402665
-43.66690183414869 3.6045020934458156 -20.442147191333476
-53.81087848129435 3.8474255761864335 -21.819834722558568
-61.83749645913334 3.940507175305928 -22.347726703385913
-69.84554724743849 4.020302665078278 -22.800269413819336
-75.53092488324583 3.9344963118166127 -22.313637402558754
-79.12265866023985 3.784219210659163 -21.461373610859646
-80.70990345460973 3.5772133056073483 -20.28738478498577
-80.9539040379961 3.3452149501257966 -18.971656729362024
-80.46089815718733 3.156806820100573 -17.903141126881785
-77.46799287515121 2.870383637632317 -16.2787545394325
-75.3443969635158 2.679422875816986 -15.195762242688852
-72.7089139070833 2.465056454848679 -13.98002985671476
-59.44408364191638 2.108495793385672 -11.957873859768721
-47.185935018195806 1.76253237382112 -9.995817808139483
-34.42727917258069 1.381277107829859 -7.833611749489703
-26.543825933350725 1.108710267381146 -6.287808382622258

VECTORS D float
-0.021946563247804935 -0.003158852821100912 0.014195795126260043
0.25216853224548846 0.05780078551376 -0.27057148006721127
0.762742332943006 0.23581954872818595 -1.1206168125177887
0.5775239308978068 0.2221288242520709 -1.0623698287183736
0.4507388390576673 0.20514632106180283 -0.9862386410118253
0.42258419138265035 0.22139403099489882 -1.0655852559085297
0.43820496142372234 0.2588462233841941 -1.2482054441856416
0.45142198106432635 0.29657012711552017 -1.4334992637992163
0.4030721235243611 0.2915991803059591 -1.4136163565934505
0.3778988299946877 0.2980608574582042 -1.4493313545955635
0.3712409196782693 0.31784894828767574 -1.5512630340110116
0.35918197965980003 0.3317587771651713 -1.6261537473002237
0.3885435776107423 0.384909649761448 -1.8957917841847165
0.3628731502918514 0.3832915220945275 -1.8975816853726084
0.3698009414572686 0.41393146395468494 -2.0601583001994417
0.34004857880871076 0.40081165057720786 -2.0052896411348136
0.4223938367187348 0.5209611912099323 -2.619249501575728
0.44439108204516203 0.5699587572419714 -2.8783997543007156
0.41824905064314244 0.5548270815370406 -2.809649147791596
0.3643088693039826 0.496643772324573 -2.5232268096322255
-0.021946563247804935 -0.003158852821100912 0.014195795126260043
0.25216853224548846 0.05780078551376 -0.27057148006721127
0.762742332943006 0.23581954872818595 -1.1206168125177887
0.5775239308978068 0.2221288242520709 -1.0623698287183736
0.4507388390576673 0.20514632106180283 -0.9862386410118253
0.42258419138265035 0.22139403099489882 -1.0655852559085297
0.43820496142372234 0.2588462233841941 -1.2482054441856416
0.45142198106432635 0.29657012711552017 -1.4334992637992163
0.4030721235243611 0.2915991803059591 -1.4136163565934505
0.3778988299946877 0.2980608574582042 -1.4493313545955635
0.3712409196782693 0.31784894828767574 -1.5512630340110116
0.35918197965980003 0.3317587771651713 -1.6261537473002237
0.3885435776107423 0.384909649761448 -1.8957917841847165
0.3628731502918514 0.3832915220945275 -1.8975816853726084
0.3698009414572686 0.41393146395468494 -2.0601583001994417
0.34004857880871076 0.40081165057720786 -2.0052896411348136
0.4223938367187348 0.5209611912099323 -2.619249501575728
0.44439108204516203 0.5699587572419714 -2.8783997543007156
0.41824905064314244 0.5548270815370406 -2.809649147791596
0.3643088693039826 0.496643772324573 -2.5232268096322255

VECTORS L float
-1.8664684702919003 0.49022027789375194 -2.776458400177913
-2.1402092283836884 0.3292167104669258 -1.9243138087620475
-18.39718349321919 2.0921043894399167 -12.081695895467993
-30.97827694196662 2.8302607867740597 -16.248591878684294
-44.11764067320637 3.3993557723840135 -19.455908550321652
-54.23346267267699 3.626031545191534 -20.754249466650034
-62.275701420557084 3.6816609519217356 -21.099521259200277
-70.29696922850282 3.723732537962758 -21.366770150020127
-75.9339970067702 3.6428971315106544 -20.900021045965307
-79.50055749023456 3.4861583532009583 -20.012042256264085
-81.08114437428803 3.2593643573196736 -18.736121750974764
-81.31308601765593 3.0134561729606273 -17.345502982061806
-80.84944173479808 2.771897170339126 -16.007349342697072
-77.83086602544307 2.487092115537789 -14.38117285405989
-75.71419790497309 2.265491411862301 -13.135603942489412
-73.04896248589202 2.064244804271471 -11.974740215579951
-59.86647747863512 1.5875346021757397 -9.338624358192995
-47.63032610024098 1.192573616579149 -7.11741805383877
-34.84552822322384 0.8264500262928187 -5.023962601698108
-26.90813480265472 0.6120664950565731 -3.7645815729900334
-1.8664684702919003 0.49022027789375194 -2.776458400177913
-2.1402092283836884 0.3292167104669258 -1.9243138087620475
-18.39718349321919 2.0921043894399167 -12.081695895467993
-30.97827694196662 2.8302607867740597 -16.248591878684294
-44.11764067320637 3.3993557723840135 -19.455908550321652
-54.23346267267699 3.626031545191534 -20.754249466650034
-62.275701420557084 3.6816609519217356 -21.099521259200277
-70.29696922850282 3.723732537962758 -21.366770150020127
-75.9339970067702 3.6428971315106544 -20.900021045965307
-79.50055749023456 3.4861583532009583 -20.012042256264085
-81.08114437428803 3.2593643573196736 -18.736121750974764
-81.31308601765593 3.0134561729606273 -17.345502982061806
-80.84944173479808 2.771897170339126 -16.007349342697072
-77.83086602544307 2.487092115537789 -14.38117285405989
-75.71419790497309 2.265491411862301 -13.135603942489412
-73.04896248589202 2.064244804271471 -11.974740215579951
-59.86647747863512 1.5875346021757397 -9.338624358192995
-47.63032610024098 1.192573616579149 -7.11741805383877
-34.84552822322384 0.8264500262928187 -5.023962601698108
-26.90813480265472 0.6120664950565731 -3.7645815729900334

SCALARS mu float
LOOKUP_TABLE default
-0.04964250859858723
0.5360759554984412
1.2873718870686703
0.8568778822460613
0.654879894187606
0.6304053926571007
0.6872823655699677
0.7573393651511728
0.7372505043287194
0.7664489581247702
0.849809424801999
0.9372656222411792
1.158286310503331
1.2315144669865317
1.4245127869721423
1.4901304550039196
2.126301991000439
2.615453358535865
2.947573985669478
3.1658048750624816
-0.04964250859858723
0.5360759554984412
1.2873718870686703
0.8568778822460613
0.654879894187606
0.6304053926571007
0.6872823655699677
0.7573393651511728
0.7372505043287194
0.7664489581247702
0.849809424801999
0.9372656222411792
1.158286310503331
1.2315144669865317
1.4245127869721423
1.4901304550039196
2.126301991000439
2.615453358535865
2.947573985669478
3.1658048750624816