# vtk DataFile Version 4.0
[MyVLM domain - lattices] 
ASCII
DATASET UNSTRUCTURED_GRID
POINTS 62 float
0.00022673658128986117 0.001205738372937081 0.013455529609587374
-0.003724999406033424 -0.004610844634181813 0.02135341451690482
-0.00549739299719125 -0.009811686706424112 0.029229922044491524
-0.005451904080891177 -0.014419969265767729 0.03706560066971566
-0.004354059046121628 -0.019098176061624887 0.0443045605227845
-0.0029556321221654493 -0.024212066952084964 0.05063989264167578
-0.0016722727371407085 -0.029541805008692704 0.056256062111975466
-0.0006485493516483927 -0.03472171163190129 0.0614599097116927
0.0001374053121431227 -0.03969097338466841 0.06630246397342031
0.0007511984436382017 -0.04447412230561661 0.0707631400725981
0.0012455433643025467 -0.04904067787721919 0.0748675142002408
0.0016598526811940704 -0.05332844483814561 0.07866777437719187
0.002022453218220871 -0.05726723443059385 0.08222281596423575
0.002352563731918074 -0.060814832774063764 0.08556806061293068
0.002662053738196183 -0.0640124483374861 0.08866893031219551
0.002957000443680671 -0.06695016820637227 0.09144983302180373
0.0032390594424296184 -0.06971512373272522 0.09383765685642573
0.0035066635059833096 -0.07236165392012417 0.09578680597819965
0.0037560624618667195 -0.07489901562466834 0.09728951296258673
0.003982215822832984 -0.07729194219873325 0.09837537004060162
0.004179548496302947 -0.07946988916141205 0.09910357106015474
0.008285994416043337 -0.01051047246421901 0.0036244614173345
0.007508437091591354 -0.015460436728987262 0.012249525791729684
0.00973309288421085 -0.020946953065624236 0.01988632414942598
0.010440442308044806 -0.02961489742952756 0.024315542051739587
0.01004693542569484 -0.036404656691164716 0.029782699009560973
0.0094954698488839 -0.04200336782662805 0.03571121863968274
0.009038213335578684 -0.047004373148513426 0.041603227626443855
0.008539133039147835 -0.05150084012706823 0.047380549179922
0.008012046218423283 -0.05552931960451946 0.0530125135018853
0.007469873605570215 -0.059161056709776436 0.058439338830942766
0.0069256484677951155 -0.06245433169672587 0.0636121222275531
0.0064559301991455546 -0.06543887265669256 0.06850591886125011
0.006108090109537901 -0.06814258533082913 0.07309731303492488
0.005835591307912621 -0.07060731701051264 0.07735119070181715
0.005646315885461864 -0.07286403775039893 0.08124156490048767
0.005556570152728891 -0.0749404385691897 0.08474520010735692
0.005484703593381549 -0.0768730341583848 0.0878314568582548
0.005393245002100456 -0.07867493299117716 0.09048933583815988
0.005297730961761147 -0.08033541094591383 0.09272783565359578
0.00521698140800628 -0.08183173224051105 0.0945660338909236
0.005155604557614359 -0.08313514020553192 0.09602806026086164
0.005485628962270063 -0.010164729230107942 0.010303863219210594
0.005312774690522743 -0.01545558759055505 0.018373860798107915
0.006196413562335568 -0.021989650932205902 0.024862640164712985
0.006457021259275767 -0.02894710096118368 0.030458110547050235
0.006414690581931144 -0.03481678957088602 0.03642827576402393
0.006371643086760199 -0.04009713686077526 0.04235491169400388
0.006301402129423808 -0.04497239455841737 0.048083412780345725
0.00614279921665101 -0.04943789552641659 0.05361769521631687
0.005916795403470228 -0.05352952807914659 0.058927645130562825
0.005647913503504593 -0.05729512067529283 0.06397312968104081
0.005381266505789829 -0.06075609197195251 0.0687361764804803
0.005171795853183163 -0.06391750665391306 0.07321253575374408
0.005025757650311314 -0.06679147177858538 0.07739204847342407
0.004932542381279714 -0.06940516817428558 0.08125190721650508
0.00490346403705614 -0.07179700568782803 0.08475988229469163
0.004914985140555201 -0.07401321376522761 0.08787718259688308
0.0049224460918573685 -0.07609008488769191 0.09057335511548369
0.004916956732429355 -0.0780364626695082 0.09284097917700666
0.004910301924250248 -0.07983654842283452 0.09469331145459331
0.004909940276999731 -0.08145780608728427 0.09615765294451402

CELLS 40 140
4 0 21 22 1
4 1 22 23 2
4 2 23 24 3
4 3 24 25 4
4 4 25 26 5
4 5 26 27 6
4 6 27 28 7
4 7 28 29 8
4 8 29 30 9
4 9 30 31 10
4 10 31 32 11
4 11 32 33 12
4 12 33 34 13
4 13 34 35 14
4 14 35 36 15
4 15 36 37 16
4 16 37 38 17
4 17 38 39 18
4 18 39 40 19
4 19 40 41 20
1 42
1 43
1 44
1 45
1 46
1 47
1 48
1 49
1 50
1 51
1 52
1 53
1 54
1 55
1 56
1 57
1 58
1 59
1 60
1 61

CELL_TYPES 40
9
9
9
9
9
9
9
9
9
9
9
9
9
9
9
9
9
9
9
9
1
1
1
1
1
1
1
1
1
1
1
1
1
1
1
1
1
1
1
1

CELL_DATA 40

VECTORS S float
4.67553757424046e-18 -1.720655507115085e-16 1.402689993656845e-16
4.6559783447257595e-18 -1.7256723943843826e-16 1.3965198285224382e-16
1.5015654695832918e-17 -6.928114835210945e-16 5.5556069302675425e-16
-2.501229620660688e-17 1.3880116983063087e-15 -1.108260588168395e-15
-2.1685228382519498e-17 1.3895362758425797e-15 -1.1064186865159045e-15
0.0 -0.0 0.0
0.0 -0.0 0.0
0.0 -0.0 0.0
-1.444560684222122e-17 1.3911069360037478e-15 -1.104561649673422e-15
-1.3211186009253249e-17 1.3910992252707166e-15 -1.1045868145598553e-15
-1.18227335781636e-17 1.389946823403028e-15 -1.1060522916962916e-15
1.076439325481187e-17 -1.3893045958189144e-15 1.1068696801152096e-15
0.0 -0.0 0.0
0.0 -0.0 0.0
0.0 -0.0 0.0
-7.69695013305952e-18 1.3857367820433883e-15 -1.1113586049222507e-15
0.0 -0.0 0.0
-3.92141627808349e-18 6.919410486206103e-16 -5.568331105000814e-16
-2.0318793327314998e-18 3.4577106958133293e-16 -2.7866371348313585e-16
0.0 -0.0 0.0
4.67553757424046e-18 -1.720655507115085e-16 1.402689993656845e-16
4.6559783447257595e-18 -1.7256723943843826e-16 1.3965198285224382e-16
1.5015654695832918e-17 -6.928114835210945e-16 5.5556069302675425e-16
-2.501229620660688e-17 1.3880116983063087e-15 -1.108260588168395e-15
-2.1685228382519498e-17 1.3895362758425797e-15 -1.1064186865159045e-15
0.0 -0.0 0.0
0.0 -0.0 0.0
0.0 -0.0 0.0
-1.444560684222122e-17 1.3911069360037478e-15 -1.104561649673422e-15
-1.3211186009253249e-17 1.3910992252707166e-15 -1.1045868145598553e-15
-1.18227335781636e-17 1.389946823403028e-15 -1.1060522916962916e-15
1.076439325481187e-17 -1.3893045958189144e-15 1.1068696801152096e-15
0.0 -0.0 0.0
0.0 -0.0 0.0
0.0 -0.0 0.0
-7.69695013305952e-18 1.3857367820433883e-15 -1.1113586049222507e-15
0.0 -0.0 0.0
-3.92141627808349e-18 6.919410486206103e-16 -5.568331105000814e-16
-2.0318793327314998e-18 3.4577106958133293e-16 -2.7866371348313585e-16
0.0 -0.0 0.0

SCALARS Gamma float
LOOKUP_TABLE default
0.11457064957532245
0.07841438717933435
0.48627800890506717
0.64465182376351
0.7657526178428531
0.8102304718566226
0.8306046894315917
0.8330170980854076
0.820689096951031
0.7992592045645875
0.7550447158618656
0.7146961330601108
0.6752120493756314
0.6213272188261513
0.5810043832794604
0.5415622578601847
0.4308011612789869
0.33397283666112815
0.23924588621375723
0.18147118002532076
0.11457064957532245
0.07841438717933435
0.48627800890506717
0.64465182376351
0.7657526178428531
0.8102304718566226
0.8306046894315917
0.8330170980854076
0.820689096951031
0.7992592045645875
0.7550447158618656
0.7146961330601108
0.6752120493756314
0.6213272188261513
0.5810043832794604
0.5415622578601847
0.4308011612789869
0.33397283666112815
0.23924588621375723
0.18147118002532076

VECTORS Ftot float
-1.8968406619716898 -1.8101459141168321 -2.157247896268453
-1.890304192845585 -1.4342432657945567 -1.7092645646647062
-17.642676609218658 -8.623569872622978 -10.277170376685572
-30.323201007524748 -11.280095651259087 -13.443094517194268
-43.651692720455316 -13.340274201347249 -15.898319705647353
-53.756414224455014 -14.236228235319176 -16.96607614443267
-62.4559468241782 -14.738633161872158 -17.56481902058921
-69.6429761805848 -14.864337857358702 -17.71462804304126
-75.2018582335636 -14.534558552683107 -17.3216123719309
-79.25458669073876 -14.01595896482232 -16.703569449979934
-80.10117823691822 -13.188698257907973 -15.717678530502742
-80.5150727877052 -12.348087056543116 -14.715877111301241
-80.13242437210556 -11.658769675764562 -13.894380646320775
-77.21262139782814 -10.6044636562104 -12.637907659823407
-75.13635413399186 -9.902037698799615 -11.800789001547681
-72.5319280620885 -9.11153835364743 -10.8587085670192
-59.310115770395115 -7.794404861198932 -9.289009995467552
-47.0615690159431 -6.513492170664539 -7.762477694723681
-34.35188452018596 -5.105023616988219 -6.083930235823964
-26.478560295567966 -4.097466000029838 -4.88316982606816
-1.8968406619716898 -1.8101459141168321 -2.157247896268453
-1.890304192845585 -1.4342432657945567 -1.7092645646647062
-17.642676609218658 -8.623569872622978 -10.277170376685572
-30.323201007524748 -11.280095651259087 -13.443094517194268
-43.651692720455316 -13.340274201347249 -15.898319705647353
-53.756414224455014 -14.236228235319176 -16.96607614443267
-62.4559468241782 -14.738633161872158 -17.56481902058921
-69.6429761805848 -14.864337857358702 -17.71462804304126
-75.2018582335636 -14.534558552683107 -17.3216123719309
-79.25458669073876 -14.01595896482232 -16.703569449979934
-80.10117823691822 -13.188698257907973 -15.717678530502742
-80.5150727877052 -12.348087056543116 -14.715877111301241
-80.13242437210556 -11.658769675764562 -13.894380646320775
-77.21262139782814 -10.6044636562104 -12.637907659823407
-75.13635413399186 -9.902037698799615 -11.800789001547681
-72.5319280620885 -9.11153835364743 -10.8587085670192
-59.310115770395115 -7.794404861198932 -9.289009995467552
-47.0615690159431 -6.513492170664539 -7.762477694723681
-34.35188452018596 -5.105023616988219 -6.083930235823964
-26.478560295567966 -4.097466000029838 -4.88316982606816

VECTORS D float
-0.02185884114259567 0.008797010754234329 0.01151975376199381
0.25241054691153647 -0.17007929866166763 -0.21858145135230123
0.7622858333751424 -0.7055467989378024 -0.9004545346678325
0.576118448793496 -0.6685315968153381 -0.850287136814808
0.4507011318064313 -0.6230218407060485 -0.7912782167803429
0.4225962946493352 -0.673183690939455 -0.8543746094403842
0.43898424297455285 -0.7899676871157563 -1.0016750906843905
0.4525056886850287 -0.9078142456753177 -1.1499579032623608
0.4040258034283365 -0.89517928305382 -1.132690518363897
0.3772395755606157 -0.9172340825104655 -1.159662044567685
0.37193440017706086 -0.9826284994354114 -1.2388190440761015
0.3599094501661305 -1.0321174491082525 -1.2989783243308697
0.388652178974154 -1.2031260865914775 -1.5113629633623757
0.36287625052476224 -1.2056844702729856 -1.5115809621866831
0.3698284813341782 -1.3107298134946288 -1.6399717753889802
0.3399807108916249 -1.2768499811567853 -1.594440166090464
0.4221268473755409 -1.6685478568404173 -2.079718654391152
0.44399240494268727 -1.8344517459331717 -2.282683123184735
0.4178010975861565 -1.7923257595467952 -2.2269972239123437
0.36401388686489194 -1.6108619684394303 -1.9990433997201333
-0.02185884114259567 0.008797010754234329 0.01151975376199381
0.25241054691153647 -0.17007929866166763 -0.21858145135230123
0.7622858333751424 -0.7055467989378024 -0.9004545346678325
0.576118448793496 -0.6685315968153381 -0.850287136814808
0.4507011318064313 -0.6230218407060485 -0.7912782167803429
0.4225962946493352 -0.673183690939455 -0.8543746094403842
0.43898424297455285 -0.7899676871157563 -1.0016750906843905
0.4525056886850287 -0.9078142456753177 -1.1499579032623608
0.4040258034283365 -0.89517928305382 -1.132690518363897
0.3772395755606157 -0.9172340825104655 -1.159662044567685
0.37193440017706086 -0.9826284994354114 -1.2388190440761015
0.3599094501661305 -1.0321174491082525 -1.2989783243308697
0.388652178974154 -1.2031260865914775 -1.5113629633623757
0.36287625052476224 -1.2056844702729856 -1.5115809621866831
0.3698284813341782 -1.3107298134946288 -1.6399717753889802
0.3399807108916249 -1.2768499811567853 -1.594440166090464
0.4221268473755409 -1.6685478568404173 -2.079718654391152
0.44399240494268727 -1.8344517459331717 -2.282683123184735
0.4178010975861565 -1.7923257595467952 -2.2269972239123437
0.36401388686489194 -1.6108619684394303 -1.9990433997201333

VECTORS L float
-1.8749818208290938 -1.8189429248710665 -2.168767650030447
-2.142714739757122 -1.2641639671328893 -1.4906831133124054
-18.4049624425938 -7.918023073685173 -9.376715842017738
-30.899319456318242 -10.61156405444375 -12.592807380379458
-44.10239385226175 -12.717252360641204 -15.107041488867013
-54.17901051910436 -13.563044544379723 -16.11170153499229
-62.89493106715276 -13.948665474756401 -16.563143929904818
-70.09548186926982 -13.956523611683382 -16.564670139778897
-75.60588403699195 -13.639379269629288 -16.188921853567003
-79.63182626629937 -13.098724882311855 -15.543907405412245
-80.47311263709527 -12.206069758472559 -14.478859486426638
-80.87498223787134 -11.315969607434866 -13.416898786970377
-80.52107655107973 -10.455643589173086 -12.383017682958402
-77.57549764835291 -9.398779185937416 -11.126326697636724
-75.50618261532605 -8.591307885304987 -10.160817226158704
-72.87190877298013 -7.83468837249065 -9.264268400928739
-59.73224261777065 -6.125857004358516 -7.2092913410763995
-47.5055614208858 -4.679040424731369 -5.479794571538947
-34.76968561777212 -3.312697857441423 -3.8569330119116203
-26.842574182432863 -2.4866040315904074 -2.884126426348027
-1.8749818208290938 -1.8189429248710665 -2.168767650030447
-2.142714739757122 -1.2641639671328893 -1.4906831133124054
-18.4049624425938 -7.918023073685173 -9.376715842017738
-30.899319456318242 -10.61156405444375 -12.592807380379458
-44.10239385226175 -12.717252360641204 -15.107041488867013
-54.17901051910436 -13.563044544379723 -16.11170153499229
-62.89493106715276 -13.948665474756401 -16.563143929904818
-70.09548186926982 -13.956523611683382 -16.564670139778897
-75.60588403699195 -13.639379269629288 -16.188921853567003
-79.63182626629937 -13.098724882311855 -15.543907405412245
-80.47311263709527 -12.206069758472559 -14.478859486426638
-80.87498223787134 -11.315969607434866 -13.416898786970377
-80.52107655107973 -10.455643589173086 -12.383017682958402
-77.57549764835291 -9.398779185937416 -11.126326697636724
-75.50618261532605 -8.591307885304987 -10.160817226158704
-72.87190877298013 -7.83468837249065 -9.264268400928739
-59.73224261777065 -6.125857004358516 -7.2092913410763995
-47.5055614208858 -4.679040424731369 -5.479794571538947
-34.76968561777212 -3.312697857441423 -3.8569330119116203
-26.842574182432863 -2.4866040315904074 -2.884126426348027

SCALARS mu float
LOOKUP_TABLE default
-0.049476377513594204
0.5363531756945972
1.2852113654019948
0.8542594030581885
0.6547466465297539
0.630033529137775
0.6878043382201522
0.7580868347553784
0.7376388841386312
0.765883651338433
0.849427629530549
0.9377806724582339
1.1575836562146713
1.230888836409484
1.4241452527633598
1.4893837619226853
2.124127224584478
2.611624528120455
2.9436759714326337
3.162064842286589
-0.049476377513594204
0.5363531756945972
1.2852113654019948
0.8542594030581885
0.6547466465297539
0.630033529137775
0.6878043382201522
0.7580868347553784
0.7376388841386312
0.765883651338433
0.849427629530549
0.9377806724582339
1.1575836562146713
1.230888836409484
1.4241452527633598
1.4893837619226853
2.124127224584478
2.611624528120455
2.9436759714326337
3.162064842286589