# vtk DataFile Version 4.0
[MyVLM domain - lattices] 
ASCII
DATASET UNSTRUCTURED_GRID
POINTS 152 float
0.0 1.4999999999999787 1.7708707379400592
0.0 3.7363636363635826 1.82508541615034
0.0 5.931651205936834 1.9422959226345626
0.0 8.085862708719734 2.0669177328625636
0.0 10.198998144712283 2.1984531786117127
0.0 12.271057513914478 2.300633836020561
0.0 14.302040816326326 2.3424976972091653
0.0 16.291948051947816 2.316199461221052
0.0 18.240779220778958 2.27014420651854
0.0 20.148534322819746 2.223914587662424
0.0 22.015213358070184 2.1773276458756174
0.0 23.840816326530266 2.1299869354698093
0.0 25.6253432282 2.081482387979737
0.0 27.36879406307938 2.0284979470470246
0.0 29.07116883116841 1.9732322230064971
0.0 30.73246753246709 1.9205004555720737
0.0 32.35269016697541 1.8710180976484942
0.0 33.931836734693384 1.8236150669334124
0.0 35.46990723562101 1.7774482500802236
0.0 36.96690166975828 1.7325173951112192
0.0 38.4228200371052 1.688822256778066
0.0 39.83766233766176 1.6463625965618058
0.0 41.21142857142797 1.6051381826728555
0.0 42.54411873840384 1.5651487900510053
0.0 43.835732838589344 1.5263942003654236
0.0 45.086270871984496 1.488874202014652
0.0 46.2957328385893 1.4525885901266056
0.0 47.46411873840376 1.4175371665585776
0.0 48.59142857142786 1.383720036946372
0.0 49.677662337661616 1.351141096735521
0.0 50.722820037105016 1.3198009719931272
0.0 51.726901669758064 1.28969887194437
0.0 52.68990723562076 1.2608340368929156
0.0 53.6118367346931 1.2332057382209176
0.0 54.49269016697509 1.206813278389015
0.0 55.33246753246674 1.1816559909363333
0.0 56.13116883116802 1.157317742549152
0.0 56.88879406307895 1.1324787175379987
0.0 57.60534322819953 1.1051191396351667
0.0 58.280816326529774 1.0741853005398356
0.0 58.91521335806964 1.0402800877949052
0.0 59.50853432281918 1.0030899866469611
0.0 60.06077922077836 0.9507326557590046
0.0 60.571948051947174 0.8834743712478663
0.0 61.042040816325645 0.8102837433756096
0.0 61.47105751391376 0.7372769059977989
0.0 61.85899814471152 0.6660134938686267
0.0 62.205862708718946 0.5950320477905471
0.0 62.511651205936005 0.5256391271197001
0.0 62.776363636362724 0.46040904861378246
0.0 62.99999999999908 0.4015703252869225
-0.8152906147965383 1.4999999999999778 -1.6759076874023495
-0.840508508576773 3.736363636363582 -1.727961053118994
-0.8937965186568912 5.931651205936834 -1.8370990402078409
-0.9506477078523391 8.085862708719734 -1.954493725696847
-1.020681877210228 10.198998144712283 -2.0791374181879663
-1.048954977401727 12.271057513914478 -2.1800955487444327
-0.9930987765444168 14.302040816326326 -2.2355843555156665
-0.9074282632528687 16.291948051947816 -2.2262284358623123
-0.838943182597301 18.240779220778958 -2.1928249280900793
-0.780438039247949 20.148534322819746 -2.154802731659017
-0.7250391551380654 22.015213358070184 -2.1161539742594617
-0.6716005320170477 23.840816326530266 -2.0765767027304416
-0.6190912009117757 25.6253432282 -2.035343921216645
-0.5668551203523576 27.36879406307938 -1.9889259921580145
-0.5160737545272154 29.07116883116841 -1.9394054938862224
-0.46824322159258064 30.73246753246709 -1.8917833829558874
-0.4244759216876314 32.35269016697541 -1.8467747481983412
-0.3845740908079094 33.931836734693384 -1.803216246355882
-0.34771109645469384 35.46990723562101 -1.7603561333212532
-0.3130568676883623 36.96690166975828 -1.7183186269393769
-0.28047282351476527 38.4228200371052 -1.6771452288501085
-0.25028172479700606 39.83766233766176 -1.6368386054108295
-0.22269967179244904 41.21142857142797 -1.5974179598264662
-0.19756508903558764 42.54411873840384 -1.5589313947718961
-0.17527331282135344 43.835732838589344 -1.5213899416979946
-0.15618952887338375 45.086270871984496 -1.4848131303489247
-0.13996799493970205 46.2957328385893 -1.449257927352157
-0.12575834684109707 47.46411873840376 -1.4147933480970443
-0.11252036551224441 48.59142857142786 -1.3814803417739987
-0.10008619772204906 49.677662337661616 -1.3493287439342112
-0.0884564051429673 50.722820037105016 -1.3183429909101623
-0.07764813403823374 51.726901669758064 -1.2885282568378718
-0.06766754153321136 52.68990723562076 -1.2598902937854455
-0.05846867713071129 53.6118367346931 -1.2324361656955927
-0.05000632361003568 54.49269016697509 -1.2061723158717326
-0.0422455662862189 55.33246753246674 -1.1811044227934488
-0.03513713503927796 56.13116883116802 -1.1569320487308568
-0.028610254341892315 56.88879406307895 -1.1326852496038904
-0.02259956362415257 57.60534322819953 -1.1053612382192473
-0.017476911002663225 58.280816326529774 -1.07340539370704
-0.013355710955940858 58.91521335806964 -1.0396293298798227
-0.010110762084772787 59.50853432281918 -1.0039547489864074
-0.007505342360435571 60.06077922077836 -0.9518676351672888
-0.005475063785670375 60.571948051947174 -0.8832400767209118
-0.003985447751437076 61.042040816325645 -0.809001956881547
-0.0029419419370193198 61.47105751391376 -0.7363401214857074
-0.00222865752783443 61.85899814471152 -0.6664023126037385
-0.0017402354220029323 62.205862708718946 -0.5962370372026684
-0.0014049497009942318 62.511651205936005 -0.526835210155554
-0.0011720086804816246 62.776363636362724 -0.46104626490727163
-0.0010052173229800666 62.99999999999908 -0.40133683730170044
-0.6209246712649916 2.6181818181817804 -0.8269562584342042
-0.6503643852126241 4.834007421150208 -0.8659748676494503
-0.6916665849409614 7.008756957328284 -0.920695580277117
-0.7392485943984627 9.14243042671601 -0.9794403150225212
-0.7761138204794831 11.235027829313381 -1.034826485770616
-0.765770157729804 13.286549165120402 -1.0754885224438218
-0.7126976399239822 15.29699443413707 -1.0908426519629653
-0.6548892921938138 17.266363636363387 -1.0838520530146976
-0.6072679581919687 19.19465677179935 -1.0686030231332906
-0.5645539478947554 21.081873840444963 -1.051453485527174
-0.5237398826831674 22.928014842300225 -1.0338596812030356
-0.4840093998483088 24.733079777365134 -1.0155365685489641
-0.44472987047405005 26.497068645639686 -0.9953536756371518
-0.40609832807983987 28.219981447123892 -0.9729080360098988
-0.3691188660449235 29.90181818181775 -0.9499792439934702
-0.33476967873007946 31.542578849721252 -0.928019480030265
-0.3033937546858278 33.1422634508344 -0.9069174773850948
-0.27460694522347623 34.7008719851572 -0.8862067277522211
-0.24778798655364606 36.21840445268964 -0.865757329448806
-0.22257363420117282 37.694860853431734 -0.8456314894348964
-0.19903295561691423 39.13024118738348 -0.8258458311803681
-0.17736802372104568 40.52454545454487 -0.8064086145596534
-0.15759928531051376 41.877773654915906 -0.7873451363839034
-0.1398144006963529 43.18992578849659 -0.7686776273741556
-0.12429856563552642 44.46100185528692 -0.7504176017200855
-0.11105907142990716 45.6910018552869 -0.7325937976202482
-0.09964737816779967 46.87992578849653 -0.7152535087078022
-0.08935451713250306 48.027773654915805 -0.6984454832635223
-0.07972746121286005 49.134545454544735 -0.6821957654303421
-0.07070347607438114 50.20024118738331 -0.6665091419755591
-0.062289202192950394 51.22486085343154 -0.6513892374133256
-0.054493378339291916 52.2084044526894 -0.6368403428790833
-0.047301081998971 53.150871985156925 -0.6228674504161601
-0.040678125277780114 54.05226345083409 -0.6094758035115052
-0.03459445871109547 54.912578849720894 -0.5966701183337743
-0.029018512997061326 55.73181818181737 -0.584391960135929
-0.023905271017938854 56.50998144712347 -0.5723819293646365
-0.01920368173726683 57.247068645639246 -0.5595677007870308
-0.015028677985055923 57.943079777364645 -0.5446244319504823
-0.01156223323447653 58.598014842299705 -0.528079847803231
-0.008799927390267616 59.211873840444404 -0.5109227702696029
-0.006606039166953134 59.784656771798765 -0.48920556375689045
-0.00486765230478973 60.31636363636276 -0.4588895135822164
-0.003547691826415294 60.806994434136406 -0.4228709982729875
-0.0025977711331711486 61.25654916511971 -0.38605819821604426
-0.001938974799320156 61.66502782931264 -0.3506171128002391
-0.0014883348561890108 62.032430426715244 -0.315859063470006
-0.0011794444211239365 62.35875695732747 -0.28106819589555243
-0.0009663593930534462 62.64400742114936 -0.24719953118187435
-0.0008164597512981341 62.888181818180904 -0.21564624159077642

CELLS 100 350
4 0 51 52 1
4 1 52 53 2
4 2 53 54 3
4 3 54 55 4
4 4 55 56 5
4 5 56 57 6
4 6 57 58 7
4 7 58 59 8
4 8 59 60 9
4 9 60 61 10
4 10 61 62 11
4 11 62 63 12
4 12 63 64 13
4 13 64 65 14
4 14 65 66 15
4 15 66 67 16
4 16 67 68 17
4 17 68 69 18
4 18 69 70 19
4 19 70 71 20
4 20 71 72 21
4 21 72 73 22
4 22 73 74 23
4 23 74 75 24
4 24 75 76 25
4 25 76 77 26
4 26 77 78 27
4 27 78 79 28
4 28 79 80 29
4 29 80 81 30
4 30 81 82 31
4 31 82 83 32
4 32 83 84 33
4 33 84 85 34
4 34 85 86 35
4 35 86 87 36
4 36 87 88 37
4 37 88 89 38
4 38 89 90 39
4 39 90 91 40
4 40 91 92 41
4 41 92 93 42
4 42 93 94 43
4 43 94 95 44
4 44 95 96 45
4 45 96 97 46
4 46 97 98 47
4 47 98 99 48
4 48 99 100 49
4 49 100 101 50
1 102
1 103
1 104
1 105
1 106
1 107
1 108
1 109
1 110
1 111
1 112
1 113
1 114
1 115
1 116
1 117
1 118
1 119
1 120
1 121
1 122
1 123
1 124
1 125
1 126
1 127
1 128
1 129
1 130
1 131
1 132
1 133
1 134
1 135
1 136
1 137
1 138
1 139
1 140
1 141
1 142
1 143
1 144
1 145
1 146
1 147
1 148
1 149
1 150
1 151

CELL_TYPES 100
9
9
9
9
9
9
9
9
9
9
9
9
9
9
9
9
9
9
9
9
9
9
9
9
9
9
9
9
9
9
9
9
9
9
9
9
9
9
9
9
9
9
9
9
9
9
9
9
9
9
1
1
1
1
1
1
1
1
1
1
1
1
1
1
1
1
1
1
1
1
1
1
1
1
1
1
1
1
1
1
1
1
1
1
1
1
1
1
1
1
1
1
1
1
1
1
1
1
1
1

CELL_DATA 100

VECTORS S float
-5.95473340412887e-18 -1.7461209845474134e-15 3.2629690368942427e-16
-1.1166517536532079e-17 -1.7460872158723528e-15 3.2634087138648263e-16
2.6948496940939997e-17 3.49338936270364e-15 -6.459713790856897e-16
1.71994907970025e-17 -6.979801891962856e-15 1.3301006204843316e-15
4.1927147486818455e-17 -1.3973682696202154e-14 2.5851161979189936e-15
-0.0 0.0 -0.0
2.007709725438927e-17 2.7998212792789834e-14 -4.888071630627104e-15
0.0 0.0 -0.0
-8.528497615748189e-17 -2.8031720720299446e-14 4.691367271733548e-15
0.0 0.0 -0.0
0.0 0.0 -0.0
1.0385087986503421e-16 2.8055166308457285e-14 -4.5486729213992035e-15
-1.062720081839134e-16 -2.8060937182525962e-14 4.512879086007608e-15
1.0765450064941199e-16 2.8065935211798106e-14 -4.48165796797983e-15
0.0 0.0 -0.0
-1.0547326977096567e-16 -2.8073278397320205e-14 4.43547994722495e-15
0.0 0.0 -0.0
1.0179014310305015e-16 2.8078734587011528e-14 -4.400894193825355e-15
0.0 0.0 -0.0
9.759570835868951e-17 2.8082956944549603e-14 -4.3739651661391866e-15
-9.561526645513311e-17 -2.8085085484824574e-14 4.3603208571425845e-15
1.8848803507227952e-16 5.617366988462667e-14 -8.698134957500133e-15
9.423522259291792e-17 2.8088632543333354e-14 -4.337442623797284e-15
0.0 0.0 -0.0
9.096005547053607e-17 2.8092236238753298e-14 -4.314111301380711e-15
0.0 0.0 -0.0
8.831611000973639e-17 2.809486762840514e-14 -4.296996643403622e-15
-8.757634100665421e-17 -2.8096232000179824e-14 4.288081706647294e-15
0.0 0.0 -0.0
-8.676777734594675e-17 -2.809884187269504e-14 4.2709628554238595e-15
0.0 0.0 -0.0
0.0 0.0 -0.0
0.0 0.0 -0.0
8.728306561586333e-17 2.8102467403515103e-14 -4.247031251020392e-15
-8.603873225318937e-17 -2.810292852220721e-14 4.244004330650588e-15
0.0 0.0 -0.0
8.710379974027648e-17 2.8103457515732585e-14 -4.240478220177574e-15
-8.67415234140797e-17 -2.810308634872627e-14 4.242944794652298e-15
-8.640971309013638e-17 -2.8102951418016574e-14 4.243845179127076e-15
-8.629131511864177e-17 -2.8102656048876313e-14 4.2458030752505295e-15
0.0 0.0 -0.0
0.0 0.0 -0.0
4.261357858989606e-17 1.4050547977641957e-14 -2.128068924513564e-15
0.0 0.0 -0.0
4.1644484241952855e-17 1.4049885727248604e-14 -2.132455984250842e-15
-3.995904925643979e-17 -1.404952784103139e-14 2.134844831608482e-15
0.0 0.0 -0.0
-9.37951277865214e-18 -3.512215635018462e-15 5.348157078920573e-16
-8.735840721430189e-18 -3.5121150767290806e-15 5.354865604619407e-16
-1.6376250615096499e-18 -8.780033386188689e-16 1.340461143759473e-16
-5.95473340412887e-18 -1.7461209845474134e-15 3.2629690368942427e-16
-1.1166517536532079e-17 -1.7460872158723528e-15 3.2634087138648263e-16
2.6948496940939997e-17 3.49338936270364e-15 -6.459713790856897e-16
1.71994907970025e-17 -6.979801891962856e-15 1.3301006204843316e-15
4.1927147486818455e-17 -1.3973682696202154e-14 2.5851161979189936e-15
-0.0 0.0 -0.0
2.007709725438927e-17 2.7998212792789834e-14 -4.888071630627104e-15
0.0 0.0 -0.0
-8.528497615748189e-17 -2.8031720720299446e-14 4.691367271733548e-15
0.0 0.0 -0.0
0.0 0.0 -0.0
1.0385087986503421e-16 2.8055166308457285e-14 -4.5486729213992035e-15
-1.062720081839134e-16 -2.8060937182525962e-14 4.512879086007608e-15
1.0765450064941199e-16 2.8065935211798106e-14 -4.48165796797983e-15
0.0 0.0 -0.0
-1.0547326977096567e-16 -2.8073278397320205e-14 4.43547994722495e-15
0.0 0.0 -0.0
1.0179014310305015e-16 2.8078734587011528e-14 -4.400894193825355e-15
0.0 0.0 -0.0
9.759570835868951e-17 2.8082956944549603e-14 -4.3739651661391866e-15
-9.561526645513311e-17 -2.8085085484824574e-14 4.3603208571425845e-15
1.8848803507227952e-16 5.617366988462667e-14 -8.698134957500133e-15
9.423522259291792e-17 2.8088632543333354e-14 -4.337442623797284e-15
0.0 0.0 -0.0
9.096005547053607e-17 2.8092236238753298e-14 -4.314111301380711e-15
0.0 0.0 -0.0
8.831611000973639e-17 2.809486762840514e-14 -4.296996643403622e-15
-8.757634100665421e-17 -2.8096232000179824e-14 4.288081706647294e-15
0.0 0.0 -0.0
-8.676777734594675e-17 -2.809884187269504e-14 4.2709628554238595e-15
0.0 0.0 -0.0
0.0 0.0 -0.0
0.0 0.0 -0.0
8.728306561586333e-17 2.8102467403515103e-14 -4.247031251020392e-15
-8.603873225318937e-17 -2.810292852220721e-14 4.244004330650588e-15
0.0 0.0 -0.0
8.710379974027648e-17 2.8103457515732585e-14 -4.240478220177574e-15
-8.67415234140797e-17 -2.810308634872627e-14 4.242944794652298e-15
-8.640971309013638e-17 -2.8102951418016574e-14 4.243845179127076e-15
-8.629131511864177e-17 -2.8102656048876313e-14 4.2458030752505295e-15
0.0 0.0 -0.0
0.0 0.0 -0.0
4.261357858989606e-17 1.4050547977641957e-14 -2.128068924513564e-15
0.0 0.0 -0.0
4.1644484241952855e-17 1.4049885727248604e-14 -2.132455984250842e-15
-3.995904925643979e-17 -1.404952784103139e-14 2.134844831608482e-15
0.0 0.0 -0.0
-9.37951277865214e-18 -3.512215635018462e-15 5.348157078920573e-16
-8.735840721430189e-18 -3.5121150767290806e-15 5.354865604619407e-16
-1.6376250615096499e-18 -8.780033386188689e-16 1.340461143759473e-16

SCALARS Gamma float
LOOKUP_TABLE default
0.0
0.0
0.0
40.795221909460594
71.1647729797708
81.34009401792778
87.4080053640492
87.69737774840893
85.44420841575324
81.68500359288423
80.4033398800247
81.12101599314381
84.30514044450689
86.75719854815085
87.17771946951135
88.3699105011853
89.77805277037288
92.46996009544259
93.75160621595525
94.45388949111022
95.76782307000978
98.7735814227341
96.01741326156898
92.87642279808546
91.55333761656921
90.55818327037815
90.85930109940904
90.77641431869402
90.4388981968259
89.42217489522504
90.47597541609144
89.94925422818442
87.9904941711281
86.237179995131
85.20364364179781
83.32092449513418
80.45945907629135
77.47338136260755
73.70772050856795
69.2366508619597
64.24372907088441
58.656723151924346
50.77082431439947
43.28211567212298
36.60462436195633
29.607054810700088
23.21882789989138
17.036221696350875
11.297780677672984
5.584698259795623
0.0
0.0
0.0
40.795221909460594
71.1647729797708
81.34009401792778
87.4080053640492
87.69737774840893
85.44420841575324
81.68500359288423
80.4033398800247
81.12101599314381
84.30514044450689
86.75719854815085
87.17771946951135
88.3699105011853
89.77805277037288
92.46996009544259
93.75160621595525
94.45388949111022
95.76782307000978
98.7735814227341
96.01741326156898
92.87642279808546
91.55333761656921
90.55818327037815
90.85930109940904
90.77641431869402
90.4388981968259
89.42217489522504
90.47597541609144
89.94925422818442
87.9904941711281
86.237179995131
85.20364364179781
83.32092449513418
80.45945907629135
77.47338136260755
73.70772050856795
69.2366508619597
64.24372907088441
58.656723151924346
50.77082431439947
43.28211567212298
36.60462436195633
29.607054810700088
23.21882789989138
17.036221696350875
11.297780677672984
5.584698259795623

VECTORS Ftot float
129.54308058642067 7.3887858235027135 41.903886709879956
149.66728352923704 15.964855947959586 90.54119729047875
146.5718283694473 23.221485213122758 131.6955869137044
883.5959458057332 -26.96613362568444 -152.93254337672573
1497.9984007738667 -91.38993406257445 -518.2980715451391
1844.2505639701792 -129.87474283735048 -736.5562678809903
2181.780083417785 -158.37605472742484 -898.1952398384228
2439.537777329794 -162.21046661415906 -919.9412702605846
2625.467789031415 -157.0597295528422 -890.7299888071072
2743.4241813242575 -149.01684100061672 -845.1165011836595
2927.4002308721056 -144.85726403984756 -821.5263679887487
3174.9428200597677 -146.00000290358378 -828.0071621312266
3524.9617568640147 -151.8383944249615 -861.1183258222261
3854.6707384771394 -156.6413417066954 -888.3571934217058
4099.588854280886 -155.22180903460756 -880.3066235861407
4376.52840485508 -158.17000508467353 -897.0266742455486
4668.28910044275 -159.33383126130644 -903.6270604822819
5029.00746358899 -164.07037097373555 -930.4893120412785
5318.960862872538 -165.21303770870796 -936.9696971212094
5574.206499885395 -166.01280881529033 -941.5054244578255
5864.910941036988 -167.0725016125776 -947.5152409534608
6261.377741482925 -172.43985460676768 -977.9550124088814
6285.274060164087 -169.72284216752934 -962.5460691585539
6270.149740840725 -161.68549877682437 -916.9640297088245
6360.441809674235 -159.56833113204303 -904.956975335893
6461.534757641039 -159.52344115679688 -904.7023916353965
6651.882439099852 -157.69317803441913 -894.3224536643387
6806.578139686194 -157.80935766967158 -894.9813411175559
6935.660931065279 -157.55990914639358 -893.5666482425587
7004.191592455023 -156.7544239354924 -888.9985146100041
7227.962159330651 -161.19984117630074 -914.2097285884154
7321.401736091252 -161.80006166500777 -917.6137481337819
7289.26534361314 -159.41255409023654 -904.0735198307822
7262.959686356191 -157.83793625840482 -895.1434183482692
7289.5822688852495 -155.4756859719925 -881.7464312455522
7232.624598056799 -153.94468364441238 -873.0636855793546
7078.524694573899 -152.06925734258127 -862.4276144897469
6902.4506927192115 -148.19474242696833 -840.4541484889936
6645.200698037696 -142.31047779014844 -807.0828254323777
6310.928871101761 -135.34906509879195 -767.6026921970317
5915.997396894894 -126.6613782972137 -718.3323719847083
5451.9419842602965 -117.70597978592937 -667.54378322023
4760.4138538622465 -102.36736381221195 -580.5541693103887
4090.9391665111098 -87.56624706090972 -496.6128649686894
3485.21162947713 -74.19755988953614 -420.7952724615221
2838.951906860141 -58.408291202577026 -331.2498800121117
2240.0870882752083 -45.232121927677156 -256.5241107511667
1652.8826065864675 -32.35738571312391 -183.50785332519723
1102.072775564677 -20.259110783992437 -114.89512667087726
548.7271013548777 -7.628906471404925 -43.26567857484259
129.54308058642067 7.3887858235027135 41.903886709879956
149.66728352923704 15.964855947959586 90.54119729047875
146.5718283694473 23.221485213122758 131.6955869137044
883.5959458057332 -26.96613362568444 -152.93254337672573
1497.9984007738667 -91.38993406257445 -518.2980715451391
1844.2505639701792 -129.87474283735048 -736.5562678809903
2181.780083417785 -158.37605472742484 -898.1952398384228
2439.537777329794 -162.21046661415906 -919.9412702605846
2625.467789031415 -157.0597295528422 -890.7299888071072
2743.4241813242575 -149.01684100061672 -845.1165011836595
2927.4002308721056 -144.85726403984756 -821.5263679887487
3174.9428200597677 -146.00000290358378 -828.0071621312266
3524.9617568640147 -151.8383944249615 -861.1183258222261
3854.6707384771394 -156.6413417066954 -888.3571934217058
4099.588854280886 -155.22180903460756 -880.3066235861407
4376.52840485508 -158.17000508467353 -897.0266742455486
4668.28910044275 -159.33383126130644 -903.6270604822819
5029.00746358899 -164.07037097373555 -930.4893120412785
5318.960862872538 -165.21303770870796 -936.9696971212094
5574.206499885395 -166.01280881529033 -941.5054244578255
5864.910941036988 -167.0725016125776 -947.5152409534608
6261.377741482925 -172.43985460676768 -977.9550124088814
6285.274060164087 -169.72284216752934 -962.5460691585539
6270.149740840725 -161.68549877682437 -916.9640297088245
6360.441809674235 -159.56833113204303 -904.956975335893
6461.534757641039 -159.52344115679688 -904.7023916353965
6651.882439099852 -157.69317803441913 -894.3224536643387
6806.578139686194 -157.80935766967158 -894.9813411175559
6935.660931065279 -157.55990914639358 -893.5666482425587
7004.191592455023 -156.7544239354924 -888.9985146100041
7227.962159330651 -161.19984117630074 -914.2097285884154
7321.401736091252 -161.80006166500777 -917.6137481337819
7289.26534361314 -159.41255409023654 -904.0735198307822
7262.959686356191 -157.83793625840482 -895.1434183482692
7289.5822688852495 -155.4756859719925 -881.7464312455522
7232.624598056799 -153.94468364441238 -873.0636855793546
7078.524694573899 -152.06925734258127 -862.4276144897469
6902.4506927192115 -148.19474242696833 -840.4541484889936
6645.200698037696 -142.31047779014844 -807.0828254323777
6310.928871101761 -135.34906509879195 -767.6026921970317
5915.997396894894 -126.6613782972137 -718.3323719847083
5451.9419842602965 -117.70597978592937 -667.54378322023
4760.4138538622465 -102.36736381221195 -580.5541693103887
4090.9391665111098 -87.56624706090972 -496.6128649686894
3485.21162947713 -74.19755988953614 -420.7952724615221
2838.951906860141 -58.408291202577026 -331.2498800121117
2240.0870882752083 -45.232121927677156 -256.5241107511667
1652.8826065864675 -32.35738571312391 -183.50785332519723
1102.072775564677 -20.259110783992437 -114.89512667087726
548.7271013548777 -7.628906471404925 -43.26567857484259

VECTORS D float
104.3083855510353 -6.6382113187076115 -33.61966151577542
67.65256114147446 -8.054121824643362 -40.7786973975149
13.403393035522075 -2.3237714290411438 -12.007710165626467
428.6472820438093 -97.44841118573125 -516.9106074811527
679.0056982608471 -189.75213621891226 -1036.7057839266074
716.0794258423364 -237.04228656225803 -1326.4460133704836
714.6679683247379 -271.7059485303743 -1553.3595003274233
651.7223947192333 -277.3155142237228 -1619.6308837313254
578.9245155999471 -270.91660179660863 -1608.2486233820719
509.4123810950119 -258.7711172629492 -1557.541734612444
462.9687528198315 -254.14638410934398 -1542.9759406972994
438.08455325873075 -256.5684851498388 -1572.4533677563918
428.8707283507545 -266.6897909134496 -1648.1692451171552
417.3686118063828 -274.4866497165949 -1708.9195500144401
394.5933621832821 -273.6992569111622 -1714.2311651986465
380.76382121545583 -277.65498977228077 -1748.2945506043502
366.9416754166393 -280.3886637539928 -1774.135992454312
360.8712582998343 -288.28551880133335 -1830.9823130906236
349.52253247584395 -290.8777739590505 -1854.0734039434733
337.9621969621121 -292.23407404696997 -1868.7421935724442
329.2902221149684 -294.7642062236738 -1891.372912115047
328.51015967002536 -303.7682994572245 -1954.6557996282743
311.39653679213615 -296.6848290998973 -1914.521376778333
290.49493552348076 -284.5187500324057 -1841.3474573174926
278.89131351375084 -280.2255376423018 -1818.8668502178903
269.5711887180017 -278.1534673847988 -1809.1117609136834
262.7064320879245 -276.98685902718745 -1805.6118198115191
257.5873620069712 -276.92232274096176 -1809.180840719161
252.5837334277887 -276.2584502135666 -1808.7159410595893
246.98385649638428 -274.18602504342954 -1798.8635774185725
249.574047301912 -280.19588825061066 -1841.744607554414
247.3839108188914 -280.5528832767644 -1847.0379412920224
241.84301430513236 -276.3635867619794 -1821.8491867283726
238.0057833203906 -273.4163008465533 -1804.2953665307612
235.33359110332674 -271.204492443084 -1791.0897515576032
232.6137927947754 -268.4360431273128 -1773.7399437499973
228.6259277670676 -263.8072109760002 -1743.6666750927534
223.52797867145358 -257.5604510745782 -1701.378355963668
215.56942129106622 -247.94475222434716 -1637.513090356807
205.65539926467562 -236.04128618796025 -1558.160067002274
193.45323287713563 -221.5421233796428 -1461.4478814941488
179.79948554272673 -205.45910666409165 -1354.2142003914546
157.37079688231464 -179.4699806757264 -1181.796986103229
135.48891639658063 -154.24352371173777 -1014.6557096155869
115.55525456710276 -131.35561875699926 -863.1921164068697
92.91454564945971 -105.49260595933238 -692.5133413225412
72.88204331645444 -82.6714493546756 -542.1537360726439
53.14150065512039 -60.237956409949035 -394.65978247354093
34.486083712991345 -39.101283238251895 -255.89240060084592
15.341398588926348 -17.391280509608247 -113.72563063432501
104.3083855510353 -6.6382113187076115 -33.61966151577542
67.65256114147446 -8.054121824643362 -40.7786973975149
13.403393035522075 -2.3237714290411438 -12.007710165626467
428.6472820438093 -97.44841118573125 -516.9106074811527
679.0056982608471 -189.75213621891226 -1036.7057839266074
716.0794258423364 -237.04228656225803 -1326.4460133704836
714.6679683247379 -271.7059485303743 -1553.3595003274233
651.7223947192333 -277.3155142237228 -1619.6308837313254
578.9245155999471 -270.91660179660863 -1608.2486233820719
509.4123810950119 -258.7711172629492 -1557.541734612444
462.9687528198315 -254.14638410934398 -1542.9759406972994
438.08455325873075 -256.5684851498388 -1572.4533677563918
428.8707283507545 -266.6897909134496 -1648.1692451171552
417.3686118063828 -274.4866497165949 -1708.9195500144401
394.5933621832821 -273.6992569111622 -1714.2311651986465
380.76382121545583 -277.65498977228077 -1748.2945506043502
366.9416754166393 -280.3886637539928 -1774.135992454312
360.8712582998343 -288.28551880133335 -1830.9823130906236
349.52253247584395 -290.8777739590505 -1854.0734039434733
337.9621969621121 -292.23407404696997 -1868.7421935724442
329.2902221149684 -294.7642062236738 -1891.372912115047
328.51015967002536 -303.7682994572245 -1954.6557996282743
311.39653679213615 -296.6848290998973 -1914.521376778333
290.49493552348076 -284.5187500324057 -1841.3474573174926
278.89131351375084 -280.2255376423018 -1818.8668502178903
269.5711887180017 -278.1534673847988 -1809.1117609136834
262.7064320879245 -276.98685902718745 -1805.6118198115191
257.5873620069712 -276.92232274096176 -1809.180840719161
252.5837334277887 -276.2584502135666 -1808.7159410595893
246.98385649638428 -274.18602504342954 -1798.8635774185725
249.574047301912 -280.19588825061066 -1841.744607554414
247.3839108188914 -280.5528832767644 -1847.0379412920224
241.84301430513236 -276.3635867619794 -1821.8491867283726
238.0057833203906 -273.4163008465533 -1804.2953665307612
235.33359110332674 -271.204492443084 -1791.0897515576032
232.6137927947754 -268.4360431273128 -1773.7399437499973
228.6259277670676 -263.8072109760002 -1743.6666750927534
223.52797867145358 -257.5604510745782 -1701.378355963668
215.56942129106622 -247.94475222434716 -1637.513090356807
205.65539926467562 -236.04128618796025 -1558.160067002274
193.45323287713563 -221.5421233796428 -1461.4478814941488
179.79948554272673 -205.45910666409165 -1354.2142003914546
157.37079688231464 -179.4699806757264 -1181.796986103229
135.48891639658063 -154.24352371173777 -1014.6557096155869
115.55525456710276 -131.35561875699926 -863.1921164068697
92.91454564945971 -105.49260595933238 -692.5133413225412
72.88204331645444 -82.6714493546756 -542.1537360726439
53.14150065512039 -60.237956409949035 -394.65978247354093
34.486083712991345 -39.101283238251895 -255.89240060084592
15.341398588926348 -17.391280509608247 -113.72563063432501

VECTORS L float
25.234695035385382 14.026997142210327 75.52354822565538
82.01472238776256 24.018977772602952 131.31989468799367
133.16843533392523 25.545256642163896 143.70329707933087
454.9486637619239 70.48227756004681 363.97806410442695
818.9927025130193 98.36220215633782 518.4077123814684
1128.1711381278426 107.16754372490756 589.8897454894936
1467.1121150930471 113.32989380294948 655.1642604890008
1787.8153826105608 115.10504760956373 699.6896134707406
2046.5432734314686 113.85687224376645 717.5186345749647
2234.0118002292456 109.75427626233245 712.4252334287843
2464.4314780522745 109.28912006949648 721.4495727085508
2736.8582668010376 110.56848224625502 744.4462056251651
3096.091028513261 114.85139648848804 787.050919294929
3437.302126670757 117.84530800989944 820.562356592734
3704.9954920976043 118.47744787655465 833.9245416125061
3995.7645836396246 119.48498468760721 851.2678763588013
4301.347425026111 121.05483249268637 870.5089319720303
4668.136205289156 124.21514782759782 900.4930010493455
4969.438330396695 125.66473625034253 917.103706822264
5236.244302923284 126.22126523167972 927.2367691146192
5535.62071892202 127.69170461109624 943.8576711615862
5932.8675818128995 131.32844485045678 976.7007872193931
5973.877523371952 126.96198693236798 951.9753076197792
5979.654805317244 122.83325125558142 924.3834276086684
6081.550496160483 120.6572065102588 913.9098748819974
6191.963568923038 118.63002622800188 904.4093692782868
6389.176007011927 119.29368099276834 911.2893661471807
6548.990777679223 119.11296507129022 914.1994996016056
6683.077197637492 118.69854106717308 915.1492928170303
6757.20773595864 117.4316011079371 909.8650628085684
6978.3881120287415 118.99604707430991 927.5348789659982
7074.017825272364 118.75282161175664 929.4241931582411
7047.422329308007 116.95103267174288 917.7756668975908
7024.953903035801 115.5783645881485 909.1519481824921
7054.248677781921 115.7288064710915 909.3433203120513
7000.010805262024 114.49135948290038 900.6762581706424
6849.898766806832 111.73795363341893 881.2390606030069
6678.922714047759 109.36570864760995 860.9242074746742
6429.631276746631 105.6342744341987 830.4302649244295
6105.273471837086 100.6922210891683 790.5573748052427
5722.54416401776 94.88074508242917 743.1155095094408
5272.14249871757 87.75312687816226 686.6704171712248
4603.043056979933 77.10261686351447 601.2428167928405
3955.4502501145303 66.67727665082802 518.0428446468978
3369.6563749100283 57.15805886746314 442.3968439453476