# vtk DataFile Version 4.0
[MyVLM domain - lattices] 
ASCII
DATASET UNSTRUCTURED_GRID
POINTS 152 float
0.0 -2.1771043766487086 0.803865468723053
0.0 -2.9929309242911515 2.8868173620486166
0.0 -3.853905341501665 4.9096245374518395
0.0 -4.7077952638912395 6.89129802083567
0.0 -5.554133036315754 8.832008024752467
0.0 -6.3588374885039425 10.744159080729931
0.0 -7.092813850125276 12.638340819141186
0.0 -7.748689949760587 14.517236490944713
0.0 -8.371951682448028 16.36429058426768
0.0 -8.981000724177253 18.172805436789226
0.0 -9.575665149934537 19.94284362409688
0.0 -10.155572422632176 21.674540738601728
0.0 -10.720337203959266 23.36803703197906
0.0 -11.266843420224962 25.02446666230012
0.0 -11.79715708933701 26.64307766054304
0.0 -12.315803056522588 28.22222311773045
0.0 -12.823453627596944 29.761658334557282
0.0 -13.319009284854557 31.261783502740393
0.0 -13.801677760904917 32.72288698402752
0.0 -14.271458818966444 34.14496886460009
0.0 -14.728352228581091 35.528029228337985
0.0 -15.172357765614363 36.87206815681949
0.0 -15.6034752122553 38.177085729321306
0.0 -16.021704357016493 39.44308202281855
0.0 -16.42704499473408 40.67005711198477
0.0 -16.81949692656773 41.85801106919193
0.0 -17.199059960000668 43.0069439645104
0.0 -17.565733908839658 44.116855865708985
0.0 -17.919518872349904 45.18774673665809
0.0 -18.260418511053075 46.2196152450368
0.0 -18.588433413259843 47.21246117671753
0.0 -18.903562835884923 48.166284802161215
0.0 -19.20580606504724 49.081086381199306
0.0 -19.495162416069967 49.9568661630338
0.0 -19.771631233480463 50.79362438623722
0.0 -20.035211891010356 51.591361278752615
0.0 -20.28551335125458 52.35021916655591
0.0 -20.521295393146183 53.07064945319937
0.0 -20.740660047837235 53.753342942849265
0.0 -20.942617153416286 54.398660024968414
0.0 -21.12773323884346 55.006394499878475
0.0 -21.29571369661723 55.57665359594084
0.0 -21.43539277828614 56.113501313235105
0.0 -21.54702070155524 56.616846579964566
0.0 -21.63902520329141 57.08362195076742
0.0 -21.71715356933813 57.51173558466887
0.0 -21.78287137696797 57.90065405516565
0.0 -21.834805303768494 58.25087721073794
0.0 -21.874183113927526 58.561958181766684
0.0 -21.903423873903623 58.83301650006625
0.0 -21.92462170092957 59.06328996929684
-0.8152906132198464 1.0618078688735382 1.9827331174934573
-0.840508508580286 0.3458406242034455 4.102030824715527
-0.8937965186637556 -0.30243578385581027 6.202253744337488
-0.9506477078574832 -0.9289045911185985 8.266701744271096
-1.02068187720969 -1.534512717762011 10.29503017375766
-1.0489549773990687 -2.14832914991225 12.276658787106948
-0.9930987765435385 -2.7908239278311027 14.204137098969438
-0.9074282632533693 -3.480203974416957 16.070838331352537
-0.8389431825969345 -4.178132519862842 17.890715927343898
-0.7804380392478915 -4.866352370703677 19.67041496192605
-0.7250391551382538 -5.541112154012568 21.41130082318201
-0.6716005320172311 -6.202695612947957 23.11327023704793
-0.6190912009116674 -6.8517859001507855 24.776074556297054
-0.5668551203522249 -7.49169978998618 26.398506573786694
-0.5160737545271722 -8.120480298964566 27.981278573256002
-0.46824322159258325 -8.733428065116431 29.52610098258193
-0.42447592168765613 -9.329871124743796 31.033218376549044
-0.38457409080794247 -9.910902662921018 32.502232868329735
-0.3477110964547294 -10.477229088038134 33.9328873462968
-0.31305686768839563 -11.028733673502918 35.32522429545536
-0.2804728235147938 -11.565377420530641 36.6792579102022
-0.25028172479702737 -12.087157823564956 37.994989102485285
-0.22269967179246206 -12.5940568374959 39.2724244401875
-0.19756508903559172 -13.086029260594852 40.51158037539259
-0.17527331282134875 -13.563064726688832 41.71246068107898
-0.15618952887337012 -14.025144883821367 42.87507203681257
-0.1399679949396797 -14.472216200872996 43.99943392632743
-0.12575834684106657 -14.904213824591627 45.08556995427694
-0.11252036551220733 -15.32108048147279 46.13350096651193
-0.1000861977220127 -15.722806929121717 47.143230326988984
-0.08845640514293837 -16.10938899874952 48.11475955302318
-0.07764813403821604 -16.480821828258755 49.04809041427325
-0.06766754153320646 -16.837100012473453 49.94322487806236
-0.05846867713071907 -17.178216913458776 50.80016536040122
-0.05000632361005495 -17.504166476490024 51.61891406502939
-0.04224556628624775 -17.81494336554184 52.399472934101254
-0.03513713503931205 -18.110829899731243 53.14173921186169
-0.02861025434192226 -18.39273752835053 53.845381157898224
-0.022599563624171346 -18.66348794837365 54.50937175850225
-0.017476911002667815 -18.924542025563508 55.133179302019784
-0.0133557109559299 -19.173257707153084 55.71776541701539
-0.010110762084749267 -19.40970856895985 56.26310332408156
-0.007505342360414162 -19.647533324602804 56.76422893742727
-0.005475063785658977 -19.886852171766694 57.22109850867308
-0.0039854477514337135 -20.117394379816954 57.6374502780541
-0.0029419419370200197 -20.332406522747046 58.015742291616064
-0.0022286575278371427 -20.530810075805693 58.356367100265324
-0.0017402354220080998 -20.715378535226364 58.65831523392808
-0.0014049497010025483 -20.88518074561716 58.92192560545043
-0.0011720086804935075 -21.037539115394647 59.14817277846829
-0.0010052173229957839 -21.170135765056564 59.33790039212709
-0.6209246706750498 -0.11838622771361351 2.7431218321748276
-0.6503643852165156 -0.8395777180937388 4.838661950832438
-0.6916665849454646 -1.531965216289516 6.900973628014159
-0.73924859440019 -2.2065225283561025 8.926062724959301
-0.7761138204782846 -2.8701870159803096 10.911404248509529
-0.7657701577284777 -3.5336388214824104 12.853110944762536
-0.7126976399238405 -4.206823438328755 14.747562950131478
-0.6548892921938638 -4.886956389381002 16.595773731412713
-0.6072679581918097 -5.560800884790605 18.402561086108342
-0.5645539478948045 -6.222382431032565 20.170099552026286
-0.5237398826833068 -6.870332609181035 21.898887192923556
-0.4840093998483369 -7.504919270735959 23.588826518826966
-0.4447298704739596 -8.127204711824389 25.239530885566303
-0.40609832807977386 -8.737567597051777 26.85086247049641
-0.3691188660449083 -9.334335654762821 28.423429930723415
-0.3347696787300898 -9.916144281712526 29.957729941210086
-0.3033937546858495 -10.483098034430743 31.453724446491755
-0.27460694522350193 -11.035635287329615 32.911253891330944
-0.24778798655367185 -11.573878108061814 34.33027384673551
-0.22257363420119602 -12.097768041206026 35.71080558873884
-0.19903295561693296 -12.60728946581028 37.052854802902495
-0.17736802372105853 -13.10243462013153 38.35642431426989
-0.15759928531052017 -13.583179732943009 39.62152277486001
-0.1398144006963527 -14.049503914200203 40.84815778802726
-0.12429856563551955 -14.50139634410405 42.036333291856415
-0.11105907142989367 -14.938830017581436 43.186059115390286
-0.09964737816777985 -15.361760493154275 44.29735143400406
-0.08935451713247772 -15.770141962422851 45.370226920591705
-0.07972746121283251 -16.16394995189831 46.4046944827747
-0.07070347607435665 -16.543179963490825 47.40075575772385
-0.06228920219293291 -16.907828591271198 48.358411985096
-0.05449337833928344 -17.2578918028911 49.277664632545914
-0.04730108199897208 -17.593364907364236 50.15851540745298
-0.04067812527779026 -17.914242977424603 51.000966103195346
-0.03459445871111351 -18.2205215813233 51.80501833279772
-0.029018512997084925 -18.512255629760524 52.57065211039968
-0.023905271017962866 -18.789688878580762 53.29777871612937
-0.0192036817372851 -19.053828983894498 53.98603139315626
-0.015028677985064689 -19.305920890383124 54.63495701867297
-0.011562233234474143 -19.54546869880119 55.24473608524406
-0.008799927390254687 -19.771543220474936 55.81570678988878
-0.006606039166936287 -19.987854019448918 56.34651896171281
-0.004867652304777427 -20.198196246118734 56.8357912789376
-0.003547691826409759 -20.399848194949698 57.28451436136419
-0.00259777113317015 -20.588197685040193 57.69436690555585
-0.001938974799321436 -20.761209342745538 58.06608972693484
-0.0014883348561919659 -20.91953031422908 58.39944728356048
-0.001179444421128993 -21.063833282528325 58.69419473883002
-0.000966359393061021 -21.19322082135832 58.95065872919863
-0.0008164597513084843 -21.306383777023353 59.16931574764366

CELLS 100 350
4 0 51 52 1
4 1 52 53 2
4 2 53 54 3
4 3 54 55 4
4 4 55 56 5
4 5 56 57 6
4 6 57 58 7
4 7 58 59 8
4 8 59 60 9
4 9 60 61 10
4 10 61 62 11
4 11 62 63 12
4 12 63 64 13
4 13 64 65 14
4 14 65 66 15
4 15 66 67 16
4 16 67 68 17
4 17 68 69 18
4 18 69 70 19
4 19 70 71 20
4 20 71 72 21
4 21 72 73 22
4 22 73 74 23
4 23 74 75 24
4 24 75 76 25
4 25 76 77 26
4 26 77 78 27
4 27 78 79 28
4 28 79 80 29
4 29 80 81 30
4 30 81 82 31
4 31 82 83 32
4 32 83 84 33
4 33 84 85 34
4 34 85 86 35
4 35 86 87 36
4 36 87 88 37
4 37 88 89 38
4 38 89 90 39
4 39 90 91 40
4 40 91 92 41
4 41 92 93 42
4 42 93 94 43
4 43 94 95 44
4 44 95 96 45
4 45 96 97 46
4 46 97 98 47
4 47 98 99 48
4 48 99 100 49
4 49 100 101 50
1 102
1 103
1 104
1 105
1 106
1 107
1 108
1 109
1 110
1 111
1 112
1 113
1 114
1 115
1 116
1 117
1 118
1 119
1 120
1 121
1 122
1 123
1 124
1 125
1 126
1 127
1 128
1 129
1 130
1 131
1 132
1 133
1 134
1 135
1 136
1 137
1 138
1 139
1 140
1 141
1 142
1 143
1 144
1 145
1 146
1 147
1 148
1 149
1 150
1 151

CELL_TYPES 100
9
9
9
9
9
9
9
9
9
9
9
9
9
9
9
9
9
9
9
9
9
9
9
9
9
9
9
9
9
9
9
9
9
9
9
9
9
9
9
9
9
9
9
9
9
9
9
9
9
9
1
1
1
1
1
1
1
1
1
1
1
1
1
1
1
1
1
1
1
1
1
1
1
1
1
1
1
1
1
1
1
1
1
1
1
1
1
1
1
1
1
1
1
1
1
1
1
1
1
1

CELL_DATA 100

VECTORS S float
-0.0 -0.0 0.0
-0.0 -0.0 0.0
7.522206417364465e-17 1.93186373222811e-15 -1.0481326944284718e-14
0.0 -0.0 0.0
-1.877833407432177e-17 1.3422574069630546e-15 -6.977470197841547e-15
0.0 -0.0 0.0
-1.9034107915635038e-17 1.3321340426225141e-15 -6.9794093252485784e-15
0.0 -0.0 0.0
-1.852316190239818e-17 1.3253517862469763e-15 -6.980701789169184e-15
4.101617781036386e-17 -2.6460351459158967e-15 1.396227801672473e-14
-4.30209974861142e-17 2.641625440118248e-15 -1.3963106959572946e-14
0.0 -0.0 0.0
4.3431383824521417e-17 -2.633757126088094e-15 1.3964591968699201e-14
-8.154239756591546e-17 5.259574332150602e-15 -2.7930696296875554e-14
-3.742526861609626e-17 2.6260867371933874e-15 -1.3966053828286108e-14
3.540168466139962e-17 -2.623097219714493e-15 1.3966620902467005e-14
0.0 -0.0 0.0
0.0 -0.0 0.0
0.0 -0.0 0.0
0.0 -0.0 0.0
0.0 -0.0 0.0
0.0 -0.0 0.0
0.0 -0.0 0.0
-2.308943927443676e-17 2.6065002927666338e-15 -1.3969753571132902e-14
-2.247379070577525e-17 2.605027314027712e-15 -1.3970029325612735e-14
0.0 -0.0 0.0
-2.01491107465873e-17 2.601949818230176e-15 -1.397060638960697e-14
-1.950310409881036e-17 2.6005104329046443e-15 -1.3970875307362229e-14
1.885223651786288e-17 -2.5990640238226016e-15 1.3971145354974601e-14
-1.828837355682916e-17 2.5976206271105895e-15 -1.3971414543616593e-14
-1.778782369765951e-17 2.5961732963002727e-15 -1.3971684205760037e-14
1.731261071824877e-17 -2.594715503505771e-15 1.3971955606355036e-14
-1.7056219943971638e-17 2.593278941910287e-15 -1.3972222627462853e-14
0.0 -0.0 0.0
-1.6153373071966158e-17 2.5903240709000263e-15 -1.3972771808515063e-14
0.0 -0.0 0.0
0.0 -0.0 0.0
0.0 -0.0 0.0
2.989891435607844e-17 -5.169198175921245e-15 2.7947666507586798e-14
-1.465151505683187e-17 2.583232316846969e-15 -1.3974086298104895e-14
1.45115497107962e-17 -2.581930173922693e-15 1.397432709394236e-14
0.0 -0.0 0.0
-1.372714634768459e-17 2.579405429452065e-15 -1.3974794128449455e-14
-1.3479418024578359e-17 2.5782538914936676e-15 -1.3975006866290497e-14
0.0 -0.0 0.0
-1.321661277807767e-17 2.5762055549838596e-15 -1.3975384860396367e-14
6.5141265331489e-18 -1.2876481844544302e-15 6.987776302470729e-15
6.42341876203261e-18 -1.2872379597446045e-15 6.9878519667225864e-15
6.3688381185074194e-18 -1.2868785724208175e-15 6.9879182101603e-15
0.0 -0.0 0.0
-0.0 -0.0 0.0
-0.0 -0.0 0.0
7.522206417364465e-17 1.93186373222811e-15 -1.0481326944284718e-14
0.0 -0.0 0.0
-1.877833407432177e-17 1.3422574069630546e-15 -6.977470197841547e-15
0.0 -0.0 0.0
-1.9034107915635038e-17 1.3321340426225141e-15 -6.9794093252485784e-15
0.0 -0.0 0.0
-1.852316190239818e-17 1.3253517862469763e-15 -6.980701789169184e-15
4.101617781036386e-17 -2.6460351459158967e-15 1.396227801672473e-14
-4.30209974861142e-17 2.641625440118248e-15 -1.3963106959572946e-14
0.0 -0.0 0.0
4.3431383824521417e-17 -2.633757126088094e-15 1.3964591968699201e-14
-8.154239756591546e-17 5.259574332150602e-15 -2.7930696296875554e-14
-3.742526861609626e-17 2.6260867371933874e-15 -1.3966053828286108e-14
3.540168466139962e-17 -2.623097219714493e-15 1.3966620902467005e-14
0.0 -0.0 0.0
0.0 -0.0 0.0
0.0 -0.0 0.0
0.0 -0.0 0.0
0.0 -0.0 0.0
0.0 -0.0 0.0
0.0 -0.0 0.0
-2.308943927443676e-17 2.6065002927666338e-15 -1.3969753571132902e-14
-2.247379070577525e-17 2.605027314027712e-15 -1.3970029325612735e-14
0.0 -0.0 0.0
-2.01491107465873e-17 2.601949818230176e-15 -1.397060638960697e-14
-1.950310409881036e-17 2.6005104329046443e-15 -1.3970875307362229e-14
1.885223651786288e-17 -2.5990640238226016e-15 1.3971145354974601e-14
-1.828837355682916e-17 2.5976206271105895e-15 -1.3971414543616593e-14
-1.778782369765951e-17 2.5961732963002727e-15 -1.3971684205760037e-14
1.731261071824877e-17 -2.594715503505771e-15 1.3971955606355036e-14
-1.7056219943971638e-17 2.593278941910287e-15 -1.3972222627462853e-14
0.0 -0.0 0.0
-1.6153373071966158e-17 2.5903240709000263e-15 -1.3972771808515063e-14
0.0 -0.0 0.0
0.0 -0.0 0.0
0.0 -0.0 0.0
2.989891435607844e-17 -5.169198175921245e-15 2.7947666507586798e-14
-1.465151505683187e-17 2.583232316846969e-15 -1.3974086298104895e-14
1.45115497107962e-17 -2.581930173922693e-15 1.397432709394236e-14
0.0 -0.0 0.0
-1.372714634768459e-17 2.579405429452065e-15 -1.3974794128449455e-14
-1.3479418024578359e-17 2.5782538914936676e-15 -1.3975006866290497e-14
0.0 -0.0 0.0
-1.321661277807767e-17 2.5762055549838596e-15 -1.3975384860396367e-14
6.5141265331489e-18 -1.2876481844544302e-15 6.987776302470729e-15
6.42341876203261e-18 -1.2872379597446045e-15 6.9878519667225864e-15
6.3688381185074194e-18 -1.2868785724208175e-15 6.9879182101603e-15
0.0 -0.0 0.0

SCALARS Gamma float
LOOKUP_TABLE default
-0.0
-0.0
-0.0
51.4144583437019
55.13513781338781
55.191883834210934
52.93726494739964
48.18083137082101
45.09534941032804
47.76728924463823
54.455590012701734
55.10769097610269
51.258038015558256
46.36346032654073
45.35112774102158
44.57090941825567
40.915973674083716
38.87639570265948
34.18070400804901
34.52068495846074
34.03738333340236
35.584352629227226
37.20321489580207
35.06206415505901
37.14508467142863
38.409059446083184
38.50907826514674
38.62028447587275
38.819193634113034
39.08676521398571
39.41144787435443
39.70374456314691
37.70832547214414
38.016589572279536
38.32795772756432
38.627196885600995
38.87344103376888
41.22416718941168
41.14539837297718
40.72456190174134
40.02296715040404
38.8266606088428
36.75551026097966
34.06813039381207
31.373637118322996
28.735536355959056
25.90240272743313
23.148320589889178
20.354644923114275
17.76315928991713
-0.0
-0.0
-0.0
51.4144583437019
55.13513781338781
55.191883834210934
52.93726494739964
48.18083137082101
45.09534941032804
47.76728924463823
54.455590012701734
55.10769097610269
51.258038015558256
46.36346032654073
45.35112774102158
44.57090941825567
40.915973674083716
38.87639570265948
34.18070400804901
34.52068495846074
34.03738333340236
35.584352629227226
37.20321489580207
35.06206415505901
37.14508467142863
38.409059446083184
38.50907826514674
38.62028447587275
38.819193634113034
39.08676521398571
39.41144787435443
39.70374456314691
37.70832547214414
38.016589572279536
38.32795772756432
38.627196885600995
38.87344103376888
41.22416718941168
41.14539837297718
40.72456190174134
40.02296715040404
38.8266606088428
36.75551026097966
34.06813039381207
31.373637118322996
28.735536355959056
25.90240272743313
23.148320589889178
20.354644923114275
17.76315928991713

VECTORS Ftot float
116.48976965416635 -39.02587973810057 -6.881315543710938
140.08143209833995 -86.78792191530916 -15.303052233288495
143.42496603596916 -128.8621073685852 -22.72186632003269
1281.7102914347313 11.903069122054152 2.0988322394559695
1310.3751151470597 219.81783103781166 38.75981445278086
1404.7687921104425 285.74203967262827 50.384031116953
1485.1862435500384 278.5804690805277 49.12125299731737
1474.4636176445026 272.65189847253026 48.07588604209224
1488.3510415164562 291.8409802029372 51.459438886182866
1683.1960510574975 374.9862105431743 66.12018631238674
2047.0923705503112 490.4845974434314 86.48566815120722
2205.7858017351405 547.3501571667754 96.51260060352135
2176.970527249595 551.5535242760166 97.25376763470311
2088.8733764122794 509.0014939688404 89.75069660762365
2161.307432108265 494.7410786871492 87.2362006373542
2234.6221369496307 493.184915944717 86.96180715949012
2153.0981311487553 447.8083641376963 78.9606967843969
2138.2439517710973 427.92820577802627 75.45528848483013
1960.9355345201163 370.26943164914786 65.28849093133364
2057.9746971374734 376.91558382701265 66.46038687818553
2103.0824347157995 376.59144146298087 66.4032318338161
2277.1058495260436 382.3966256997451 67.4268424427411
2457.002194531119 404.35069228444655 71.29793671789413
2385.5164811584814 384.48864601810584 67.79572206905843
2598.801852824574 412.0735828008294 72.65969068498995
2761.9816368704264 413.7930090460172 72.9628719233548
2839.7377891308797 412.9638163639443 72.81666288129935
2915.804236511009 414.8828475927178 73.15503986375423
2996.7773080924953 416.7162849876499 73.47832434392059
3081.2192342084595 420.2648273000349 74.10402809577968
3168.548105353941 425.08675720064167 74.95426443634155
3251.766457262522 429.47347291481304 75.72776077344776
3141.9813099237163 413.50842118104254 72.91269140437755
3220.592856368874 414.8400334872772 73.14749058181015
3297.1784954860004 420.87432765424836 74.21149945297887
3370.922076021715 427.96997757847424 75.46265398028187
3438.8426877062698 430.856222208075 75.97157678140542
3692.7679409371494 461.53624674047967 81.38129287526596
3729.4828211163453 462.1678859520046 81.49266791033122
3732.1429724758914 458.64597547658343 80.8716600698747
3704.82224085951 456.0828389156235 80.41970993893716
3628.556639215143 440.49820578735404 77.67171863398028
3465.66618299767 412.70763725247184 72.77149159205283
3237.9697969296208 382.5802308462815 67.45921698387241
3003.522872224459 352.62569401937765 62.17742394666393
2768.4806963712267 326.78883385350235 57.62168840262833
2510.1729665302337 294.5451943723175 51.93626480585875
2254.9459267631382 262.91826630389 46.359584070469104
1991.6547886477504 231.80765084780148 40.87394317911491
1744.7910501253928 202.07443374226602 35.63117478014656
116.48976965416635 -39.02587973810057 -6.881315543710938
140.08143209833995 -86.78792191530916 -15.303052233288495
143.42496603596916 -128.8621073685852 -22.72186632003269
1281.7102914347313 11.903069122054152 2.0988322394559695
1310.3751151470597 219.81783103781166 38.75981445278086
1404.7687921104425 285.74203967262827 50.384031116953
1485.1862435500384 278.5804690805277 49.12125299731737
1474.4636176445026 272.65189847253026 48.07588604209224
1488.3510415164562 291.8409802029372 51.459438886182866
1683.1960510574975 374.9862105431743 66.12018631238674
2047.0923705503112 490.4845974434314 86.48566815120722
2205.7858017351405 547.3501571667754 96.51260060352135
2176.970527249595 551.5535242760166 97.25376763470311
2088.8733764122794 509.0014939688404 89.75069660762365
2161.307432108265 494.7410786871492 87.2362006373542
2234.6221369496307 493.184915944717 86.96180715949012
2153.0981311487553 447.8083641376963 78.9606967843969
2138.2439517710973 427.92820577802627 75.45528848483013
1960.9355345201163 370.26943164914786 65.28849093133364
2057.9746971374734 376.91558382701265 66.46038687818553
2103.0824347157995 376.59144146298087 66.4032318338161
2277.1058495260436 382.3966256997451 67.4268424427411
2457.002194531119 404.35069228444655 71.29793671789413
2385.5164811584814 384.48864601810584 67.79572206905843
2598.801852824574 412.0735828008294 72.65969068498995
2761.9816368704264 413.7930090460172 72.9628719233548
2839.7377891308797 412.9638163639443 72.81666288129935
2915.804236511009 414.8828475927178 73.15503986375423
2996.7773080924953 416.7162849876499 73.47832434392059
3081.2192342084595 420.2648273000349 74.10402809577968
3168.548105353941 425.08675720064167 74.95426443634155
3251.766457262522 429.47347291481304 75.72776077344776
3141.9813099237163 413.50842118104254 72.91269140437755
3220.592856368874 414.8400334872772 73.14749058181015
3297.1784954860004 420.87432765424836 74.21149945297887
3370.922076021715 427.96997757847424 75.46265398028187
3438.8426877062698 430.856222208075 75.97157678140542
3692.7679409371494 461.53624674047967 81.38129287526596
3729.4828211163453 462.1678859520046 81.49266791033122
3732.1429724758914 458.64597547658343 80.8716600698747
3704.82224085951 456.0828389156235 80.41970993893716
3628.556639215143 440.49820578735404 77.67171863398028
3465.66618299767 412.70763725247184 72.77149159205283
3237.9697969296208 382.5802308462815 67.45921698387241
3003.522872224459 352.62569401937765 62.17742394666393
2768.4806963712267 326.78883385350235 57.62168840262833
2510.1729665302337 294.5451943723175 51.93626480585875
2254.9459267631382 262.91826630389 46.359584070469104
1991.6547886477504 231.80765084780148 40.87394317911491
1744.7910501253928 202.07443374226602 35.63117478014656

VECTORS D float
92.31923193421517 30.79772866723383 6.194437319072557
60.63446456196242 37.44912884574316 7.288382456963899
13.1224751038456 11.757899378597408 2.261331906453166
535.9851646334315 626.9277860252513 119.88805468120445
521.814782625823 749.2243315529297 142.72409167707505
478.85621556996443 812.0298643649393 154.2354156101289
414.558570991752 808.1085225947027 153.11010870767637
349.04051769678426 766.6680183854895 145.07398903295774
311.1617418223165 757.871389098731 143.06333806084743
324.63237450015896 865.986891267231 163.1622410233629
363.56889362035923 1051.5887557563065 197.82577912546228
359.93928691095044 1119.4613915317093 210.32082534843283
327.7118566793408 1088.3195402687813 204.240580147664
284.38421262103816 1002.486988115179 187.9461007588906
264.8250421561753 985.9056265265842 184.6736790018048
250.82559137954257 981.8509466949413 183.76748806185185
220.0936960397995 902.4429014380439 168.7826204463119
202.20829332421474 864.6148887916178 161.58253344293115
170.48494334634753 758.4598440881274 141.65651389332112
167.24690518242417 772.0207405656205 144.10508598129226
160.90850369626128 768.7465288973308 143.41407529944675
161.38501460524276 796.156936116924 148.448296417323
165.12297598002235 839.3577467154859 156.42241364558416
152.40551921626658 796.6748269895483 148.39304081145056
158.58644579503542 850.9021801691301 158.41479861873347
158.38844498029894 870.7880678148405 162.0367144981176
155.33049848560452 873.5929363149726 162.4779302439039
153.02730657724825 879.0538618116482 163.411681874585
151.13891639318325 885.4992280391209 164.5262304354893
149.88130523746253 894.4051002230943 166.09513981483775
149.12438778213775 905.2254720081745 168.016222287057
148.39118477271452 915.206385266779 169.77803428349372
140.0293767853898 876.4920478429021 162.50814627808865
139.2423232652641 883.6181631287079 163.7396842837761
139.28384856089488 895.2306430635397 165.8001441313379
139.5560598216507 907.6687399465468 168.01099119893507
139.2008475375686 915.3642393449235 169.34235761577187
147.05576754888992 976.9205915543066 180.63197292560452
145.86527513907293 978.1973437584111 180.77125366823032
143.52501375744978 970.9343969172467 179.33524949639914
140.88729670576413 960.7893837712384 177.37144630085533
135.590140820841 931.5346920366752 171.88668183086972
127.06345751749393 878.8986540067224 162.09839805758963
117.19619680527678 815.6832552550388 150.3726481615465
107.48406527855744 752.3036697534708 138.63090984362324
98.56879873068502 693.406771824883 127.72854913301028
88.52642158697607 625.5840708629795 115.19480388546036
78.81980814431901 559.2192008989122 102.94177581412798
69.19901467488071 492.6681550972641 90.6655395401096
60.216500425737394 429.986988694427 79.11115047335225
92.31923193421517 30.79772866723383 6.194437319072557
60.63446456196242 37.44912884574316 7.288382456963899
13.1224751038456 11.757899378597408 2.261331906453166
535.9851646334315 626.9277860252513 119.88805468120445
521.814782625823 749.2243315529297 142.72409167707505
478.85621556996443 812.0298643649393 154.2354156101289
414.558570991752 808.1085225947027 153.11010870767637
349.04051769678426 766.6680183854895 145.07398903295774
311.1617418223165 757.871389098731 143.06333806084743
324.63237450015896 865.986891267231 163.1622410233629
363.56889362035923 1051.5887557563065 197.82577912546228
359.93928691095044 1119.4613915317093 210.32082534843283
327.7118566793408 1088.3195402687813 204.240580147664
284.38421262103816 1002.486988115179 187.9461007588906
264.8250421561753 985.9056265265842 184.6736790018048
250.82559137954257 981.8509466949413 183.76748806185185
220.0936960397995 902.4429014380439 168.7826204463119
202.20829332421474 864.6148887916178 161.58253344293115
170.48494334634753 758.4598440881274 141.65651389332112
167.24690518242417 772.0207405656205 144.10508598129226
160.90850369626128 768.7465288973308 143.41407529944675
161.38501460524276 796.156936116924 148.448296417323
165.12297598002235 839.3577467154859 156.42241364558416
152.40551921626658 796.6748269895483 148.39304081145056
158.58644579503542 850.9021801691301 158.41479861873347
158.38844498029894 870.7880678148405 162.0367144981176
155.33049848560452 873.5929363149726 162.4779302439039
153.02730657724825 879.0538618116482 163.411681874585
151.13891639318325 885.4992280391209 164.5262304354893
149.88130523746253 894.4051002230943 166.09513981483775
149.12438778213775 905.2254720081745 168.016222287057
148.39118477271452 915.206385266779 169.77803428349372
140.0293767853898 876.4920478429021 162.50814627808865
139.2423232652641 883.6181631287079 163.7396842837761
139.28384856089488 895.2306430635397 165.8001441313379
139.5560598216507 907.6687399465468 168.01099119893507
139.2008475375686 915.3642393449235 169.34235761577187
147.05576754888992 976.9205915543066 180.63197292560452
145.86527513907293 978.1973437584111 180.77125366823032
143.52501375744978 970.9343969172467 179.33524949639914
140.88729670576413 960.7893837712384 177.37144630085533
135.590140820841 931.5346920366752 171.88668183086972
127.06345751749393 878.8986540067224 162.09839805758963
117.19619680527678 815.6832552550388 150.3726481615465
107.48406527855744 752.3036697534708 138.63090984362324
98.56879873068502 693.406771824883 127.72854913301028
88.52642158697607 625.5840708629795 115.19480388546036
78.81980814431901 559.2192008989122 102.94177581412798
69.19901467488071 492.6681550972641 90.6655395401096
60.216500425737394 429.986988694427 79.11115047335225

VECTORS L float
24.170537719951206 -69.8236084053344 -13.075752862783498
79.44696753637753 -124.23705076105227 -22.591434690252388
130.30249093212356 -140.62000674718263 -24.983198226485847
745.7251268012998 -615.0247169031973 -117.78922244174849
788.5603325212368 -529.4065005151178 -103.96427722429415
925.9125765404782 -526.2878246923108 -103.85138449317589
1070.6276725582866 -529.5280535141751 -103.98885571035902
1125.4230999477184 -494.0161199129593 -96.99810299086553
1177.1892996941401 -466.0304088957937 -91.60389917466452
1358.5636765573386 -491.00068072405685 -97.0420547109762
1683.5234769299523 -561.104158312875 -111.34011097425508
1845.8465148241899 -572.1112343649336 -113.80822474491143
1849.2586705702543 -536.7660159927649 -106.98681251296088
1804.4891637912413 -493.4854941463385 -98.19540415126693
1896.4823899520895 -491.1645478394349 -97.43747836445058
1983.7965455700883 -488.6660307502242 -96.80568090236174
1933.0044351089562 -454.63453730034763 -89.82192366191498
1936.0356584468832 -436.68668301359133 -86.12724495810102
1790.4505911737685 -388.1904124389793 -76.36802296198744
1890.7277919550495 -395.105156738608 -77.64469910310679
1942.1739310195385 -392.15508743435 -77.01084346563066
2115.7208349208017 -413.7603104171792 -81.02145397458193
2291.879218551097 -435.0070544310396 -85.12447692769005
2233.110961942215 -412.1861809714424 -80.59731874239215
2440.2154070295387 -438.8285973683006 -85.75510793374356
2603.5931918901283 -456.9950587688236 -89.07384257476284
2684.407290645275 -460.6291199510282 -89.6612673626045
2762.776929933761 -464.1710142189304 -90.25664201083077
2845.6383916993123 -468.782943051471 -91.04790609156872
2931.3379289709974 -474.1402729230592 -91.99111171905805
3019.423717571803 -480.13871480753266 -93.06195785071547
3103.3752724898077 -485.73291235196587 -94.05027351004591
3001.9519331383267 -462.9836266618596 -89.59545487371109
3081.35053310361 -468.77812964143055 -90.59219370196594
3157.894646925106 -474.35631540929137 -91.58864467835906
3231.3660162000647 -479.69876236807227 -92.54833721865316
3299.641840168701 -484.50801713684854 -93.37078083436651
3545.712173388259 -515.3843448138272 -99.2506800503386
3583.6175459772726 -516.0294578064065 -99.27858575789907
3588.617958718441 -512.2884214406635 -98.46358942652449
3563.934944153746 -504.706544855615 -96.95173636191818
3492.966498394302 -491.03648624932123 -94.21496319688943
3338.6027254801766 -466.19101675425065 -89.32690646553684
3120.7736001243447 -433.10302440875756 -82.91343117767413
2896.038806945902 -399.677975734093 -76.45348589695926
2669.911897640542 -366.6179379713806 -70.10686073038194
2421.646544943258 -331.038876490662 -63.2585390796016
2176.1261186188194 -296.30093459502234 -56.582191743658896
1922.45577397287 -260.86050424946274 -49.79159636099472
1684.5745496996558 -227.9125549521609 -43.479975693205674
24.170537719951206 -69.8236084053344 -13.075752862783498
79.44696753637753 -124.23705076105227 -22.591434690252388
130.30249093212356 -140.62000674718263 -24.983198226485847
745.7251268012998 -615.0247169031973 -117.78922244174849
788.5603325212368 -529.4065005151178 -103.96427722429415