# vtk DataFile Version 4.0
[MyVLM domain - lattices] 
ASCII
DATASET UNSTRUCTURED_GRID
POINTS 152 float
0.0 -1.784720106045271 -1.4834949658054257
0.0 -3.9965226337647364 -1.148545531178839
0.0 -6.178812243226204 -0.8827676607877254
0.0 -8.321936783038531 -0.6314212839272828
0.0 -10.425809834021772 -0.39401629307343766
0.0 -12.484133450465533 -0.13483526321790196
0.0 -14.491531136124559 0.1766134310483185
0.0 -16.446640568784503 0.5480559029318712
0.0 -18.357867202110178 0.9318224558779025
0.0 -20.22861152837994 1.3086279398503802
0.0 -22.058841777135566 1.6786525340714602
0.0 -23.84848910630573 2.042286661328641
0.0 -25.59748230824873 2.399934160225778
0.0 -27.305245555820882 2.7548607087740278
0.0 -28.972160633700234 3.1049010984697984
0.0 -30.59906369948814 3.445313243910211
0.0 -32.186078990277714 3.7753925615277626
0.0 -33.73300332340943 4.096291357445469
0.0 -35.239690293787085 4.408839936223731
0.0 -36.7061398576552 4.71303854601215
0.0 -38.13235197242687 5.008887428333187
0.0 -39.51832659668369 5.296386818082163
0.0 -40.86406369017584 5.575536943527253
0.0 -42.16956321382201 5.846338026309497
0.0 -43.43482512970945 6.1087902814427935
0.0 -44.65984940109396 6.3628939173138965
0.0 -45.84463599239987 6.608649135682424
0.0 -46.989184869220075 6.846056131680851
0.0 -48.09349604989802 7.075114801278219
0.0 -49.157570210870745 7.2958213082095655
0.0 -50.181407460853634 7.508175035919154
0.0 -51.1650076625301 7.71217676316816
0.0 -52.108370683980255 7.907827238111421
0.0 -53.01149639868092 8.09512717829744
0.0 -53.87438468550568 8.274077270668393
0.0 -54.69703542872481 8.44467817156011
0.0 -55.47937636754671 8.607339692286232
0.0 -56.221178318382066 8.7633615975703
0.0 -56.922090550762675 8.914732978740103
0.0 -57.58193009016233 9.0624915358997
0.0 -58.20080162690416 9.206043540722646
0.0 -58.7786507197226 9.345697744968792
0.0 -59.31341402169803 9.493155970510747
0.0 -59.8051377711929 9.64815598656422
0.0 -60.255379351035444 9.801865436209381
0.0 -60.66520081672404 9.948261103406812
0.0 -61.03487299599157 10.085807047758717
0.0 -61.36414210911166 10.215942525613553
0.0 -61.653235037735485 10.337380827187614
0.0 -61.902598807276796 10.44758674537922
0.0 -62.11262039495939 10.544365623294368
-0.8152906147965383 -1.186193313662876 1.9109191503869878
-0.840508508576773 -3.379542589210202 2.350522178570253
-0.8937965186568912 -5.522527195245051 2.839209800314759
-0.9506477078523391 -7.623626011610784 3.328895898514156
-1.020681877210228 -9.683014022082318 3.818588090867004
-1.048954977401727 -11.706062958182434 4.2778217740482845
-0.9930987765444168 -13.69655553045922 4.685144130497776
-0.9074282632528687 -15.657856242272558 5.021474113478508
-0.838943182597301 -17.582880744901644 5.326989061094655
-0.780438039247949 -19.468255245361153 5.620822704166967
-0.7250391551380654 -21.313286517952655 5.906906520995902
-0.6716005320170477 -23.118026996292294 6.184943145767488
-0.6190912009117757 -24.882602921885507 6.454216627327008
-0.5668551203523576 -26.60762720986243 6.711250951239995
-0.5160737545272154 -28.292738224290922 6.958097056793733
-0.46824322159258064 -29.937067558178683 7.199679924775687
-0.4244759216876314 -31.54049103765327 7.436703780211047
-0.3845740908079094 -33.10321067515139 7.668022953640214
-0.34771109645469384 -34.62535700966735 7.892897121638079
-0.3130568676883623 -36.106908470998725 8.111448614901384
-0.28047282351476527 -37.547857852461405 8.323718304566821
-0.25028172479700606 -38.94820469104728 8.529708816483815
-0.22269967179244904 -40.3079456521548 8.729439062117454
-0.19756508903558764 -41.62707238284215 8.922956413354902
-0.17527331282135344 -42.90558296751798 9.110271734054507
-0.15618952887338375 -44.143474014877796 9.291404257259737
-0.13996799493970205 -45.34073563277056 9.466410084146986
-0.12575834684109707 -46.49735583679969 9.635357181606764
-0.11252036551224441 -47.61332404324933 9.798305572874334
-0.10008619772204906 -48.68863854419394 9.95526494407676
-0.0884564051429673 -49.723298569272465 10.106239664148664
-0.07764813403823374 -50.717303220005626 10.251234828619316
-0.06766754153321136 -51.67065149755726 10.39025610216998
-0.05846867713071129 -52.5833421752866 10.5233104414262
-0.05000632361003568 -53.45537413432575 10.650404191803146
-0.0422455662862189 -54.286746388617075 10.77154294551153
-0.03513713503927796 -55.07751110862487 10.886430829145668
-0.028610254341892315 -55.827836723371085 10.994112634255522
-0.02259956362415257 -56.53824466137975 11.091631192732484
-0.017476911002663225 -57.2090048797319 11.177455501890892
-0.013355710955940858 -57.83962914681267 11.254354460811825
-0.010110762084772787 -58.43013105888385 11.322250961262869
-0.007505342360435571 -58.98303094835011 11.366851487898243
-0.005475063785670375 -59.49835102684529 11.388030072282556
-0.003985447751437076 -59.97419334006368 11.39655054816443
-0.0029419419370193198 -60.40930990532257 11.399490577043373
-0.00222865752783443 -60.80350141930303 11.397980464208716
-0.0017402354220029323 -61.15728040339163 11.389113556438629
-0.0014049497009942318 -61.47047478702642 11.37386571438267
-0.0011720086804816246 -61.742589771282354 11.35504308218905
-0.0010052173229800666 -61.97319702934015 11.335074821960676
-0.6209246712649916 -2.434806306053655 1.2690354362359324
-0.6503643852126241 -4.610193028794588 1.692235343086059
-0.6916665849409614 -6.74240108085403 2.123766018971467
-0.7392485943984627 -8.83345833976745 2.552126798892845
-0.7761138204794831 -10.884646778160194 2.9700472548068158
-0.765770157729804 -12.897940006564383 3.3663344851835753
-0.7126976399239822 -14.875175877888049 3.73056550823863
-0.6548892921938138 -16.81583984155216 4.065658485316158
-0.6072679581919687 -18.71748583765981 4.385485711439143
-0.5645539478947554 -20.579009824432116 4.696308518676306
-0.5237398826831674 -22.400158928272017 4.9995610244612845
-0.4840093998483088 -24.18098264613598 5.294962517604739
-0.44472987047405005 -25.921677282414176 5.5813997005876015
-0.40609832807983987 -27.62231281149765 5.858475728918126
-0.3691188660449235 -29.28258021007465 6.1279431608860335
-0.33476967873007946 -30.902227309657707 6.391232115049773
-0.3033937546858278 -32.48127343151263 6.648233015065877
-0.27460694522347623 -34.01979958395659 6.898486439938011
-0.24778798655364606 -35.51782832418006 7.141864461481783
-0.22257363420117282 -36.975348850057806 7.378428341593745
-0.19903295561691423 -38.392358274954574 7.608194451195908
-0.17736802372104568 -39.76885516455822 7.831170924676653
-0.15759928531051376 -41.10483512612359 8.047382674531727
-0.1398144006963529 -42.400294299326475 8.256851593747564
-0.12429856563552642 -43.65523068474884 8.459589021587428
-0.11105907142990716 -44.86963929205486 8.65562325965206
-0.09964737816779967 -46.04351190879134 8.845000883078065
-0.08935451713250306 -47.176840069908145 9.027769899550295
-0.07972746121286005 -48.26961925288732 9.203955957542632
-0.07070347607438114 -49.32184862651545 9.373563771100624
-0.062289202192950394 -50.33352756140225 9.536596909673907
-0.054493378339291916 -51.30465531239987 9.693059599205931
-0.047301081998971 -52.235231012649095 9.842956755899674
-0.040678125277780114 -53.12525375162795 9.986293543581732
-0.03459445871109547 -53.974722710382366 10.123074606771565
-0.029018512997061326 -54.783648035999676 10.253242398477243
-0.023905271017938854 -55.55207477273958 10.376541460007513
-0.01920368173726683 -56.28018912792466 10.491915757159303
-0.015028677985055923 -56.96822115803249 10.598060574813742
-0.01156223323447653 -57.61607922458753 10.695495620591313
-0.008799927390267616 -58.22359162046453 10.785194693989439
-0.006606039166953134 -58.791443845390305 10.86327013287036
-0.00486765230478973 -59.32033721480965 10.92574457970217
-0.003547691826415294 -59.80976877786941 10.975470410514319
-0.0025977711331711486 -60.25888623798978 11.01728123940495
-0.001938974799320156 -60.66731347332406 11.053310159365225
-0.0014883348561890108 -61.035170071648395 11.082878954414289
-0.0011794444211239365 -61.36258033976265 11.105282645658132
-0.0009663593930534462 -61.649378439992326 11.121461745285249
-0.0008164597512981341 -61.89532245051295 11.132788260140345

CELLS 100 350
4 0 51 52 1
4 1 52 53 2
4 2 53 54 3
4 3 54 55 4
4 4 55 56 5
4 5 56 57 6
4 6 57 58 7
4 7 58 59 8
4 8 59 60 9
4 9 60 61 10
4 10 61 62 11
4 11 62 63 12
4 12 63 64 13
4 13 64 65 14
4 14 65 66 15
4 15 66 67 16
4 16 67 68 17
4 17 68 69 18
4 18 69 70 19
4 19 70 71 20
4 20 71 72 21
4 21 72 73 22
4 22 73 74 23
4 23 74 75 24
4 24 75 76 25
4 25 76 77 26
4 26 77 78 27
4 27 78 79 28
4 28 79 80 29
4 29 80 81 30
4 30 81 82 31
4 31 82 83 32
4 32 83 84 33
4 33 84 85 34
4 34 85 86 35
4 35 86 87 36
4 36 87 88 37
4 37 88 89 38
4 38 89 90 39
4 39 90 91 40
4 40 91 92 41
4 41 92 93 42
4 42 93 94 43
4 43 94 95 44
4 44 95 96 45
4 45 96 97 46
4 46 97 98 47
4 47 98 99 48
4 48 99 100 49
4 49 100 101 50
1 102
1 103
1 104
1 105
1 106
1 107
1 108
1 109
1 110
1 111
1 112
1 113
1 114
1 115
1 116
1 117
1 118
1 119
1 120
1 121
1 122
1 123
1 124
1 125
1 126
1 127
1 128
1 129
1 130
1 131
1 132
1 133
1 134
1 135
1 136
1 137
1 138
1 139
1 140
1 141
1 142
1 143
1 144
1 145
1 146
1 147
1 148
1 149
1 150
1 151

CELL_TYPES 100
9
9
9
9
9
9
9
9
9
9
9
9
9
9
9
9
9
9
9
9
9
9
9
9
9
9
9
9
9
9
9
9
9
9
9
9
9
9
9
9
9
9
9
9
9
9
9
9
9
9
1
1
1
1
1
1
1
1
1
1
1
1
1
1
1
1
1
1
1
1
1
1
1
1
1
1
1
1
1
1
1
1
1
1
1
1
1
1
1
1
1
1
1
1
1
1
1
1
1
1

CELL_DATA 100

VECTORS S float
-1.037541434023961e-17 -3.3478976924952198e-15 1.18880102409892e-15
-0.0 -0.0 0.0
-0.0 -0.0 0.0
2.2247333171389518e-17 -6.7234315734535764e-15 2.2982756291182905e-15
2.2379101392765123e-16 -2.6917980230946737e-14 9.119529857112248e-15
-2.5901100934826877e-16 2.691802431917951e-14 -9.118467360001502e-15
-5.244416780613142e-16 5.3827283959750846e-14 -1.826260469450963e-14
-4.711334388416437e-16 5.3813428255832105e-14 -1.8304841993922837e-14
0.0 -0.0 0.0
-3.67977227583816e-16 5.379175603046466e-14 -1.8370787781263306e-14
3.3354189676103933e-16 -5.3789155776144945e-14 1.837905706172062e-14
3.08315469124304e-16 -5.378867897118269e-14 1.838089290246294e-14
2.882855718704507e-16 -5.378956336701942e-14 1.8378629763932873e-14
-2.6898469416026026e-16 5.378612156407855e-14 -1.8388992417034088e-14
0.0 -0.0 0.0
0.0 -0.0 0.0
0.0 -0.0 0.0
2.25586799171562e-16 -5.380409704348085e-14 1.833691685417697e-14
-2.1410121277066148e-16 5.3803260738145853e-14 -1.8339508237655907e-14
2.092240825459955e-16 -5.3810554858442193e-14 1.831815162332514e-14
-2.0300380827714588e-16 5.381685660631604e-14 -1.8299699512677972e-14
-1.9921330780147974e-16 5.382242791728391e-14 -1.828334856999773e-14
0.0 -0.0 0.0
1.9033524298323047e-16 -5.383116593434428e-14 1.8257700140752532e-14
1.8638880053068258e-16 -5.383452669686921e-14 1.8247828975644687e-14
1.8785512283550175e-16 -5.3842655752372796e-14 1.8223814084037556e-14
0.0 -0.0 0.0
0.0 -0.0 0.0
0.0 -0.0 0.0
1.7630121887810564e-16 -5.385819453216402e-14 1.8177955534137075e-14
-1.7498703058057892e-16 5.386144771101629e-14 -1.81683267748533e-14
-1.7814833035906624e-16 5.3868939453878414e-14 -1.8146071009230522e-14
0.0 -0.0 0.0
1.766493276064713e-16 -5.3873338339453045e-14 1.813302178245918e-14
0.0 -0.0 0.0
0.0 -0.0 0.0
1.7447805024449376e-16 -5.3872722613051954e-14 1.813487202746157e-14
0.0 -0.0 0.0
0.0 -0.0 0.0
0.0 -0.0 0.0
0.0 -0.0 0.0
-8.549950082317308e-17 2.6931730728729433e-14 -9.081196877993889e-15
-8.448600184115934e-17 2.693018036276957e-14 -9.085802919418263e-15
8.340742270987143e-17 -2.692857963978179e-14 9.090556018862795e-15
0.0 -0.0 0.0
-3.9431266494903206e-17 1.3462645702723301e-14 -4.5501656667364835e-15
3.837886068940381e-17 -1.3461866072885631e-14 4.552480712240528e-15
1.845210776453579e-17 -6.7305586488065904e-15 2.2773532288247693e-15
1.718117006636047e-17 -6.730192835936714e-15 2.2784440156927363e-15
3.1914455803099397e-18 -1.6824330583975691e-15 5.699582787978048e-16
-1.037541434023961e-17 -3.3478976924952198e-15 1.18880102409892e-15
-0.0 -0.0 0.0
-0.0 -0.0 0.0
2.2247333171389518e-17 -6.7234315734535764e-15 2.2982756291182905e-15
2.2379101392765123e-16 -2.6917980230946737e-14 9.119529857112248e-15
-2.5901100934826877e-16 2.691802431917951e-14 -9.118467360001502e-15
-5.244416780613142e-16 5.3827283959750846e-14 -1.826260469450963e-14
-4.711334388416437e-16 5.3813428255832105e-14 -1.8304841993922837e-14
0.0 -0.0 0.0
-3.67977227583816e-16 5.379175603046466e-14 -1.8370787781263306e-14
3.3354189676103933e-16 -5.3789155776144945e-14 1.837905706172062e-14
3.08315469124304e-16 -5.378867897118269e-14 1.838089290246294e-14
2.882855718704507e-16 -5.378956336701942e-14 1.8378629763932873e-14
-2.6898469416026026e-16 5.378612156407855e-14 -1.8388992417034088e-14
0.0 -0.0 0.0
0.0 -0.0 0.0
0.0 -0.0 0.0
2.25586799171562e-16 -5.380409704348085e-14 1.833691685417697e-14
-2.1410121277066148e-16 5.3803260738145853e-14 -1.8339508237655907e-14
2.092240825459955e-16 -5.3810554858442193e-14 1.831815162332514e-14
-2.0300380827714588e-16 5.381685660631604e-14 -1.8299699512677972e-14
-1.9921330780147974e-16 5.382242791728391e-14 -1.828334856999773e-14
0.0 -0.0 0.0
1.9033524298323047e-16 -5.383116593434428e-14 1.8257700140752532e-14
1.8638880053068258e-16 -5.383452669686921e-14 1.8247828975644687e-14
1.8785512283550175e-16 -5.3842655752372796e-14 1.8223814084037556e-14
0.0 -0.0 0.0
0.0 -0.0 0.0
0.0 -0.0 0.0
1.7630121887810564e-16 -5.385819453216402e-14 1.8177955534137075e-14
-1.7498703058057892e-16 5.386144771101629e-14 -1.81683267748533e-14
-1.7814833035906624e-16 5.3868939453878414e-14 -1.8146071009230522e-14
0.0 -0.0 0.0
1.766493276064713e-16 -5.3873338339453045e-14 1.813302178245918e-14
0.0 -0.0 0.0
0.0 -0.0 0.0
1.7447805024449376e-16 -5.3872722613051954e-14 1.813487202746157e-14
0.0 -0.0 0.0
0.0 -0.0 0.0
0.0 -0.0 0.0
0.0 -0.0 0.0
-8.549950082317308e-17 2.6931730728729433e-14 -9.081196877993889e-15
-8.448600184115934e-17 2.693018036276957e-14 -9.085802919418263e-15
8.340742270987143e-17 -2.692857963978179e-14 9.090556018862795e-15
0.0 -0.0 0.0
-3.9431266494903206e-17 1.3462645702723301e-14 -4.5501656667364835e-15
3.837886068940381e-17 -1.3461866072885631e-14 4.552480712240528e-15
1.845210776453579e-17 -6.7305586488065904e-15 2.2773532288247693e-15
1.718117006636047e-17 -6.730192835936714e-15 2.2784440156927363e-15
3.1914455803099397e-18 -1.6824330583975691e-15 5.699582787978048e-16

SCALARS Gamma float
LOOKUP_TABLE default
0.0
0.0
0.0
34.57698547280503
65.3765108268013
77.72984574126215
85.51426027851103
87.61016711947306
87.00066780337488
84.60162548634818
83.50644184859843
84.1266147821181
86.67818915313129
88.64824606289955
89.13270723155145
90.39416596056378
91.71099601234704
94.22150818790897
95.27117127417242
95.85620174051763
97.07127667039624
99.98767558565069
97.16145819509046
93.9550431778974
92.51593275791234
91.5630898575069
91.82399399403458
91.67694545034762
91.25358266514311
90.22274604546473
91.13259834689431
90.56423969837769
88.42670580765314
86.58986691460119
85.59275973885255
83.64506240756624
80.7056058464327
77.64539803233708
73.82534719554857
69.30847154975972
64.2805040583471
58.614674237598315
50.73057054114354
43.23431398007694
36.56785519401789
29.570940419089418
23.17848358239365
17.004218161318445
11.274686165139666
5.572738965969156
0.0
0.0
0.0
34.57698547280503
65.3765108268013
77.72984574126215
85.51426027851103
87.61016711947306
87.00066780337488
84.60162548634818
83.50644184859843
84.1266147821181
86.67818915313129
88.64824606289955
89.13270723155145
90.39416596056378
91.71099601234704
94.22150818790897
95.27117127417242
95.85620174051763
97.07127667039624
99.98767558565069
97.16145819509046
93.9550431778974
92.51593275791234
91.5630898575069
91.82399399403458
91.67694545034762
91.25358266514311
90.22274604546473
91.13259834689431
90.56423969837769
88.42670580765314
86.58986691460119
85.59275973885255
83.64506240756624
80.7056058464327
77.64539803233708
73.82534719554857
69.30847154975972
64.2805040583471
58.614674237598315
50.73057054114354
43.23431398007694
36.56785519401789
29.570940419089418
23.17848358239365
17.004218161318445
11.274686165139666
5.572738965969156

VECTORS Ftot float
91.08102799648488 -11.567637933468815 -31.781824018632456
111.28380845198126 -26.09751324573425 -71.70232834657308
115.9216775138096 -39.4486812897112 -108.38436107074408
695.3481346613415 37.82575013845635 103.92539437934188
1299.8146833571022 156.1994856964256 429.15455988135665
1688.2514849728425 234.43388096651285 644.1017943106099
2060.872710117207 296.01515116505567 813.294943642441
2361.045828161338 315.89792532708054 867.9224166887204
2600.7004448875377 316.68419977586814 870.0826879822584
2776.7072509795125 307.9060271318478 845.9648568587382
2981.794790480248 302.0102683108969 829.7663926276251
3240.037944213003 303.8558896022078 834.8371954503666
3575.9876310946875 312.8988379313497 859.6824917899789
3894.1648632699207 321.03626430779934 882.0398870117489
4151.721162994004 318.3440924306918 874.643205570105
4440.12594364439 324.449467409651 891.4175854620986
4734.701690033738 326.58469807797235 897.2840835086388
5092.789738758339 335.54979367701884 921.915481230271
5375.845055261711 336.9486935926624 925.7589271605788
5629.379379468388 338.2692482928129 929.3871213803969
5918.976322777418 339.5386332520154 932.8747278924012
6313.2146239919875 350.3920410616003 962.6942207733683
6337.335378654387 344.2865554864578 945.9195370208583
6322.157087846805 328.01250295990855 901.2069451811456
6408.101580332068 322.8951397766046 887.1471053878694
6514.8697501412025 324.35909782865906 891.1692970789178
6704.950367865562 320.6694312130748 881.0320213672844
6857.415333390723 320.5130919300177 880.6024827173114
6982.272038024916 319.61617227755323 878.1382162251002
7051.979295113962 317.5930170278797 872.5796428605711
7267.358644324019 322.4064267823591 885.8043774715858
7357.0340052896945 326.5978283199427 897.3201585519645
7311.76238915583 321.0148116345097 881.9809462762986
7279.716513809911 317.26405739957886 871.6758337099022
7311.098714455752 313.5865698357855 861.5720196680547
7249.53986415264 310.1266020879165 852.0658364087435
7089.680642491679 305.61380894673675 839.6670391546824
6908.377999519457 297.20217942758836 816.556276990004
6647.2791231506735 284.9635686987414 782.9309703670018
6309.727808272999 270.84882231588966 744.1510233987876
5912.448454652908 253.27119398401294 695.8568864693902
5441.946411388534 234.83196835735708 645.195530427924
4751.567645195668 204.07319450924737 560.6864938301309
4082.2557721927205 174.3884909620151 479.12844113090534
3478.3083513201977 147.68358980472843 405.75732821249215
2832.837097768323 116.21519043778211 319.2986115254266
2234.197532399376 89.87780824803058 246.93724867153762
1648.377467432116 64.22548524475867 176.4580704634913
1098.935942354654 40.15361184998469 110.32114186737901
547.2133049783596 14.992429302820888 41.19136097227039
91.08102799648488 -11.567637933468815 -31.781824018632456
111.28380845198126 -26.09751324573425 -71.70232834657308
115.9216775138096 -39.4486812897112 -108.38436107074408
695.3481346613415 37.82575013845635 103.92539437934188
1299.8146833571022 156.1994856964256 429.15455988135665
1688.2514849728425 234.43388096651285 644.1017943106099
2060.872710117207 296.01515116505567 813.294943642441
2361.045828161338 315.89792532708054 867.9224166887204
2600.7004448875377 316.68419977586814 870.0826879822584
2776.7072509795125 307.9060271318478 845.9648568587382
2981.794790480248 302.0102683108969 829.7663926276251
3240.037944213003 303.8558896022078 834.8371954503666
3575.9876310946875 312.8988379313497 859.6824917899789
3894.1648632699207 321.03626430779934 882.0398870117489
4151.721162994004 318.3440924306918 874.643205570105
4440.12594364439 324.449467409651 891.4175854620986
4734.701690033738 326.58469807797235 897.2840835086388
5092.789738758339 335.54979367701884 921.915481230271
5375.845055261711 336.9486935926624 925.7589271605788
5629.379379468388 338.2692482928129 929.3871213803969
5918.976322777418 339.5386332520154 932.8747278924012
6313.2146239919875 350.3920410616003 962.6942207733683
6337.335378654387 344.2865554864578 945.9195370208583
6322.157087846805 328.01250295990855 901.2069451811456
6408.101580332068 322.8951397766046 887.1471053878694
6514.8697501412025 324.35909782865906 891.1692970789178
6704.950367865562 320.6694312130748 881.0320213672844
6857.415333390723 320.5130919300177 880.6024827173114
6982.272038024916 319.61617227755323 878.1382162251002
7051.979295113962 317.5930170278797 872.5796428605711
7267.358644324019 322.4064267823591 885.8043774715858
7357.0340052896945 326.5978283199427 897.3201585519645
7311.76238915583 321.0148116345097 881.9809462762986
7279.716513809911 317.26405739957886 871.6758337099022
7311.098714455752 313.5865698357855 861.5720196680547
7249.53986415264 310.1266020879165 852.0658364087435
7089.680642491679 305.61380894673675 839.6670391546824
6908.377999519457 297.20217942758836 816.556276990004
6647.2791231506735 284.9635686987414 782.9309703670018
6309.727808272999 270.84882231588966 744.1510233987876
5912.448454652908 253.27119398401294 695.8568864693902
5441.946411388534 234.83196835735708 645.195530427924
4751.567645195668 204.07319450924737 560.6864938301309
4082.2557721927205 174.3884909620151 479.12844113090534
3478.3083513201977 147.68358980472843 405.75732821249215
2832.837097768323 116.21519043778211 319.2986115254266
2234.197532399376 89.87780824803058 246.93724867153762
1648.377467432116 64.22548524475867 176.4580704634913
1098.935942354654 40.15361184998469 110.32114186737901
547.2133049783596 14.992429302820888 41.19136097227039

VECTORS D float
69.00459944379583 8.38509579622 24.21632686592678
40.10446821698592 8.98229985251256 25.993950110072912
0.5828244261893171 0.18909726301959054 0.5482920293582029
312.33772942511354 132.10357852836665 383.43559760644877
571.9735323356373 297.1358699351736 863.0154250705166
653.6186373234243 401.4107645907559 1166.4120603103938
688.7600063556938 486.9108451961114 1415.3443228013055
659.1294669431343 525.9467264121525 1529.2379199482175
608.0416790306026 539.2076017833663 1566.807328093483
549.1941426081321 534.7387686661763 1554.7752652856384
504.3429769272242 534.1171547510796 1554.0237581590509
475.64601646659895 543.694988014937 1583.0561822148202
460.60980980472004 564.6621421830166 1645.3970347031177
445.05165227840195 582.3922570990694 1696.9341195023433
420.60550728635707 584.3179333384451 1704.2725459293254
405.7342244659842 595.7498329897155 1739.5093862562787
390.45707299732913 603.4819588073728 1764.0956585301255
383.1714973647195 620.9791537581765 1817.3602729494958
369.5445140947726 626.9278799831388 1834.9262055462084
356.87967248538433 630.4621516995378 1847.9402875474048
346.78137652301587 636.1156298082446 1866.8801458015578
345.42277955511463 656.1749048290865 1927.880637774952
326.844854735134 641.4193269832058 1886.3253059736248
304.6642643663567 616.3036123565793 1813.938963867291
291.80339258732977 607.2449723632217 1788.50628397778
283.99626208902305 605.6193499364699 1786.3880674364818
276.47776625566667 603.7431520520792 1782.335775225452
270.62560010648576 603.8129462653889 1783.9377203828235
264.91413732269234 602.5122532019831 1781.4015557242672
258.75262717489386 598.4115063619493 1770.4821015723821
259.03392451281326 607.5841261869122 1798.7365303568872
258.0309301988984 611.2786443273392 1812.1258582420132
251.57480048282642 601.3101779077855 1783.4112063026203
247.0935569154139 594.410982841916 1763.5921615436
245.0629523648229 591.5284484623982 1754.7156316098308
242.03316095981154 585.2229697947096 1736.208605631617
237.4657833004568 574.373701167956 1703.9901062212625
231.4563419049547 559.4329967221022 1659.4401297968507
222.88311052448606 537.9163013933348 1595.2375542342706
212.40285299849234 511.62345430297046 1516.7778545116284
199.65810506754536 479.7747928912637 1421.7014081594225
185.1465136631624 443.9382457549941 1314.826175533632
161.89456317562147 387.39429165801573 1146.7253267433061
139.21150335173442 332.50756179817023 983.6961641785492
118.63493005944333 282.91384787823824 836.4998924771331
95.31019774291288 226.992987480663 670.7817229514407
74.65262015967689 177.60824885537772 524.5652926328
54.37391385605784 129.2581278542465 381.5728214846721
35.27172561471093 83.79801243335477 247.26118770010368
15.643156542464347 37.1489174677107 109.5705508134298
69.00459944379583 8.38509579622 24.21632686592678
40.10446821698592 8.98229985251256 25.993950110072912
0.5828244261893171 0.18909726301959054 0.5482920293582029
312.33772942511354 132.10357852836665 383.43559760644877
571.9735323356373 297.1358699351736 863.0154250705166
653.6186373234243 401.4107645907559 1166.4120603103938
688.7600063556938 486.9108451961114 1415.3443228013055
659.1294669431343 525.9467264121525 1529.2379199482175
608.0416790306026 539.2076017833663 1566.807328093483
549.1941426081321 534.7387686661763 1554.7752652856384
504.3429769272242 534.1171547510796 1554.0237581590509
475.64601646659895 543.694988014937 1583.0561822148202
460.60980980472004 564.6621421830166 1645.3970347031177
445.05165227840195 582.3922570990694 1696.9341195023433
420.60550728635707 584.3179333384451 1704.2725459293254
405.7342244659842 595.7498329897155 1739.5093862562787
390.45707299732913 603.4819588073728 1764.0956585301255
383.1714973647195 620.9791537581765 1817.3602729494958
369.5445140947726 626.9278799831388 1834.9262055462084
356.87967248538433 630.4621516995378 1847.9402875474048
346.78137652301587 636.1156298082446 1866.8801458015578
345.42277955511463 656.1749048290865 1927.880637774952
326.844854735134 641.4193269832058 1886.3253059736248
304.6642643663567 616.3036123565793 1813.938963867291
291.80339258732977 607.2449723632217 1788.50628397778
283.99626208902305 605.6193499364699 1786.3880674364818
276.47776625566667 603.7431520520792 1782.335775225452
270.62560010648576 603.8129462653889 1783.9377203828235
264.91413732269234 602.5122532019831 1781.4015557242672
258.75262717489386 598.4115063619493 1770.4821015723821
259.03392451281326 607.5841261869122 1798.7365303568872
258.0309301988984 611.2786443273392 1812.1258582420132
251.57480048282642 601.3101779077855 1783.4112063026203
247.0935569154139 594.410982841916 1763.5921615436
245.0629523648229 591.5284484623982 1754.7156316098308
242.03316095981154 585.2229697947096 1736.208605631617
237.4657833004568 574.373701167956 1703.9901062212625
231.4563419049547 559.4329967221022 1659.4401297968507
222.88311052448606 537.9163013933348 1595.2375542342706
212.40285299849234 511.62345430297046 1516.7778545116284
199.65810506754536 479.7747928912637 1421.7014081594225
185.1465136631624 443.9382457549941 1314.826175533632
161.89456317562147 387.39429165801573 1146.7253267433061
139.21150335173442 332.50756179817023 983.6961641785492
118.63493005944333 282.91384787823824 836.4998924771331
95.31019774291288 226.992987480663 670.7817229514407
74.65262015967689 177.60824885537772 524.5652926328
54.37391385605784 129.2581278542465 381.5728214846721
35.27172561471093 83.79801243335477 247.26118770010368
15.643156542464347 37.1489174677107 109.5705508134298

VECTORS L float
22.076428552689038 -19.952733729688816 -55.99815088455925
71.17934023499534 -35.0798130982468 -97.696278456646
115.33885308762034 -39.6377785527308 -108.93265310010231
383.01040523622805 -94.27782838991033 -279.5102032271069
727.8411510214648 -140.93638423874808 -433.86086518916005
1034.6328476494184 -166.97688362424307 -522.310265999784
1372.112703761514 -190.89569403105563 -602.0493791588642
1701.9163612182035 -210.048801085072 -661.3155032594972
1992.6587658569354 -222.52340200749808 -696.7246401112243
2227.513108371381 -226.83274153432848 -708.8104084269005
2477.451813553024 -232.10688644018273 -724.2573655314259
2764.3919277464047 -239.83909841272927 -748.2189867644538
3115.377821289967 -251.76330425166694 -785.7145429131388
3449.1132109915193 -261.35599279127 -814.8942324905943
3731.1156557076474 -265.97384090775336 -829.6293403592209
4034.391719178406 -271.3003655800647 -848.0918007941805
4344.244617036409 -276.89726072940033 -866.8115750214865
4709.61824139362 -285.4293600811579 -895.4447917192251
5006.300541166938 -289.9791863904764 -909.1672783856295
5272.499706983002 -292.19290340672495 -918.5531661670079
5572.194946254402 -296.5769965562291 -934.0054179091564
5967.791844436875 -305.7828637674863 -965.1864170015835
6010.490523919254 -297.1327714967479 -940.4057689527666
6017.492823480448 -288.2911093966708 -912.7320186861452
6116.298187744739 -284.34983258661714 -901.3591785899104
6230.873488052179 -281.26025210781074 -895.2187703575636
6428.472601609896 -283.07372083900447 -901.3037538581676
6586.789733284237 -283.29985433537115 -903.3352376655123
6717.3579007022245 -282.8960809244297 -903.2633394991667
6793.226667939068 -280.81848933406957 -897.902458711811
7008.324719811207 -285.17769940455304 -912.9321528853013
7099.003075090798 -284.6808160073966 -914.8056996900497
7060.187588673006 -280.29536627327576 -901.4302600263219
7032.622956894499 -277.1469254423372 -891.9163278336981
7066.035762090929 -277.94187862661266 -893.1436119417766
7007.50670319283 -275.0963677067931 -884.1427692228734
6852.214859191222 -268.75989222121945 -864.3230670665807
6676.921657614503 -262.2308172945139 -842.8838528068467
6424.396012626187 -252.95273269459358 -812.3065838672691
6097.324955274507 -240.77463198708094 -772.6268311128413
5712.790349585363 -226.50359890725088 -725.8445216900325
5256.799897725373 -209.10627739763711 -669.6306451057083
4589.673082020046 -183.32109714876827 -586.038832913175
3943.0442688409867 -158.11907083615515 -504.5677230476442
3359.6734212607553 -135.23025807350976 -430.7425642646407
2737.5269000254107 -110.77779704288102 -351.4831114260143
2159.5449122396994 -87.7304406073471 -277.62804396126234
1594.0035535760583 -65.03264260948784 -205.1147510211808
1063.6642167399432 -43.64440058337008 -136.94004583272468
531.5701484358954 -22.156488164889826 -68.37918984115943
22.076428552689038 -19.952733729688816 -55.99815088455925
71.17934023499534 -35.0798130982468 -97.696278456646