# vtk DataFile Version 4.0
[MyVLM domain - lattices] 
ASCII
DATASET UNSTRUCTURED_GRID
POINTS 152 float
0.0 -1.7847201060452842 -1.483494965805439
0.0 -3.996522633764767 -1.1485455311788537
0.0 -6.178812243226252 -0.8827676607877417
0.0 -8.321936783038595 -0.631421283927301
0.0 -10.425809834021852 -0.3940162930734574
0.0 -12.484133450465631 -0.13483526321792327
0.0 -14.49153113612467 0.17661343104829585
0.0 -16.446640568784634 0.5480559029318481
0.0 -18.357867202110324 0.9318224558778785
0.0 -20.2286115283801 1.3086279398503557
0.0 -22.05884177713574 1.6786525340714362
0.0 -23.84848910630592 2.042286661328616
0.0 -25.597482308248928 2.3999341602257527
0.0 -27.3052455558211 2.7548607087740016
0.0 -28.972160633700465 3.104901098469772
0.0 -30.599063699488383 3.4453132439101855
0.0 -32.18607899027796 3.775392561527736
0.0 -33.73300332340969 4.096291357445441
0.0 -35.23969029378736 4.408839936223703
0.0 -36.70613985765549 4.713038546012123
0.0 -38.132351972427166 5.00888742833316
0.0 -39.518326596684005 5.2963868180821345
0.0 -40.86406369017616 5.575536943527224
0.0 -42.169563213822336 5.846338026309469
0.0 -43.43482512970979 6.108790281442763
0.0 -44.65984940109431 6.362893917313867
0.0 -45.844635992400235 6.608649135682396
0.0 -46.98918486922045 6.846056131680822
0.0 -48.09349604989841 7.075114801278189
0.0 -49.15757021087113 7.295821308209537
0.0 -50.18140746085403 7.508175035919126
0.0 -51.165007662530506 7.71217676316813
0.0 -52.10837068398065 7.907827238111389
0.0 -53.01149639868133 8.09512717829741
0.0 -53.87438468550611 8.27407727066836
0.0 -54.697035428725236 8.444678171560078
0.0 -55.47937636754715 8.6073396922862
0.0 -56.2211783183825 8.763361597570269
0.0 -56.92209055076312 8.91473297874007
0.0 -57.58193009016278 9.062491535899666
0.0 -58.20080162690461 9.206043540722614
0.0 -58.77865071972305 9.34569774496876
0.0 -59.31341402169849 9.493155970510715
0.0 -59.80513777119338 9.648155986564188
0.0 -60.25537935103593 9.801865436209349
0.0 -60.66520081672452 9.94826110340678
0.0 -61.03487299599205 10.085807047758689
0.0 -61.364142109112144 10.21594252561352
0.0 -61.65323503773597 10.337380827187586
0.0 -61.90259880727729 10.44758674537919
0.0 -62.112620394959876 10.544365623294338
-0.8152906147965383 -1.186193313662886 1.9109191503869993
-0.840508508576773 -3.379542589210229 2.3505221785702637
-0.8937965186568912 -5.522527195245096 2.8392098003147694
-0.9506477078523391 -7.6236260116108445 3.3288958985141663
-1.020681877210228 -9.683014022082395 3.8185880908670145
-1.048954977401727 -11.706062958182528 4.277821774048295
-0.9930987765444168 -13.69655553045933 4.685144130497786
-0.9074282632528687 -15.657856242272683 5.021474113478517
-0.838943182597301 -17.582880744901782 5.326989061094663
-0.780438039247949 -19.46825524536131 5.620822704166974
-0.7250391551380654 -21.31328651795283 5.906906520995907
-0.6716005320170477 -23.118026996292475 6.184943145767494
-0.6190912009117757 -24.882602921885706 6.454216627327012
-0.5668551203523576 -26.607627209862642 6.711250951239998
-0.5160737545272154 -28.29273822429115 6.9580970567937355
-0.46824322159258064 -29.937067558178917 7.199679924775689
-0.4244759216876314 -31.540491037653513 7.436703780211046
-0.3845740908079094 -33.103210675151644 7.668022953640212
-0.34771109645469384 -34.62535700966762 7.892897121638076
-0.3130568676883623 -36.10690847099901 8.11144861490138
-0.28047282351476527 -37.547857852461696 8.323718304566817
-0.25028172479700606 -38.94820469104758 8.529708816483808
-0.22269967179244904 -40.30794565215512 8.729439062117448
-0.19756508903558764 -41.62707238284247 8.922956413354896
-0.17527331282135344 -42.90558296751831 9.1102717340545
-0.15618952887338375 -44.143474014878144 9.291404257259728
-0.13996799493970205 -45.34073563277092 9.466410084146975
-0.12575834684109707 -46.49735583680006 9.635357181606755
-0.11252036551224441 -47.61332404324971 9.798305572874325
-0.10008619772204906 -48.688638544194326 9.95526494407675
-0.0884564051429673 -49.72329856927286 10.106239664148655
-0.07764813403823374 -50.71730322000603 10.251234828619303
-0.06766754153321136 -51.67065149755767 10.390256102169966
-0.05846867713071129 -52.583342175287015 10.523310441426188
-0.05000632361003568 -53.45537413432617 10.650404191803132
-0.0422455662862189 -54.2867463886175 10.771542945511516
-0.03513713503927796 -55.0775111086253 10.886430829145652
-0.028610254341892315 -55.827836723371526 10.994112634255508
-0.02259956362415257 -56.5382446613802 11.091631192732468
-0.017476911002663225 -57.20900487973235 11.177455501890874
-0.013355710955940858 -57.83962914681312 11.254354460811808
-0.010110762084772787 -58.430131058884314 11.322250961262851
-0.007505342360435571 -58.983030948350574 11.366851487898225
-0.005475063785670375 -59.49835102684577 11.388030072282536
-0.003985447751437076 -59.97419334006415 11.396550548164411
-0.0029419419370193198 -60.40930990532304 11.399490577043352
-0.00222865752783443 -60.803501419303515 11.397980464208697
-0.0017402354220029323 -61.157280403392114 11.389113556438607
-0.0014049497009942318 -61.47047478702691 11.37386571438265
-0.0011720086804816246 -61.742589771282844 11.355043082189027
-0.0010052173229800666 -61.97319702934064 11.335074821960653
-0.6209246712649916 -2.434806306053675 1.269035436235937
-0.6503643852126241 -4.610193028794624 1.692235343086063
-0.6916665849409614 -6.7424010808540835 2.1237660189714704
-0.7392485943984627 -8.833458339767521 2.552126798892848
-0.7761138204794831 -10.884646778160281 2.9700472548068184
-0.765770157729804 -12.897940006564486 3.3663344851835775
-0.7126976399239822 -14.875175877888166 3.730565508238632
-0.6548892921938138 -16.815839841552293 4.065658485316158
-0.6072679581919687 -18.71748583765996 4.385485711439143
-0.5645539478947554 -20.579009824432283 4.696308518676304
-0.5237398826831674 -22.400158928272194 4.999561024461283
-0.4840093998483088 -24.180982646136172 5.294962517604736
-0.44472987047405005 -25.921677282414382 5.581399700587597
-0.40609832807983987 -27.622312811497864 5.858475728918122
-0.3691188660449235 -29.282580210074872 6.127943160886027
-0.33476967873007946 -30.902227309657956 6.391232115049766
-0.3033937546858278 -32.481273431512896 6.648233015065869
-0.27460694522347623 -34.01979958395685 6.898486439938
-0.24778798655364606 -35.51782832418034 7.141864461481775
-0.22257363420117282 -36.9753488500581 7.378428341593735
-0.19903295561691423 -38.39235827495488 7.608194451195898
-0.17736802372104568 -39.76885516455854 7.831170924676641
-0.15759928531051376 -41.10483512612391 8.047382674531715
-0.1398144006963529 -42.400294299326816 8.256851593747552
-0.12429856563552642 -43.655230684749185 8.459589021587414
-0.11105907142990716 -44.86963929205522 8.655623259652046
-0.09964737816779967 -46.0435119087917 8.84500088307805
-0.08935451713250306 -47.176840069908515 9.02776989955028
-0.07972746121286005 -48.2696192528877 9.203955957542618
-0.07070347607438114 -49.32184862651584 9.373563771100608
-0.062289202192950394 -50.33352756140265 9.53659690967389
-0.054493378339291916 -51.30465531240027 9.693059599205915
-0.047301081998971 -52.235231012649514 9.842956755899657
-0.040678125277780114 -53.12525375162837 9.986293543581716
-0.03459445871109547 -53.9747227103828 10.123074606771548
-0.029018512997061326 -54.7836480360001 10.253242398477223
-0.023905271017938854 -55.55207477274001 10.376541460007493
-0.01920368173726683 -56.28018912792511 10.491915757159282
-0.015028677985055923 -56.96822115803295 10.59806057481372
-0.01156223323447653 -57.61607922458798 10.695495620591291
-0.008799927390267616 -58.22359162046501 10.785194693989418
-0.006606039166953134 -58.79144384539078 10.863270132870339
-0.00486765230478973 -59.3203372148101 10.925744579702148
-0.003547691826415294 -59.809768777869884 10.975470410514298
-0.0025977711331711486 -60.25888623799026 11.017281239404928
-0.001938974799320156 -60.66731347332454 11.053310159365202
-0.0014883348561890108 -61.035170071648885 11.082878954414264
-0.0011794444211239365 -61.36258033976315 11.105282645658109
-0.0009663593930534462 -61.64937843999281 11.121461745285226
-0.0008164597512981341 -61.89532245051345 11.13278826014032

CELLS 100 350
4 0 51 52 1
4 1 52 53 2
4 2 53 54 3
4 3 54 55 4
4 4 55 56 5
4 5 56 57 6
4 6 57 58 7
4 7 58 59 8
4 8 59 60 9
4 9 60 61 10
4 10 61 62 11
4 11 62 63 12
4 12 63 64 13
4 13 64 65 14
4 14 65 66 15
4 15 66 67 16
4 16 67 68 17
4 17 68 69 18
4 18 69 70 19
4 19 70 71 20
4 20 71 72 21
4 21 72 73 22
4 22 73 74 23
4 23 74 75 24
4 24 75 76 25
4 25 76 77 26
4 26 77 78 27
4 27 78 79 28
4 28 79 80 29
4 29 80 81 30
4 30 81 82 31
4 31 82 83 32
4 32 83 84 33
4 33 84 85 34
4 34 85 86 35
4 35 86 87 36
4 36 87 88 37
4 37 88 89 38
4 38 89 90 39
4 39 90 91 40
4 40 91 92 41
4 41 92 93 42
4 42 93 94 43
4 43 94 95 44
4 44 95 96 45
4 45 96 97 46
4 46 97 98 47
4 47 98 99 48
4 48 99 100 49
4 49 100 101 50
1 102
1 103
1 104
1 105
1 106
1 107
1 108
1 109
1 110
1 111
1 112
1 113
1 114
1 115
1 116
1 117
1 118
1 119
1 120
1 121
1 122
1 123
1 124
1 125
1 126
1 127
1 128
1 129
1 130
1 131
1 132
1 133
1 134
1 135
1 136
1 137
1 138
1 139
1 140
1 141
1 142
1 143
1 144
1 145
1 146
1 147
1 148
1 149
1 150
1 151

CELL_TYPES 100
9
9
9
9
9
9
9
9
9
9
9
9
9
9
9
9
9
9
9
9
9
9
9
9
9
9
9
9
9
9
9
9
9
9
9
9
9
9
9
9
9
9
9
9
9
9
9
9
9
9
1
1
1
1
1
1
1
1
1
1
1
1
1
1
1
1
1
1
1
1
1
1
1
1
1
1
1
1
1
1
1
1
1
1
1
1
1
1
1
1
1
1
1
1
1
1
1
1
1
1

CELL_DATA 100

VECTORS S float
-8.536098033690189e-18 -1.6776185615654257e-15 5.839235547617149e-16
-0.0 -0.0 0.0
-0.0 -0.0 0.0
1.1444043594156e-19 -8.38897409580287e-16 2.917396584694693e-16
0.0 -0.0 0.0
0.0 -0.0 0.0
3.7911484530073316e-17 -1.3420606550469924e-14 4.672715941869731e-15
3.5006068914379606e-17 -1.3416475769551846e-14 4.684585812720955e-15
-3.6057660541026296e-17 1.3414711846170234e-14 -4.6896266019711286e-15
4.0291698065118986e-17 -1.3413653660138775e-14 4.692618011461383e-15
0.0 -0.0 0.0
-8.629255898445808e-17 2.6822817129659883e-14 -9.398010521881982e-15
0.0 -0.0 0.0
8.15392943757439e-17 -2.6818330882891684e-14 9.410847302210734e-15
1.499852646343204e-16 -5.363207328697736e-14 1.8834874226974455e-14
7.1038852503443e-17 -2.6814146119839107e-14 9.422849266101437e-15
0.0 -0.0 0.0
0.0 -0.0 0.0
5.806853828220864e-17 -2.6809631395966407e-14 9.435775506209871e-15
2.770762733887574e-17 -1.3403989407287812e-14 4.720242789654192e-15
-2.667944458334086e-17 1.3403229740403104e-14 -4.722405369066647e-15
-2.461322732903627e-17 1.3402443439782355e-14 -4.7246476872941925e-15
4.7574222918007736e-17 -2.680354924529094e-14 9.453097455061669e-15
0.0 -0.0 0.0
-4.463742019399604e-17 2.6801069183870574e-14 -9.460140857747166e-15
4.1606149084490936e-17 -2.679980736270899e-14 9.463728715277264e-15
0.0 -0.0 0.0
0.0 -0.0 0.0
3.718971480087402e-17 -2.6796490041451218e-14 9.473135981808498e-15
0.0 -0.0 0.0
0.0 -0.0 0.0
-3.4667104269166786e-17 2.67947887670785e-14 -9.477956534287407e-15
-3.40918818316434e-17 2.6793666795351746e-14 -9.481129908907192e-15
-3.293043790474292e-17 2.679252591861032e-14 -9.48435751293517e-15
0.0 -0.0 0.0
0.0 -0.0 0.0
0.0 -0.0 0.0
0.0 -0.0 0.0
0.0 -0.0 0.0
-2.9051258307198637e-17 2.678623604402167e-14 -9.502119845837616e-15
2.874813932328111e-17 -2.6785306174476088e-14 9.504741639327982e-15
0.0 -0.0 0.0
2.72000473786847e-17 -2.67835752447441e-14 9.509622716641797e-15
0.0 -0.0 0.0
-1.3127932186045949e-17 1.3391007526049743e-14 -4.7570092317815324e-15
0.0 -0.0 0.0
1.288549568516681e-17 -1.3390351289210016e-14 4.758856800969278e-15
-1.27020841182449e-17 1.3390066265318086e-14 -4.759659210912958e-15
0.0 -0.0 0.0
0.0 -0.0 0.0
-8.536098033690189e-18 -1.6776185615654257e-15 5.839235547617149e-16
-0.0 -0.0 0.0
-0.0 -0.0 0.0
1.1444043594156e-19 -8.38897409580287e-16 2.917396584694693e-16
0.0 -0.0 0.0
0.0 -0.0 0.0
3.7911484530073316e-17 -1.3420606550469924e-14 4.672715941869731e-15
3.5006068914379606e-17 -1.3416475769551846e-14 4.684585812720955e-15
-3.6057660541026296e-17 1.3414711846170234e-14 -4.6896266019711286e-15
4.0291698065118986e-17 -1.3413653660138775e-14 4.692618011461383e-15
0.0 -0.0 0.0
-8.629255898445808e-17 2.6822817129659883e-14 -9.398010521881982e-15
0.0 -0.0 0.0
8.15392943757439e-17 -2.6818330882891684e-14 9.410847302210734e-15
1.499852646343204e-16 -5.363207328697736e-14 1.8834874226974455e-14
7.1038852503443e-17 -2.6814146119839107e-14 9.422849266101437e-15
0.0 -0.0 0.0
0.0 -0.0 0.0
5.806853828220864e-17 -2.6809631395966407e-14 9.435775506209871e-15
2.770762733887574e-17 -1.3403989407287812e-14 4.720242789654192e-15
-2.667944458334086e-17 1.3403229740403104e-14 -4.722405369066647e-15
-2.461322732903627e-17 1.3402443439782355e-14 -4.7246476872941925e-15
4.7574222918007736e-17 -2.680354924529094e-14 9.453097455061669e-15
0.0 -0.0 0.0
-4.463742019399604e-17 2.6801069183870574e-14 -9.460140857747166e-15
4.1606149084490936e-17 -2.679980736270899e-14 9.463728715277264e-15
0.0 -0.0 0.0
0.0 -0.0 0.0
3.718971480087402e-17 -2.6796490041451218e-14 9.473135981808498e-15
0.0 -0.0 0.0
0.0 -0.0 0.0
-3.4667104269166786e-17 2.67947887670785e-14 -9.477956534287407e-15
-3.40918818316434e-17 2.6793666795351746e-14 -9.481129908907192e-15
-3.293043790474292e-17 2.679252591861032e-14 -9.48435751293517e-15
0.0 -0.0 0.0
0.0 -0.0 0.0
0.0 -0.0 0.0
0.0 -0.0 0.0
0.0 -0.0 0.0
-2.9051258307198637e-17 2.678623604402167e-14 -9.502119845837616e-15
2.874813932328111e-17 -2.6785306174476088e-14 9.504741639327982e-15
0.0 -0.0 0.0
2.72000473786847e-17 -2.67835752447441e-14 9.509622716641797e-15
0.0 -0.0 0.0
-1.3127932186045949e-17 1.3391007526049743e-14 -4.7570092317815324e-15
0.0 -0.0 0.0
1.288549568516681e-17 -1.3390351289210016e-14 4.758856800969278e-15
-1.27020841182449e-17 1.3390066265318086e-14 -4.759659210912958e-15
0.0 -0.0 0.0
0.0 -0.0 0.0

SCALARS Gamma float
LOOKUP_TABLE default
-0.0
-0.0
-0.0
51.55694856814733
55.32982274893784
55.376877692145506
53.08548429985537
48.27116916183392
45.16033948962499
47.86711086304703
54.60661155232604
55.26791123316257
51.47666352477005
46.609704754428584
45.61452141055707
44.85449365594862
41.22337407832502
38.902767490578405
34.24276140756068
34.613871290703884
34.146822215112195
35.70055378200223
37.317970294534454
35.163184198256324
37.241781193786004
38.50463025172933
38.59520246509101
38.6949373751776
38.880917473346464
39.1618825780611
39.47675996304614
39.809187640147265
37.81206579865499
38.12233906085185
38.434330660195755
38.73316212803801
38.978168222501836
41.33239384952233
41.25020383454205
40.82541089141552
40.11957370589764
38.91830481214204
36.857599292259685
34.15963093771261
31.45685838465665
28.80849500666667
25.966882771909166
23.20326119542621
20.402271111065605
17.80423304827142
-0.0
-0.0
-0.0
51.55694856814733
55.32982274893784
55.376877692145506
53.08548429985537
48.27116916183392
45.16033948962499
47.86711086304703
54.60661155232604
55.26791123316257
51.47666352477005
46.609704754428584
45.61452141055707
44.85449365594862
41.22337407832502
38.902767490578405
34.24276140756068
34.613871290703884
34.146822215112195
35.70055378200223
37.317970294534454
35.163184198256324
37.241781193786004
38.50463025172933
38.59520246509101
38.6949373751776
38.880917473346464
39.1618825780611
39.47675996304614
39.809187640147265
37.81206579865499
38.12233906085185
38.434330660195755
38.73316212803801
38.978168222501836
41.33239384952233
41.25020383454205
40.82541089141552
40.11957370589764
38.91830481214204
36.857599292259685
34.15963093771261
31.45685838465665
28.80849500666667
25.966882771909166
23.20326119542621
20.402271111065605
17.80423304827142

VECTORS Ftot float
116.82537626453994 -13.604483578776057 -37.378011436028665
140.42760628611117 -30.19852213948231 -82.96975767912868
143.73751371976348 -44.80958617268285 -123.11332618455299
1287.89821169784 3.9461968421081886 10.842086716415455
1316.4319328792617 76.76241436327741 210.90300012592527
1410.7807912212377 99.67731953086584 273.8611846428189
1490.6233090063552 97.02835779965115 266.58322210130706
1477.7302770607498 94.79793196276796 260.4551774787023
1490.8587220945308 101.41493475533713 278.63524323575433
1686.8787057555783 130.5074867736569 358.56637298039743
2052.873287442164 170.8291041866499 469.3491063384847
2212.3829015650044 190.53198821418874 523.4823353022813
2186.2227542965657 192.48109473319352 528.8374614513586
2099.863122242054 177.94030819645047 488.8869787805471
2173.7784361521526 173.08377664871887 475.5437680162854
2248.7770166292366 172.68825023782546 474.4570681335579
2169.254992504759 157.02692154522535 431.42792119198197
2139.736700734685 148.75394055531183 408.69809273061713
1964.4734604868654 128.88982571755577 354.12188575642847
2063.4545510315456 131.36403856448283 360.9197296842851
2109.7353857395156 131.34875148827712 360.87772878760046
2284.4268120398992 133.37216157336542 366.43700230667736
2464.4392594835467 141.02353100919782 387.4589670595323
2392.2476166030942 134.08091573115945 368.38428835116105
2605.3997483044845 143.6587336224724 394.69912673519207
2768.6578494881824 144.27527607028244 396.3930631886854
2845.8925841209325 143.92695487478392 395.4360585693358
2921.240254159803 144.52988987271465 397.09260886154937
3001.334645703725 145.09836390171012 398.6544784197609
3087.126919716639 146.42151613618014 402.2898093064682
3173.7874831649915 148.04049829153735 406.73792622081214
3259.8364848687334 149.81640394768743 411.61718691016625
3150.132544246319 144.25432134392966 396.3354905512003
3229.072196405643 144.77797319060656 397.7742121756008
3305.883208872631 146.88322540640866 403.5583451007739
3379.750815956888 149.36077434192123 410.36535485668855
3447.7208989688133 150.35447390216365 413.09552196017665
3702.0980270976047 161.01195004418253 442.37669700875006
3738.646463085581 161.2173072259679 442.94091122862824
3741.0772840788413 159.97466739240386 439.52678634539615
3713.492878296514 159.04223649315972 436.9649535045211
3636.856978962008 153.64489022798352 422.13586651597166
3475.058478459091 144.06573700468093 395.81735933745165
3246.4621213109904 133.52939433445724 366.8689957673756
3011.311574969099 123.06459069561592 338.1171840706324
2775.3529797786323 114.02825430840119 313.29005389216354
2516.2861692892843 102.76902324329795 282.3555707803702
2260.1821356846335 91.71917253550542 251.99635547236534
1996.2166618948174 80.8602994561364 222.16184688607512
1748.7422173138239 70.48537777250581 193.65698383168973
116.82537626453994 -13.604483578776057 -37.378011436028665
140.42760628611117 -30.19852213948231 -82.96975767912868
143.73751371976348 -44.80958617268285 -123.11332618455299
1287.89821169784 3.9461968421081886 10.842086716415455
1316.4319328792617 76.76241436327741 210.90300012592527
1410.7807912212377 99.67731953086584 273.8611846428189
1490.6233090063552 97.02835779965115 266.58322210130706
1477.7302770607498 94.79793196276796 260.4551774787023
1490.8587220945308 101.41493475533713 278.63524323575433
1686.8787057555783 130.5074867736569 358.56637298039743
2052.873287442164 170.8291041866499 469.3491063384847
2212.3829015650044 190.53198821418874 523.4823353022813
2186.2227542965657 192.48109473319352 528.8374614513586
2099.863122242054 177.94030819645047 488.8869787805471
2173.7784361521526 173.08377664871887 475.5437680162854
2248.7770166292366 172.68825023782546 474.4570681335579
2169.254992504759 157.02692154522535 431.42792119198197
2139.736700734685 148.75394055531183 408.69809273061713
1964.4734604868654 128.88982571755577 354.12188575642847
2063.4545510315456 131.36403856448283 360.9197296842851
2109.7353857395156 131.34875148827712 360.87772878760046
2284.4268120398992 133.37216157336542 366.43700230667736
2464.4392594835467 141.02353100919782 387.4589670595323
2392.2476166030942 134.08091573115945 368.38428835116105
2605.3997483044845 143.6587336224724 394.69912673519207
2768.6578494881824 144.27527607028244 396.3930631886854
2845.8925841209325 143.92695487478392 395.4360585693358
2921.240254159803 144.52988987271465 397.09260886154937
3001.334645703725 145.09836390171012 398.6544784197609
3087.126919716639 146.42151613618014 402.2898093064682
3173.7874831649915 148.04049829153735 406.73792622081214
3259.8364848687334 149.81640394768743 411.61718691016625
3150.132544246319 144.25432134392966 396.3354905512003
3229.072196405643 144.77797319060656 397.7742121756008
3305.883208872631 146.88322540640866 403.5583451007739
3379.750815956888 149.36077434192123 410.36535485668855
3447.7208989688133 150.35447390216365 413.09552196017665
3702.0980270976047 161.01195004418253 442.37669700875006
3738.646463085581 161.2173072259679 442.94091122862824
3741.0772840788413 159.97466739240386 439.52678634539615
3713.492878296514 159.04223649315972 436.9649535045211
3636.856978962008 153.64489022798352 422.13586651597166
3475.058478459091 144.06573700468093 395.81735933745165
3246.4621213109904 133.52939433445724 366.8689957673756
3011.311574969099 123.06459069561592 338.1171840706324
2775.3529797786323 114.02825430840119 313.29005389216354
2516.2861692892843 102.76902324329795 282.3555707803702
2260.1821356846335 91.71917253550542 251.99635547236534
1996.2166618948174 80.8602994561364 222.16184688607512
1748.7422173138239 70.48537777250581 193.65698383168973

VECTORS D float
92.5450423320342 9.94111887353524 29.913811416594356
60.84907898382519 12.462582078081724 36.178547254792534
13.282324469898812 3.966711646083457 11.439839665350583
539.332384247433 210.67668449562083 605.5892585054839
525.3413735071155 252.34175224862352 723.8418477511873
481.92441443782656 273.76995386836967 784.021946088617
416.9248593099424 272.5754110277984 779.4869518486802
350.4274844332559 258.66357055435236 738.1840308588786
312.2323681379338 255.75339714432835 729.183802435944
326.02597223756277 292.6657418014092 833.7735458374666
365.3864939330611 355.8228990794715 1013.0266589243057
361.706436144563 378.91970304601773 1078.1517326523735
329.95021760253843 369.2213755581926 1050.000364273487
286.7504617620988 340.7159259757618 968.4623197991743
267.23729623983644 335.4344881795286 953.0175343948091
253.33800822413033 334.4307938820461 949.7636097101596
222.63947796330132 307.9095455390689 874.0966567272727
202.42174295690313 292.5240448386488 830.3338630569219
170.93944403718214 257.0577357939785 729.3196977756933
167.91324496568487 262.0450811080355 743.1391074788756
161.68332464010882 261.2052233750884 740.4446936923865
162.18957921657463 270.6295206645402 766.8518532295486
165.9412526480502 285.38155622220745 808.342885078728
153.1412408618796 270.91303287959187 767.0786433559405
159.30416664110996 289.3563537723444 819.0098694857289
159.0934706708882 296.19486193734394 838.0783318822697
155.9556216952267 297.1265665297457 840.433779671691
153.56526648358826 298.94163694317143 845.291448666957
151.58384702449314 301.07592491469376 851.0529859531181
150.4227314152085 304.209356821549 860.0878464179863
149.59500490373892 307.8440955216846 870.1286124005517
149.15017353719395 311.80399719421695 880.9442844274193
140.7699673756679 298.738281561298 843.7280091016289
140.01587131524576 301.32490474196777 850.7317997304057
140.06292062504767 305.3791397656294 861.8757747517011
140.33817482416728 309.7116474219086 873.801145321971
139.97267918025167 312.40724662718395 881.1068002109595
147.84528204615435 333.4519954693043 940.1482276518267
146.634579470322 333.9498501411367 941.2470236514491
144.26853550932174 331.5303780105581 934.1346902241066
141.59447525624986 328.10101315832634 924.1929816958791
136.2790468600809 318.21159650307675 896.0774676157428
127.82696841955983 300.50592788165164 846.0005692164427
117.88039165911214 278.91481054570613 785.0128459183203
108.10022898799652 257.2763868142692 723.9361396697557
99.11568602334656 237.14257658859083 667.134118110894
89.00815140830782 213.96711254320667 601.8142606344513
79.2348080057222 191.26891839881 537.8740223227759
69.5574802657867 168.51876468558106 473.82109668459634
60.5245114422518 147.08884558211994 413.5093929108837
92.5450423320342 9.94111887353524 29.913811416594356
60.84907898382519 12.462582078081724 36.178547254792534
13.282324469898812 3.966711646083457 11.439839665350583
539.332384247433 210.67668449562083 605.5892585054839
525.3413735071155 252.34175224862352 723.8418477511873
481.92441443782656 273.76995386836967 784.021946088617
416.9248593099424 272.5754110277984 779.4869518486802
350.4274844332559 258.66357055435236 738.1840308588786
312.2323681379338 255.75339714432835 729.183802435944
326.02597223756277 292.6657418014092 833.7735458374666
365.3864939330611 355.8228990794715 1013.0266589243057
361.706436144563 378.91970304601773 1078.1517326523735
329.95021760253843 369.2213755581926 1050.000364273487
286.7504617620988 340.7159259757618 968.4623197991743
267.23729623983644 335.4344881795286 953.0175343948091
253.33800822413033 334.4307938820461 949.7636097101596
222.63947796330132 307.9095455390689 874.0966567272727
202.42174295690313 292.5240448386488 830.3338630569219
170.93944403718214 257.0577357939785 729.3196977756933
167.91324496568487 262.0450811080355 743.1391074788756
161.68332464010882 261.2052233750884 740.4446936923865
162.18957921657463 270.6295206645402 766.8518532295486
165.9412526480502 285.38155622220745 808.342885078728
153.1412408618796 270.91303287959187 767.0786433559405
159.30416664110996 289.3563537723444 819.0098694857289
159.0934706708882 296.19486193734394 838.0783318822697
155.9556216952267 297.1265665297457 840.433779671691
153.56526648358826 298.94163694317143 845.291448666957
151.58384702449314 301.07592491469376 851.0529859531181
150.4227314152085 304.209356821549 860.0878464179863
149.59500490373892 307.8440955216846 870.1286124005517
149.15017353719395 311.80399719421695 880.9442844274193
140.7699673756679 298.738281561298 843.7280091016289
140.01587131524576 301.32490474196777 850.7317997304057
140.06292062504767 305.3791397656294 861.8757747517011
140.33817482416728 309.7116474219086 873.801145321971
139.97267918025167 312.40724662718395 881.1068002109595
147.84528204615435 333.4519954693043 940.1482276518267
146.634579470322 333.9498501411367 941.2470236514491
144.26853550932174 331.5303780105581 934.1346902241066
141.59447525624986 328.10101315832634 924.1929816958791
136.2790468600809 318.21159650307675 896.0774676157428
127.82696841955983 300.50592788165164 846.0005692164427
117.88039165911214 278.91481054570613 785.0128459183203
108.10022898799652 257.2763868142692 723.9361396697557
99.11568602334656 237.14257658859083 667.134118110894
89.00815140830782 213.96711254320667 601.8142606344513
79.2348080057222 191.26891839881 537.8740223227759
69.5574802657867 168.51876468558106 473.82109668459634
60.5245114422518 147.08884558211994 413.5093929108837

VECTORS L float
24.280333932505734 -23.545602452311304 -67.29182285262304
79.57852730228599 -42.66110421756403 -119.14830493392122
130.4551892498647 -48.77629781876631 -134.55316584990362
748.5658274504074 -206.73048765351265 -594.7471717890686
791.0905593721465 -175.57933788534612 -512.938847625262
928.8563767834114 -174.09263433750382 -510.1607614457983
1073.698449696413 -175.54705322814732 -512.9037297473732
1127.302792627494 -163.86563859158443 -477.7288533801762
1178.626353956597 -154.33846238899113 -450.54855920018963
1360.8527335180154 -162.15825502775235 -475.2071728570694
1687.4867935091029 -184.99379489282157 -543.6775525858209
1850.6764654204414 -188.38771483182904 -554.6693973500924
1856.2725366940274 -176.74028082499908 -521.1629028221286
1813.1126604799556 -162.77561777931137 -479.5753410186273
1906.541139912316 -162.35071153080975 -477.4737663785236
1995.4390084051063 -161.7425436442206 -475.3065415766016
1946.615514541457 -150.88262399384348 -442.6687355352905
1937.3149577777822 -143.77010428333702 -421.63577032630485
1793.5340164496836 -128.16791007642283 -375.197812019265
1895.5413060658607 -130.68104254355273 -382.2193777945905
1948.0520610994076 -129.8564718868113 -379.56696490478606
2122.237232823325 -137.25735909117492 -400.41485092287144
2298.4980068354967 -144.35802521300968 -420.88391801919573
2239.106375741215 -136.8321171484326 -398.69435500477977
2446.0955816633746 -145.69762014987205 -424.310742750537
2609.5643788172943 -151.91958586706153 -441.685268693584
2689.9369624257056 -153.19961165496173 -444.9977211023553
2767.674987676215 -154.4117470704569 -448.1988398054078
2849.7507986792316 -155.97756101298359 -452.39850753335713
2936.7041883014313 -157.78784068536888 -457.798037111518
3024.192478261253 -159.80359723014723 -463.3906861797395
3110.6863113315394 -161.9875932465295 -469.327097517253
3009.362576870651 -154.48396021736835 -447.3925185504288
3089.056325090398 -156.5469315513612 -452.9575875548047
3165.8202882475844 -158.4959143592208 -458.31742965092724
3239.4126411327215 -160.3508730799875 -463.43579046528265
3307.7482197885615 -162.0527727250204 -468.01127825078305
3554.2527450514513 -172.44004542512178 -497.77153064307697
3592.0118836152606 -172.73254291516878 -498.30611242282106
3596.8087485695196 -171.55571061815428 -494.60790387871066
3571.898403040264 -169.0587766651666 -487.22802819135774
3500.5779321019268 -164.5667062750932 -473.9416010997711
3347.231510039531 -156.4401908769708 -450.1832098789914
3128.5817296518785 -145.38541621124895 -418.1438501509448
2903.211345981103 -134.21179611865333 -385.81895559912346
2676.237293755286 -123.11432228018968 -353.8440642187306
2427.2780178809767 -111.19808929990866 -319.45868985408094
2180.947327678911 -99.54974586330457 -285.8776668504105
1926.659181629031 -87.65846522944464 -251.65924979852122
1688.2177058715724 -76.60346780961414 -219.85240907919416
24.280333932505734 -23.545602452311304 -67.29182285262304
79.57852730228599 -42.66110421756403 -119.14830493392122
130.4551892498647 -48.77629781876631 -134.55316584990362
748.5658274504074 -206.73048765351265 -594.7471717890686
791.0905593721465 -175.57933788534612 -512.938847625262
928.8563767834114 -174.09263433750382 -510.1607614457983
1073.698449696413 -175.54705322814732 -512.9037297473732
1127.302792627494 -163.86563859158443 -477.7288533801762
1178.626353956597 -154.33846238899113 -450.54855920018963