# vtk DataFile Version 4.0
[MyVLM domain - lattices] 
ASCII
DATASET UNSTRUCTURED_GRID
POINTS 152 float
0.0 1.4999999999999938 1.7708707379400834
0.0 3.736363636363621 1.8250854161503676
0.0 5.931651205936895 1.9422959226345942
0.0 8.085862708719818 2.0669177328626
0.0 10.198998144712387 2.198453178611753
0.0 12.271057513914604 2.3006338360206056
0.0 14.30204081632647 2.342497697209213
0.0 16.291948051947983 2.316199461221102
0.0 18.240779220779142 2.2701442065185913
0.0 20.148534322819952 2.223914587662477
0.0 22.015213358070408 2.177327645875673
0.0 23.84081632653051 2.1299869354698666
0.0 25.62534322820026 2.0814823879797957
0.0 27.36879406307966 2.0284979470470845
0.0 29.071168831168706 1.9732322230065589
0.0 30.7324675324674 1.9205004555721368
0.0 32.35269016697574 1.8710180976485589
0.0 33.93183673469373 1.8236150669334783
0.0 35.46990723562137 1.777448250080291
0.0 36.966901669758656 1.732517395111288
0.0 38.42282003710559 1.6888222567781357
0.0 39.83766233766217 1.6463625965618771
0.0 41.2114285714284 1.605138182672928
0.0 42.54411873840427 1.5651487900510792
0.0 43.83573283858979 1.5263942003654987
0.0 45.08627087198496 1.4888742020147279
0.0 46.29573283858978 1.4525885901266828
0.0 47.464118738404245 1.4175371665586558
0.0 48.59142857142836 1.3837200369464515
0.0 49.67766233766213 1.3511410967356012
0.0 50.722820037105535 1.3198009719932082
0.0 51.72690166975859 1.289698871944452
0.0 52.6899072356213 1.2608340368929984
0.0 53.61183673469365 1.2332057382210013
0.0 54.49269016697565 1.2068132783890995
0.0 55.332467532467284 1.1816559909364186
0.0 56.13116883116858 1.1573177425492382
0.0 56.88879406307952 1.1324787175380853
0.0 57.60534322820012 1.105119139635254
0.0 58.280816326530356 1.0741853005399233
0.0 58.91521335807025 1.0402800877949931
0.0 59.50853432281979 1.0030899866470495
0.0 60.06077922077897 0.9507326557590929
0.0 60.571948051947786 0.8834743712479546
0.0 61.04204081632626 0.8102837433756975
0.0 61.4710575139144 0.7372769059978865
0.0 61.85899814471216 0.6660134938687139
0.0 62.20586270871958 0.5950320477906338
0.0 62.51165120593664 0.5256391271197864
0.0 62.776363636363364 0.4604090486138683
0.0 62.99999999999973 0.4015703252870079
-0.8152906147965383 1.4999999999999938 -1.6759076874023684
-0.840508508576773 3.736363636363621 -1.7279610531190108
-0.8937965186568912 5.931651205936895 -1.837099040207856
-0.9506477078523391 8.085862708719818 -1.9544937256968615
-1.020681877210228 10.198998144712387 -2.079137418187979
-1.048954977401727 12.271057513914604 -2.1800955487444442
-0.9930987765444168 14.30204081632647 -2.235584355515676
-0.9074282632528687 16.291948051947983 -2.226228435862319
-0.838943182597301 18.240779220779142 -2.192824928090084
-0.780438039247949 20.148534322819952 -2.154802731659018
-0.7250391551380654 22.015213358070408 -2.1161539742594595
-0.6716005320170477 23.84081632653051 -2.0765767027304367
-0.6190912009117757 25.62534322820026 -2.0353439212166373
-0.5668551203523576 27.36879406307966 -1.9889259921580038
-0.5160737545272154 29.071168831168706 -1.939405493886209
-0.46824322159258064 30.7324675324674 -1.8917833829558721
-0.4244759216876314 32.35269016697574 -1.8467747481983228
-0.3845740908079094 33.93183673469373 -1.803216246355861
-0.34771109645469384 35.46990723562137 -1.7603561333212299
-0.3130568676883623 36.966901669758656 -1.7183186269393511
-0.28047282351476527 38.42282003710559 -1.6771452288500805
-0.25028172479700606 39.83766233766217 -1.6368386054107993
-0.22269967179244904 41.2114285714284 -1.5974179598264335
-0.19756508903558764 42.54411873840427 -1.558931394771861
-0.17527331282135344 43.83573283858979 -1.5213899416979575
-0.15618952887338375 45.08627087198496 -1.4848131303488856
-0.13996799493970205 46.29573283858978 -1.449257927352116
-0.12575834684109707 47.464118738404245 -1.4147933480970012
-0.11252036551224441 48.59142857142836 -1.3814803417739538
-0.10008619772204906 49.67766233766213 -1.3493287439341646
-0.0884564051429673 50.722820037105535 -1.318342990910114
-0.07764813403823374 51.72690166975859 -1.2885282568378218
-0.06766754153321136 52.6899072356213 -1.2598902937853937
-0.05846867713071129 53.61183673469365 -1.2324361656955396
-0.05000632361003568 54.49269016697565 -1.206172315871678
-0.0422455662862189 55.332467532467284 -1.181104422793393
-0.03513713503927796 56.13116883116858 -1.1569320487307995
-0.028610254341892315 56.88879406307952 -1.1326852496038318
-0.02259956362415257 57.60534322820012 -1.1053612382191875
-0.017476911002663225 58.280816326530356 -1.073405393706979
-0.013355710955940858 58.91521335807025 -1.0396293298797605
-0.010110762084772787 59.50853432281979 -1.0039547489863438
-0.007505342360435571 60.06077922077897 -0.951867635167224
-0.005475063785670375 60.571948051947786 -0.8832400767208455
-0.003985447751437076 61.04204081632626 -0.809001956881479
-0.0029419419370193198 61.4710575139144 -0.736340121485638
-0.00222865752783443 61.85899814471216 -0.6664023126036678
-0.0017402354220029323 62.20586270871958 -0.5962370372025964
-0.0014049497009942318 62.51165120593664 -0.5268352101554807
-0.0011720086804816246 62.776363636363364 -0.46104626490719725
-0.0010052173229800666 62.99999999999973 -0.401336837301625
-0.6209246712649916 2.618181818181807 -0.826956258434211
-0.6503643852126241 4.8340074211502575 -0.865974867649455
-0.6916665849409614 7.008756957328356 -0.9206955802771194
-0.7392485943984627 9.142430426716102 -0.9794403150225217
-0.7761138204794831 11.235027829313495 -1.0348264857706144
-0.765770157729804 13.286549165120539 -1.075488522443818
-0.7126976399239822 15.296994434137225 -1.0908426519629593
-0.6548892921938138 17.26636363636356 -1.0838520530146891
-0.6072679581919687 19.194656771799547 -1.0686030231332795
-0.5645539478947554 21.08187384044518 -1.05145348552716
-0.5237398826831674 22.92801484230046 -1.0338596812030194
-0.4840093998483088 24.733079777365386 -1.015536568548945
-0.44472987047405005 26.49706864563996 -0.9953536756371304
-0.40609832807983987 28.21998144712418 -0.9729080360098749
-0.3691188660449235 29.90181818181805 -0.9499792439934438
-0.33476967873007946 31.542578849721576 -0.9280194800302363
-0.3033937546858278 33.14226345083473 -0.9069174773850638
-0.27460694522347623 34.70087198515755 -0.8862067277521878
-0.24778798655364606 36.21840445269001 -0.8657573294487706
-0.22257363420117282 37.694860853432125 -0.8456314894348587
-0.19903295561691423 39.13024118738388 -0.8258458311803285
-0.17736802372104568 40.52454545454528 -0.8064086145596117
-0.15759928531051376 41.87777365491633 -0.7873451363838597
-0.1398144006963529 43.18992578849703 -0.7686776273741099
-0.12429856563552642 44.46100185528738 -0.7504176017200381
-0.11105907142990716 45.69100185528737 -0.732593797620199
-0.09964737816779967 46.879925788497005 -0.7152535087077512
-0.08935451713250306 48.027773654916295 -0.6984454832634696
-0.07972746121286005 49.13454545454524 -0.6821957654302879
-0.07070347607438114 50.200241187383824 -0.6665091419755033
-0.062289202192950394 51.22486085343206 -0.6513892374132682
-0.054493378339291916 52.20840445268995 -0.6368403428790246
-0.047301081998971 53.150871985157465 -0.6228674504161
-0.040678125277780114 54.052263450834644 -0.6094758035114437
-0.03459445871109547 54.91257884972146 -0.5966701183337116
-0.029018512997061326 55.73181818181794 -0.5843919601358651
-0.023905271017938854 56.509981447124055 -0.5723819293645714
-0.01920368173726683 57.24706864563982 -0.5595677007869646
-0.015028677985055923 57.94307977736524 -0.5446244319504151
-0.01156223323447653 58.5980148423003 -0.5280798478031627
-0.008799927390267616 59.211873840445016 -0.5109227702695337
-0.006606039166953134 59.784656771799376 -0.48920556375682017
-0.00486765230478973 60.316363636363384 -0.4588895135821452
-0.003547691826415294 60.80699443413703 -0.42287099827291513
-0.0025977711331711486 61.25654916512034 -0.3860581982159708
-0.001938974799320156 61.66502782931328 -0.35061711280016467
-0.0014883348561890108 62.03243042671586 -0.31585906346993065
-0.0011794444211239365 62.35875695732812 -0.2810681958954763
-0.0009663593930534462 62.64400742115 -0.24719953118179744
-0.0008164597512981341 62.88818181818155 -0.21564624159069884

CELLS 100 350
4 0 51 52 1
4 1 52 53 2
4 2 53 54 3
4 3 54 55 4
4 4 55 56 5
4 5 56 57 6
4 6 57 58 7
4 7 58 59 8
4 8 59 60 9
4 9 60 61 10
4 10 61 62 11
4 11 62 63 12
4 12 63 64 13
4 13 64 65 14
4 14 65 66 15
4 15 66 67 16
4 16 67 68 17
4 17 68 69 18
4 18 69 70 19
4 19 70 71 20
4 20 71 72 21
4 21 72 73 22
4 22 73 74 23
4 23 74 75 24
4 24 75 76 25
4 25 76 77 26
4 26 77 78 27
4 27 78 79 28
4 28 79 80 29
4 29 80 81 30
4 30 81 82 31
4 31 82 83 32
4 32 83 84 33
4 33 84 85 34
4 34 85 86 35
4 35 86 87 36
4 36 87 88 37
4 37 88 89 38
4 38 89 90 39
4 39 90 91 40
4 40 91 92 41
4 41 92 93 42
4 42 93 94 43
4 43 94 95 44
4 44 95 96 45
4 45 96 97 46
4 46 97 98 47
4 47 98 99 48
4 48 99 100 49
4 49 100 101 50
1 102
1 103
1 104
1 105
1 106
1 107
1 108
1 109
1 110
1 111
1 112
1 113
1 114
1 115
1 116
1 117
1 118
1 119
1 120
1 121
1 122
1 123
1 124
1 125
1 126
1 127
1 128
1 129
1 130
1 131
1 132
1 133
1 134
1 135
1 136
1 137
1 138
1 139
1 140
1 141
1 142
1 143
1 144
1 145
1 146
1 147
1 148
1 149
1 150
1 151

CELL_TYPES 100
9
9
9
9
9
9
9
9
9
9
9
9
9
9
9
9
9
9
9
9
9
9
9
9
9
9
9
9
9
9
9
9
9
9
9
9
9
9
9
9
9
9
9
9
9
9
9
9
9
9
1
1
1
1
1
1
1
1
1
1
1
1
1
1
1
1
1
1
1
1
1
1
1
1
1
1
1
1
1
1
1
1
1
1
1
1
1
1
1
1
1
1
1
1
1
1
1
1
1
1

CELL_DATA 100

VECTORS S float
2.4319392111093298e-18 -8.758186620347635e-16 1.4763692669627817e-16
-9.246618848886629e-18 1.7516828546909949e-15 -2.9489879197025923e-16
2.6675660308868597e-17 -3.50329052573196e-15 5.899308306911555e-16
1.060042003837831e-17 3.509246119284028e-15 -5.539438499714472e-16
-1.0166648408217763e-16 -1.4041953857204887e-14 2.1821062152705128e-15
2.327390127741709e-16 2.8083629201195467e-14 -4.364535529470482e-15
-2.395497052037253e-16 -2.8082029721145384e-14 4.374447350895938e-15
-2.194261285682219e-16 -2.8079747828106783e-14 4.390123122459138e-15
-1.9512135952730698e-16 -2.807761297544197e-14 4.404900021869409e-15
1.7489318203141552e-16 2.8076375069261386e-14 -4.413631417705014e-15
0.0 0.0 -0.0
1.464851836532085e-16 2.8075720619831467e-14 -4.418825716687222e-15
-4.0831852847249453e-16 -8.422643077773366e-14 1.3262116608588262e-14
0.0 0.0 -0.0
0.0 0.0 -0.0
-1.1702237223750751e-16 -2.8077963786366302e-14 4.4054310030023534e-15
1.1195086034402265e-16 2.8079074735820588e-14 -4.398476546645018e-15
1.0751224957599319e-16 2.807954218684721e-14 -4.3956021930533306e-15
0.0 0.0 -0.0
-1.0116929873208475e-16 -2.8082074736557535e-14 4.379544520804303e-15
1.9559765414779356e-16 5.616644225951416e-14 -8.74452818919453e-15
-1.9185509213835026e-16 -5.6168618106945423e-14 8.730624225392371e-15
0.0 0.0 -0.0
9.234362041088448e-17 2.808690611294023e-14 -4.348648595249601e-15
-9.05430881176472e-17 -2.8087842200429665e-14 4.34263622921294e-15
0.0 0.0 -0.0
0.0 0.0 -0.0
-8.671540242944095e-17 -2.809054758302985e-14 4.325180212526774e-15
-8.573689930617808e-17 -2.8091411389112456e-14 4.319585894279233e-15
0.0 0.0 -0.0
8.562835212921913e-17 2.8093639843327495e-14 -4.305070857143845e-15
-8.604415049305466e-17 -2.809499499035248e-14 4.296209939301285e-15
0.0 0.0 -0.0
-8.513085046645706e-17 -2.8095801621555413e-14 4.2909498863094366e-15
0.0 0.0 -0.0
-8.36619704222158e-17 -2.8095945457632423e-14 4.290036883613611e-15
0.0 0.0 -0.0
0.0 0.0 -0.0
8.270378312804492e-17 2.809503403430009e-14 -4.2960202096931235e-15
-8.232176000968836e-17 -2.8094478190216353e-14 4.299661067293877e-15
1.6333072266212995e-16 5.6187934477157505e-14 -8.606021731959162e-15
-4.075850013400394e-17 -1.4046595606486863e-14 2.154038613644098e-15
4.0187765244746655e-17 1.4046180614140667e-14 -2.1567537724651405e-15
3.958946092733152e-17 1.4045756814655667e-14 -2.159523075754553e-15
0.0 0.0 -0.0
0.0 0.0 -0.0
3.6233334095844475e-17 1.4044494216310396e-14 -2.1677779153093915e-15
0.0 0.0 -0.0
0.0 0.0 -0.0
-2.9585923362097898e-18 -1.7554098836921955e-15 2.719761163249251e-16
2.4319392111093298e-18 -8.758186620347635e-16 1.4763692669627817e-16
-9.246618848886629e-18 1.7516828546909949e-15 -2.9489879197025923e-16
2.6675660308868597e-17 -3.50329052573196e-15 5.899308306911555e-16
1.060042003837831e-17 3.509246119284028e-15 -5.539438499714472e-16
-1.0166648408217763e-16 -1.4041953857204887e-14 2.1821062152705128e-15
2.327390127741709e-16 2.8083629201195467e-14 -4.364535529470482e-15
-2.395497052037253e-16 -2.8082029721145384e-14 4.374447350895938e-15
-2.194261285682219e-16 -2.8079747828106783e-14 4.390123122459138e-15
-1.9512135952730698e-16 -2.807761297544197e-14 4.404900021869409e-15
1.7489318203141552e-16 2.8076375069261386e-14 -4.413631417705014e-15
0.0 0.0 -0.0
1.464851836532085e-16 2.8075720619831467e-14 -4.418825716687222e-15
-4.0831852847249453e-16 -8.422643077773366e-14 1.3262116608588262e-14
0.0 0.0 -0.0
0.0 0.0 -0.0
-1.1702237223750751e-16 -2.8077963786366302e-14 4.4054310030023534e-15
1.1195086034402265e-16 2.8079074735820588e-14 -4.398476546645018e-15
1.0751224957599319e-16 2.807954218684721e-14 -4.3956021930533306e-15
0.0 0.0 -0.0
-1.0116929873208475e-16 -2.8082074736557535e-14 4.379544520804303e-15
1.9559765414779356e-16 5.616644225951416e-14 -8.74452818919453e-15
-1.9185509213835026e-16 -5.6168618106945423e-14 8.730624225392371e-15
0.0 0.0 -0.0
9.234362041088448e-17 2.808690611294023e-14 -4.348648595249601e-15
-9.05430881176472e-17 -2.8087842200429665e-14 4.34263622921294e-15
0.0 0.0 -0.0
0.0 0.0 -0.0
-8.671540242944095e-17 -2.809054758302985e-14 4.325180212526774e-15
-8.573689930617808e-17 -2.8091411389112456e-14 4.319585894279233e-15
0.0 0.0 -0.0
8.562835212921913e-17 2.8093639843327495e-14 -4.305070857143845e-15
-8.604415049305466e-17 -2.809499499035248e-14 4.296209939301285e-15
0.0 0.0 -0.0
-8.513085046645706e-17 -2.8095801621555413e-14 4.2909498863094366e-15
0.0 0.0 -0.0
-8.36619704222158e-17 -2.8095945457632423e-14 4.290036883613611e-15
0.0 0.0 -0.0
0.0 0.0 -0.0
8.270378312804492e-17 2.809503403430009e-14 -4.2960202096931235e-15
-8.232176000968836e-17 -2.8094478190216353e-14 4.299661067293877e-15
1.6333072266212995e-16 5.6187934477157505e-14 -8.606021731959162e-15
-4.075850013400394e-17 -1.4046595606486863e-14 2.154038613644098e-15
4.0187765244746655e-17 1.4046180614140667e-14 -2.1567537724651405e-15
3.958946092733152e-17 1.4045756814655667e-14 -2.159523075754553e-15
0.0 0.0 -0.0
0.0 0.0 -0.0
3.6233334095844475e-17 1.4044494216310396e-14 -2.1677779153093915e-15
0.0 0.0 -0.0
0.0 0.0 -0.0
-2.9585923362097898e-18 -1.7554098836921955e-15 2.719761163249251e-16

SCALARS Gamma float
LOOKUP_TABLE default
0.0
0.0
0.0
36.14071112908692
67.3115153033152
79.62510568305409
87.25040303240513
89.6798668772355
89.30875102982499
87.29767762457591
86.01355534841866
86.64534443212234
88.90061982193687
90.56833672955761
91.12589098361862
92.45571953012183
93.69475678354351
96.03588304580697
97.04541596373426
97.54537018519207
98.72332676179593
101.59223972737901
98.76809534025313
95.47096872133444
93.95546496586935
92.82415489383706
93.08896915767923
92.90854215235544
92.41179171641346
91.37417506496044
92.14510111762891
91.4854032371484
89.15283107106808
87.2236947288386
86.17692578793367
84.12868106699626
81.08732440396932
77.94441541224353
74.0509726116873
69.47206629978733
64.39183839056959
58.62930806159078
50.73953997407792
43.225041844430145
36.56124216188001
29.557109165112454
23.151768168275495
16.981041029487944
11.257378256910876
5.563416695129986
0.0
0.0
0.0
36.14071112908692
67.3115153033152
79.62510568305409
87.25040303240513
89.6798668772355
89.30875102982499
87.29767762457591
86.01355534841866
86.64534443212234
88.90061982193687
90.56833672955761
91.12589098361862
92.45571953012183
93.69475678354351
96.03588304580697
97.04541596373426
97.54537018519207
98.72332676179593
101.59223972737901
98.76809534025313
95.47096872133444
93.95546496586935
92.82415489383706
93.08896915767923
92.90854215235544
92.41179171641346
91.37417506496044
92.14510111762891
91.4854032371484
89.15283107106808
87.2236947288386
86.17692578793367
84.12868106699626
81.08732440396932
77.94441541224353
74.0509726116873
69.47206629978733
64.39183839056959
58.62930806159078
50.73953997407792
43.225041844430145
36.56124216188001
29.557109165112454
23.151768168275495
16.981041029487944
11.257378256910876
5.563416695129986

VECTORS Ftot float
94.71546217250061 5.978560650597389 33.906102325214796
115.43510476729287 13.472194467247881 76.4046115524572
119.67534363342503 20.253055103635514 114.86078320096377
733.198598767759 -21.138845682207233 -119.8843512052062
1349.5905245779086 -82.3274485267092 -466.9021620850387
1742.3458884961467 -121.73445594829725 -690.3904068406312
2110.5130395795018 -154.45325861319307 -875.9479575537143
2419.5246451983817 -166.84051171999187 -946.1995608933053
2670.938159373737 -168.32241179096064 -954.6038338242806
2866.0373778454746 -164.59114682877313 -933.4427786800501
3071.8956041915476 -161.2560462235816 -914.5284832512313
3337.6896474554546 -162.14628809928445 -919.5772958159673
3668.558718050622 -166.19352918473155 -942.5303406034733
3979.068132749591 -169.84660059803798 -963.2479380955232
4245.03868125064 -168.60005787196437 -956.1784429957653
4541.848831100266 -171.80991353694878 -974.3824390721883
4837.480540399314 -172.7974495375488 -979.9830340386092
5191.058643025855 -177.12793831135085 -1004.5424562915313
5474.188333399068 -179.38577953055943 -1017.3473101496123
5728.1805355772385 -178.61799863886017 -1012.9930083370684
6019.3649467251025 -179.1020554886265 -1015.7382311488097
6413.793501025431 -184.90731865614939 -1048.6615146088784
6441.181357412898 -181.82301807423178 -1031.169576792413
6423.430377393942 -173.21179366138372 -982.3328963351794
6507.060543018566 -170.30337788254184 -965.8384508047443
6603.617629221477 -170.90403097787694 -969.2449237842153
6796.146767582035 -169.2648784271372 -959.9488277236248
6948.270055293672 -169.18922683354197 -959.5197862162432
7069.51082879042 -168.6555049465521 -956.4928989818256
7140.642657539128 -167.4337884861362 -949.564200631141
7345.3400198668405 -170.99133663329275 -969.7400587605248
7430.934222028321 -171.41883393368613 -972.1645164281814
7370.955629170917 -168.18392237105306 -953.8184212949494
7332.312613426204 -165.98506324904122 -941.3480715323833
7359.1993264401135 -164.16262257511286 -931.0124968710013
7289.888317893224 -161.94810918027346 -918.4533673155488
7121.93354650999 -159.0604343823891 -902.0765497333389
6933.840748353005 -154.42664519679582 -875.7970253691427
6666.644998173624 -147.77353530155153 -838.0653641763249
6323.733717235608 -140.32251443516125 -795.8085249991735
5921.791920268538 -131.0448474516958 -743.1922609073786
5442.597574443134 -121.19088844893416 -687.3076823637582
4751.884606185955 -105.2382296230578 -596.8356583900018
4081.0090705970038 -89.8335228844209 -509.4712251266277
3477.423139718277 -76.0324617140499 -431.20151781967076
2831.354669701792 -59.82265047293271 -339.27111002848807
2231.556472183891 -46.19289905186894 -261.9729485883005
1646.1382984313923 -32.96482761578026 -186.9528275442064
1097.320125313424 -20.56206814562029 -116.61328324799679
546.4533395195214 -7.591838226690889 -43.055454112510795
94.71546217250061 5.978560650597389 33.906102325214796
115.43510476729287 13.472194467247881 76.4046115524572
119.67534363342503 20.253055103635514 114.86078320096377
733.198598767759 -21.138845682207233 -119.8843512052062
1349.5905245779086 -82.3274485267092 -466.9021620850387
1742.3458884961467 -121.73445594829725 -690.3904068406312
2110.5130395795018 -154.45325861319307 -875.9479575537143
2419.5246451983817 -166.84051171999187 -946.1995608933053
2670.938159373737 -168.32241179096064 -954.6038338242806
2866.0373778454746 -164.59114682877313 -933.4427786800501
3071.8956041915476 -161.2560462235816 -914.5284832512313
3337.6896474554546 -162.14628809928445 -919.5772958159673
3668.558718050622 -166.19352918473155 -942.5303406034733
3979.068132749591 -169.84660059803798 -963.2479380955232
4245.03868125064 -168.60005787196437 -956.1784429957653
4541.848831100266 -171.80991353694878 -974.3824390721883
4837.480540399314 -172.7974495375488 -979.9830340386092
5191.058643025855 -177.12793831135085 -1004.5424562915313
5474.188333399068 -179.38577953055943 -1017.3473101496123
5728.1805355772385 -178.61799863886017 -1012.9930083370684
6019.3649467251025 -179.1020554886265 -1015.7382311488097
6413.793501025431 -184.90731865614939 -1048.6615146088784
6441.181357412898 -181.82301807423178 -1031.169576792413
6423.430377393942 -173.21179366138372 -982.3328963351794
6507.060543018566 -170.30337788254184 -965.8384508047443
6603.617629221477 -170.90403097787694 -969.2449237842153
6796.146767582035 -169.2648784271372 -959.9488277236248
6948.270055293672 -169.18922683354197 -959.5197862162432
7069.51082879042 -168.6555049465521 -956.4928989818256
7140.642657539128 -167.4337884861362 -949.564200631141
7345.3400198668405 -170.99133663329275 -969.7400587605248
7430.934222028321 -171.41883393368613 -972.1645164281814
7370.955629170917 -168.18392237105306 -953.8184212949494
7332.312613426204 -165.98506324904122 -941.3480715323833
7359.1993264401135 -164.16262257511286 -931.0124968710013
7289.888317893224 -161.94810918027346 -918.4533673155488
7121.93354650999 -159.0604343823891 -902.0765497333389
6933.840748353005 -154.42664519679582 -875.7970253691427
6666.644998173624 -147.77353530155153 -838.0653641763249
6323.733717235608 -140.32251443516125 -795.8085249991735
5921.791920268538 -131.0448474516958 -743.1922609073786
5442.597574443134 -121.19088844893416 -687.3076823637582
4751.884606185955 -105.2382296230578 -596.8356583900018
4081.0090705970038 -89.8335228844209 -509.4712251266277
3477.423139718277 -76.0324617140499 -431.20151781967076
2831.354669701792 -59.82265047293271 -339.27111002848807
2231.556472183891 -46.19289905186894 -261.9729485883005
1646.1382984313923 -32.96482761578026 -186.9528275442064
1097.320125313424 -20.56206814562029 -116.61328324799679
546.4533395195214 -7.591838226690889 -43.055454112510795

VECTORS D float
72.60477244780104 -4.191332443689911 -26.059994962641433
43.59484290762341 -4.640884619960514 -28.933529562875766
3.0809569187133024 -0.4758338934504971 -2.965044103370265
339.2420060053169 -68.27497634198346 -426.03160595818576
607.1124808938198 -150.01898398154478 -937.0930915685202
687.6892114704996 -200.8106043875917 -1255.4459479404836
723.7424472526927 -243.17531170041235 -1521.4456837327907
698.6119701830168 -264.43324135447415 -1656.4284899919771
646.842471186598 -272.083731041226 -1705.6570812981324
587.5111637001739 -271.3185814820655 -1702.6547640354374
538.7848104756645 -270.54759661090503 -1699.9724291291634
508.0136440275068 -275.20498544423793 -1731.718402849865
490.1620496985721 -284.6574828916562 -1792.741101061912
471.67682097597344 -291.94794961284106 -1842.0171449081868
446.2586593750239 -292.9352420457012 -1851.9107624065111
430.634899317308 -298.45407189870656 -1890.754548079941
414.0752755015672 -301.74655679803396 -1915.7560457373058
405.6571451451311 -309.84105799400754 -1969.3733797406796
393.2200869888923 -313.4502182808949 -1996.848757547084
378.26389188793036 -313.65449874665995 -2002.4457659749175
367.54084789919796 -316.04990410290776 -2021.7795837303909
366.34691727534374 -325.7735333298381 -2087.819059761018
347.2567800451749 -318.5250446306061 -2044.781074518582
323.2882849553582 -305.34352226039994 -1965.2774980689353
309.6926320127504 -300.425500431952 -1936.6723524462334
300.8637798165217 -299.12857866592367 -1931.2646603141875
293.3828969995914 -298.3325062277959 -1928.9982480146869
287.30391904110195 -298.1730399727153 -1930.7704840100512
281.1935730924693 -297.1954677327532 -1927.159613384126
274.571643783618 -294.8565471492006 -1914.599801524425
275.15926465344387 -299.41948971800724 -1948.4515238316694
272.4405634037827 -299.29511400629247 -1951.779110024025
265.25020679253083 -293.80768853827317 -1917.5073501471786
260.29613420714645 -290.0778870148962 -1894.1753580074733
257.7039749995774 -288.37831726004345 -1883.5889451881312
253.83268629242167 -284.7493209603399 -1859.9059785672082
248.29762609513205 -278.8565633526715 -1820.9788101631225
241.5287583995484 -271.2898553880346 -1770.7290006965568
232.10758760175034 -260.56082007969536 -1699.5425012393844
220.87728960494908 -247.71010013757746 -1614.3372442501902
207.31420177462832 -232.10727322557838 -1511.4727671406076
191.7963389679336 -214.4680658673555 -1394.9280396386905
167.58871992417443 -187.1956069642558 -1216.016553647658
143.95867908159698 -160.66102511301088 -1042.3164573240342
122.61023636329543 -136.74968576787575 -886.0595786500385
98.45482204698654 -109.76608815849438 -710.3399973061022
77.00997730791777 -85.84292345587883 -554.8677773936469
56.03683639243049 -62.46487455212311 -403.3140788100628
36.30427805360611 -40.474704616537494 -261.0703482294346
16.03906107067238 -17.88572597478934 -115.26500022722306
72.60477244780104 -4.191332443689911 -26.059994962641433
43.59484290762341 -4.640884619960514 -28.933529562875766
3.0809569187133024 -0.4758338934504971 -2.965044103370265
339.2420060053169 -68.27497634198346 -426.03160595818576
607.1124808938198 -150.01898398154478 -937.0930915685202
687.6892114704996 -200.8106043875917 -1255.4459479404836
723.7424472526927 -243.17531170041235 -1521.4456837327907
698.6119701830168 -264.43324135447415 -1656.4284899919771
646.842471186598 -272.083731041226 -1705.6570812981324
587.5111637001739 -271.3185814820655 -1702.6547640354374
538.7848104756645 -270.54759661090503 -1699.9724291291634
508.0136440275068 -275.20498544423793 -1731.718402849865
490.1620496985721 -284.6574828916562 -1792.741101061912
471.67682097597344 -291.94794961284106 -1842.0171449081868
446.2586593750239 -292.9352420457012 -1851.9107624065111
430.634899317308 -298.45407189870656 -1890.754548079941
414.0752755015672 -301.74655679803396 -1915.7560457373058
405.6571451451311 -309.84105799400754 -1969.3733797406796
393.2200869888923 -313.4502182808949 -1996.848757547084
378.26389188793036 -313.65449874665995 -2002.4457659749175
367.54084789919796 -316.04990410290776 -2021.7795837303909
366.34691727534374 -325.7735333298381 -2087.819059761018
347.2567800451749 -318.5250446306061 -2044.781074518582
323.2882849553582 -305.34352226039994 -1965.2774980689353
309.6926320127504 -300.425500431952 -1936.6723524462334
300.8637798165217 -299.12857866592367 -1931.2646603141875
293.3828969995914 -298.3325062277959 -1928.9982480146869
287.30391904110195 -298.1730399727153 -1930.7704840100512
281.1935730924693 -297.1954677327532 -1927.159613384126
274.571643783618 -294.8565471492006 -1914.599801524425
275.15926465344387 -299.41948971800724 -1948.4515238316694
272.4405634037827 -299.29511400629247 -1951.779110024025
265.25020679253083 -293.80768853827317 -1917.5073501471786
260.29613420714645 -290.0778870148962 -1894.1753580074733
257.7039749995774 -288.37831726004345 -1883.5889451881312
253.83268629242167 -284.7493209603399 -1859.9059785672082
248.29762609513205 -278.8565633526715 -1820.9788101631225
241.5287583995484 -271.2898553880346 -1770.7290006965568
232.10758760175034 -260.56082007969536 -1699.5425012393844
220.87728960494908 -247.71010013757746 -1614.3372442501902
207.31420177462832 -232.10727322557838 -1511.4727671406076
191.7963389679336 -214.4680658673555 -1394.9280396386905
167.58871992417443 -187.1956069642558 -1216.016553647658
143.95867908159698 -160.66102511301088 -1042.3164573240342
122.61023636329543 -136.74968576787575 -886.0595786500385
98.45482204698654 -109.76608815849438 -710.3399973061022
77.00997730791777 -85.84292345587883 -554.8677773936469
56.03683639243049 -62.46487455212311 -403.3140788100628
36.30427805360611 -40.474704616537494 -261.0703482294346
16.03906107067238 -17.88572597478934 -115.26500022722306

VECTORS L float
22.110689724699554 10.169893094287303 59.96609728785622
71.84026185966947 18.113079087208394 105.33814111533297
116.5943867147117 20.728888997086017 117.82582730433403
393.9565927624421 47.13613065977624 306.14725475297956
742.4780436840889 67.69153545483559 470.1909294834817
1054.6566770256472 79.07614843929447 565.0555410998525
1386.7705923268093 88.72205308721921 645.4977261790759
1720.9126750153646 97.59272963448237 710.2289290986722
2024.0956881871386 103.76131925026536 751.0532474738521
2278.5262141453013 106.72743465329228 769.2119853553869
2533.1107937158836 109.29155038732334 785.4439458779315
2829.6760034279487 113.05869734495346 812.1411070338972
3178.396668352051 118.46395370692461 850.2107604584389
3507.391311773618 122.10134901480318 878.7692068126645
3798.7800218756174 124.33518417373685 895.7323194107457
4111.213931782958 126.6441583617578 916.3721090077529
4423.405264897747 128.94910726048525 935.7730116986971
4785.4014978807245 132.71311968265667 964.8309234491477
5080.968246410177 134.06443875033557 979.5014473974715
5349.916643689307 135.03650010779975 989.4527576378485
5651.824098825904 136.94784861428138 1006.041352581582
6047.4465837500875 140.86621467368866 1039.1575451521392
6093.924577367724 136.70202655637436 1013.6114977261692
6100.142092438584 132.1317285990162 982.9446017337558
6197.367911005816 130.12212254941016 970.8339016414891
6302.753849404956 128.22454768804675 962.0197365299723
6502.763870582442 129.0676278006587 969.0494202910617
6660.966136252571 128.98381313917332 971.250697793808
6788.31725569795 128.539962786201 970.6667144023
6866.07101375551 127.42275866306439 965.035600893284
7070.180755213398 128.42815308471455 978.7114650711446
7158.493658624537 127.87628007260636 979.614593595844
7105.7054223783825 125.62376616722003 963.688928852229
7072.016479219057 124.09282376585506 952.8272864750907
7101.495351440536 124.21569468493064 952.5764483171299
7036.0556316008015 122.80121178006655 941.4526112516601
6873.635920414859 119.79612897028252 918.9022604297836
6692.311989953457 116.86321019123871 894.9319753274136
6434.537410571874 112.78728477814384 861.4771370630593
6102.856427630661 107.38758570241625 818.5287192510168
5714.47771849391 101.06242577388257 768.2805062332291