# vtk DataFile Version 4.0
[MyVLM domain - lattices] 
ASCII
DATASET UNSTRUCTURED_GRID
POINTS 152 float
0.0 -1.4834949658054373 1.7847201060452853
0.0 -1.148545531178851 3.996522633764765
0.0 -0.8827676607877377 6.178812243226248
0.0 -0.6314212839272957 8.321936783038588
0.0 -0.3940162930734512 10.425809834021843
0.0 -0.13483526321791617 12.484133450465619
0.0 0.17661343104830474 14.491531136124657
0.0 0.5480559029318579 16.446640568784616
0.0 0.9318224558778897 18.357867202110302
0.0 1.3086279398503677 20.228611528380082
0.0 1.6786525340714484 22.058841777135715
0.0 2.0422866613286295 23.848489106305895
0.0 2.3999341602257678 25.5974823082489
0.0 2.754860708774017 27.305245555821067
0.0 3.104901098469788 28.972160633700433
0.0 3.445313243910202 30.599063699488347
0.0 3.775392561527754 32.18607899027793
0.0 4.096291357445461 33.733003323409655
0.0 4.408839936223723 35.23969029378731
0.0 4.713038546012143 36.70613985765545
0.0 5.008887428333181 38.132351972427124
0.0 5.296386818082157 39.518326596683956
0.0 5.575536943527247 40.86406369017611
0.0 5.846338026309491 42.169563213822286
0.0 6.108790281442787 43.43482512970974
0.0 6.36289391731389 44.65984940109426
0.0 6.608649135682419 45.844635992400185
0.0 6.846056131680847 46.989184869220395
0.0 7.075114801278215 48.09349604989835
0.0 7.295821308209563 49.15757021087107
0.0 7.5081750359191535 50.18140746085397
0.0 7.7121767631681575 51.16500766253044
0.0 7.907827238111417 52.108370683980596
0.0 8.095127178297439 53.011496398681274
0.0 8.27407727066839 53.87438468550604
0.0 8.444678171560106 54.69703542872517
0.0 8.607339692286232 55.479376367547076
0.0 8.7633615975703 56.221178318382435
0.0 8.914732978740101 56.92209055076306
0.0 9.062491535899698 57.58193009016271
0.0 9.206043540722645 58.20080162690455
0.0 9.345697744968792 58.77865071972299
0.0 9.493155970510747 59.31341402169842
0.0 9.648155986564221 59.80513777119331
0.0 9.801865436209383 60.25537935103586
0.0 9.948261103406816 60.66520081672445
0.0 10.08580704775872 61.034872995991975
0.0 10.215942525613553 61.36414210911206
0.0 10.337380827187618 61.6532350377359
0.0 10.447586745379226 61.90259880727721
0.0 10.544365623294372 62.11262039495979
-0.8152906147965383 1.9109191503869993 1.1861933136628817
-0.840508508576773 2.350522178570265 3.3795425892102218
-0.8937965186568912 2.8392098003147717 5.522527195245086
-0.9506477078523391 3.32889589851417 7.623626011610832
-1.020681877210228 3.818588090867019 9.683014022082379
-1.048954977401727 4.2778217740483 11.706062958182509
-0.9930987765444168 4.685144130497793 13.696555530459309
-0.9074282632528687 5.021474113478525 15.65785624227266
-0.838943182597301 5.326989061094672 17.582880744901754
-0.780438039247949 5.620822704166983 19.468255245361284
-0.7250391551380654 5.906906520995918 21.313286517952797
-0.6716005320170477 6.184943145767505 23.118026996292443
-0.6190912009117757 6.454216627327025 24.88260292188567
-0.5668551203523576 6.711250951240011 26.60762720986261
-0.5160737545272154 6.958097056793748 28.292738224291107
-0.46824322159258064 7.199679924775705 29.93706755817887
-0.4244759216876314 7.436703780211063 31.540491037653467
-0.3845740908079094 7.66802295364023 33.10321067515161
-0.34771109645469384 7.892897121638095 34.62535700966757
-0.3130568676883623 8.111448614901398 36.10690847099896
-0.28047282351476527 8.323718304566837 37.54785785246165
-0.25028172479700606 8.52970881648383 38.94820469104753
-0.22269967179244904 8.72943906211747 40.30794565215507
-0.19756508903558764 8.922956413354918 41.62707238284242
-0.17527331282135344 9.110271734054523 42.90558296751826
-0.15618952887338375 9.291404257259751 44.14347401487809
-0.13996799493970205 9.466410084146998 45.340735632770865
-0.12575834684109707 9.635357181606778 46.497355836800004
-0.11252036551224441 9.798305572874348 47.61332404324965
-0.10008619772204906 9.955264944076774 48.68863854419426
-0.0884564051429673 10.10623966414868 49.7232985692728
-0.07764813403823374 10.25123482861933 50.71730322000596
-0.06766754153321136 10.390256102169992 51.67065149755761
-0.05846867713071129 10.523310441426215 52.58334217528695
-0.05000632361003568 10.65040419180316 53.45537413432611
-0.0422455662862189 10.771542945511545 54.28674638861744
-0.03513713503927796 10.886430829145683 55.07751110862524
-0.028610254341892315 10.994112634255536 55.82783672337145
-0.02259956362415257 11.091631192732496 56.538244661380126
-0.017476911002663225 11.177455501890904 57.20900487973228
-0.013355710955940858 11.254354460811838 57.839629146813046
-0.010110762084772787 11.322250961262883 58.43013105888424
-0.007505342360435571 11.366851487898257 58.98303094835049
-0.005475063785670375 11.388030072282568 59.49835102684568
-0.003985447751437076 11.396550548164445 59.974193340064076
-0.0029419419370193198 11.399490577043386 60.40930990532298
-0.00222865752783443 11.397980464208729 60.80350141930343
-0.0017402354220029323 11.38911355643864 61.157280403392036
-0.0014049497009942318 11.373865714382681 61.47047478702684
-0.0011720086804816246 11.35504308218906 61.742589771282766
-0.0010052173229800666 11.335074821960687 61.97319702934056
-0.6209246712649916 1.2690354362359382 2.43480630605367
-0.6503643852126241 1.692235343086065 4.610193028794617
-0.6916665849409614 2.1237660189714735 6.742401080854074
-0.7392485943984627 2.5521267988928527 8.833458339767509
-0.7761138204794831 2.970047254806824 10.884646778160265
-0.765770157729804 3.366334485183584 12.897940006564468
-0.7126976399239822 3.73056550823864 14.875175877888143
-0.6548892921938138 4.065658485316167 16.815839841552272
-0.6072679581919687 4.385485711439152 18.717485837659936
-0.5645539478947554 4.6963085186763145 20.57900982443225
-0.5237398826831674 4.999561024461293 22.400158928272162
-0.4840093998483088 5.294962517604748 24.18098264613614
-0.44472987047405005 5.581399700587611 25.92167728241435
-0.40609832807983987 5.858475728918136 27.622312811497835
-0.3691188660449235 6.127943160886043 29.28258021007484
-0.33476967873007946 6.391232115049783 30.90222730965791
-0.3033937546858278 6.648233015065886 32.481273431512854
-0.27460694522347623 6.898486439938019 34.01979958395682
-0.24778798655364606 7.141864461481793 35.5178283241803
-0.22257363420117282 7.378428341593755 36.975348850058054
-0.19903295561691423 7.608194451195916 38.39235827495482
-0.17736802372104568 7.8311709246766625 39.76885516455849
-0.15759928531051376 8.047382674531738 41.10483512612386
-0.1398144006963529 8.256851593747575 42.40029429932676
-0.12429856563552642 8.459589021587439 43.65523068474913
-0.11105907142990716 8.65562325965207 44.86963929205516
-0.09964737816779967 8.845000883078075 46.04351190879164
-0.08935451713250306 9.027769899550306 47.17684006990846
-0.07972746121286005 9.203955957542643 48.269619252887644
-0.07070347607438114 9.373563771100635 49.321848626515774
-0.062289202192950394 9.536596909673916 50.333527561402576
-0.054493378339291916 9.693059599205943 51.30465531240021
-0.047301081998971 9.842956755899685 52.23523101264943
-0.040678125277780114 9.986293543581745 53.125253751628314
-0.03459445871109547 10.123074606771576 53.97472271038273
-0.029018512997061326 10.253242398477251 54.78364803600003
-0.023905271017938854 10.376541460007523 55.55207477273994
-0.01920368173726683 10.491915757159312 56.28018912792503
-0.015028677985055923 10.59806057481375 56.968221158032875
-0.01156223323447653 10.69549562059132 57.61607922458789
-0.008799927390267616 10.785194693989448 58.22359162046492
-0.006606039166953134 10.86327013287037 58.791443845390695
-0.00486765230478973 10.92574457970218 59.32033721481004
-0.003547691826415294 10.97547041051433 59.80976877786981
-0.0025977711331711486 11.01728123940496 60.25888623799018
-0.001938974799320156 11.053310159365234 60.66731347332445
-0.0014883348561890108 11.082878954414298 61.0351700716488
-0.0011794444211239365 11.105282645658141 61.36258033976307
-0.0009663593930534462 11.121461745285258 61.64937843999274
-0.0008164597512981341 11.132788260140353 61.89532245051337

CELLS 100 350
4 0 51 52 1
4 1 52 53 2
4 2 53 54 3
4 3 54 55 4
4 4 55 56 5
4 5 56 57 6
4 6 57 58 7
4 7 58 59 8
4 8 59 60 9
4 9 60 61 10
4 10 61 62 11
4 11 62 63 12
4 12 63 64 13
4 13 64 65 14
4 14 65 66 15
4 15 66 67 16
4 16 67 68 17
4 17 68 69 18
4 18 69 70 19
4 19 70 71 20
4 20 71 72 21
4 21 72 73 22
4 22 73 74 23
4 23 74 75 24
4 24 75 76 25
4 25 76 77 26
4 26 77 78 27
4 27 78 79 28
4 28 79 80 29
4 29 80 81 30
4 30 81 82 31
4 31 82 83 32
4 32 83 84 33
4 33 84 85 34
4 34 85 86 35
4 35 86 87 36
4 36 87 88 37
4 37 88 89 38
4 38 89 90 39
4 39 90 91 40
4 40 91 92 41
4 41 92 93 42
4 42 93 94 43
4 43 94 95 44
4 44 95 96 45
4 45 96 97 46
4 46 97 98 47
4 47 98 99 48
4 48 99 100 49
4 49 100 101 50
1 102
1 103
1 104
1 105
1 106
1 107
1 108
1 109
1 110
1 111
1 112
1 113
1 114
1 115
1 116
1 117
1 118
1 119
1 120
1 121
1 122
1 123
1 124
1 125
1 126
1 127
1 128
1 129
1 130
1 131
1 132
1 133
1 134
1 135
1 136
1 137
1 138
1 139
1 140
1 141
1 142
1 143
1 144
1 145
1 146
1 147
1 148
1 149
1 150
1 151

CELL_TYPES 100
9
9
9
9
9
9
9
9
9
9
9
9
9
9
9
9
9
9
9
9
9
9
9
9
9
9
9
9
9
9
9
9
9
9
9
9
9
9
9
9
9
9
9
9
9
9
9
9
9
9
1
1
1
1
1
1
1
1
1
1
1
1
1
1
1
1
1
1
1
1
1
1
1
1
1
1
1
1
1
1
1
1
1
1
1
1
1
1
1
1
1
1
1
1
1
1
1
1
1
1

CELL_DATA 100

VECTORS S float
6.97383481199803e-18 -5.881326224666481e-16 -1.6761548272467448e-15
3.8095202856771577e-17 -2.3727803891566692e-15 -6.697429351213611e-15
-0.0 0.0 0.0
-4.4483568370349995e-20 -1.4598745956008974e-16 -4.1940778006333676e-16
0.0 0.0 0.0
0.0 0.0 0.0
0.0 0.0 0.0
-3.4061792428491e-17 -4.6885539428442255e-15 -1.3415092003259442e-14
0.0 0.0 0.0
0.0 0.0 0.0
-8.321384721610964e-17 -9.39874542800077e-15 -2.682256935458611e-14
0.0 0.0 0.0
-1.6978827505505602e-16 -1.8821731967371198e-14 -5.363662783467427e-14
-8.018052167462891e-17 -9.417489585968873e-15 -2.6816003205705875e-14
0.0 0.0 0.0
6.99485625159871e-17 9.429149417422281e-15 2.681193419745847e-14
-6.481277528463661e-17 -9.434265676308582e-15 -2.6810147284177713e-14
0.0 0.0 0.0
-2.855684899453213e-17 -4.721464021857228e-15 -1.3403557502889385e-14
0.0 0.0 0.0
-5.237356079315392e-17 -9.45276627749853e-15 -2.6803657094871074e-14
2.407221917691248e-17 4.728801444570197e-15 1.3400979410575695e-14
0.0 0.0 0.0
2.2427996870313598e-17 4.732795658344417e-15 1.339957215652394e-14
4.34940069660534e-17 9.469262758618607e-15 2.67978495037552e-14
4.0576788007446675e-17 9.473057089590221e-15 2.6796513016583996e-14
3.881180328855439e-17 9.476530231121515e-15 2.6795287558988456e-14
0.0 0.0 0.0
0.0 0.0 0.0
3.587799996270534e-17 9.479991469411082e-15 2.679406728093605e-14
0.0 0.0 0.0
3.3671550816055386e-17 9.48754548127855e-15 2.6791396266593735e-14
-3.3063472615195366e-17 -9.490711071613622e-15 -2.679027579380708e-14
0.0 0.0 0.0
-3.1233649585477957e-17 -9.497036532473944e-15 -2.6788036294329323e-14
0.0 0.0 0.0
0.0 0.0 0.0
0.0 0.0 0.0
2.865710532468e-17 9.50890562765485e-15 2.6783828320107344e-14
0.0 0.0 0.0
0.0 0.0 0.0
0.0 0.0 0.0
-2.623415757028474e-17 -9.519139376772949e-15 -2.6780195373463268e-14
0.0 0.0 0.0
-1.2649265835741839e-17 -4.761758477024289e-15 -1.338931992071069e-14
-1.259326782154051e-17 -4.762711195874713e-15 -1.3388981111752839e-14
2.4810441390739128e-17 9.52719479682993e-15 2.6777332030872133e-14
-1.222366439290578e-17 -4.764395341981786e-15 -1.3388382252681243e-14
0.0 0.0 0.0
1.1975991607367629e-17 4.765701182363028e-15 1.3387917707867333e-14
6.97383481199803e-18 -5.881326224666481e-16 -1.6761548272467448e-15
3.8095202856771577e-17 -2.3727803891566692e-15 -6.697429351213611e-15
-0.0 0.0 0.0
-4.4483568370349995e-20 -1.4598745956008974e-16 -4.1940778006333676e-16
0.0 0.0 0.0
0.0 0.0 0.0
0.0 0.0 0.0
-3.4061792428491e-17 -4.6885539428442255e-15 -1.3415092003259442e-14
0.0 0.0 0.0
0.0 0.0 0.0
-8.321384721610964e-17 -9.39874542800077e-15 -2.682256935458611e-14
0.0 0.0 0.0
-1.6978827505505602e-16 -1.8821731967371198e-14 -5.363662783467427e-14
-8.018052167462891e-17 -9.417489585968873e-15 -2.6816003205705875e-14
0.0 0.0 0.0
6.99485625159871e-17 9.429149417422281e-15 2.681193419745847e-14
-6.481277528463661e-17 -9.434265676308582e-15 -2.6810147284177713e-14
0.0 0.0 0.0
-2.855684899453213e-17 -4.721464021857228e-15 -1.3403557502889385e-14
0.0 0.0 0.0
-5.237356079315392e-17 -9.45276627749853e-15 -2.6803657094871074e-14
2.407221917691248e-17 4.728801444570197e-15 1.3400979410575695e-14
0.0 0.0 0.0
2.2427996870313598e-17 4.732795658344417e-15 1.339957215652394e-14
4.34940069660534e-17 9.469262758618607e-15 2.67978495037552e-14
4.0576788007446675e-17 9.473057089590221e-15 2.6796513016583996e-14
3.881180328855439e-17 9.476530231121515e-15 2.6795287558988456e-14
0.0 0.0 0.0
0.0 0.0 0.0
3.587799996270534e-17 9.479991469411082e-15 2.679406728093605e-14
0.0 0.0 0.0
3.3671550816055386e-17 9.48754548127855e-15 2.6791396266593735e-14
-3.3063472615195366e-17 -9.490711071613622e-15 -2.679027579380708e-14
0.0 0.0 0.0
-3.1233649585477957e-17 -9.497036532473944e-15 -2.6788036294329323e-14
0.0 0.0 0.0
0.0 0.0 0.0
0.0 0.0 0.0
2.865710532468e-17 9.50890562765485e-15 2.6783828320107344e-14
0.0 0.0 0.0
0.0 0.0 0.0
0.0 0.0 0.0
-2.623415757028474e-17 -9.519139376772949e-15 -2.6780195373463268e-14
0.0 0.0 0.0
-1.2649265835741839e-17 -4.761758477024289e-15 -1.338931992071069e-14
-1.259326782154051e-17 -4.762711195874713e-15 -1.3388981111752839e-14
2.4810441390739128e-17 9.52719479682993e-15 2.6777332030872133e-14
-1.222366439290578e-17 -4.764395341981786e-15 -1.3388382252681243e-14
0.0 0.0 0.0
1.1975991607367629e-17 4.765701182363028e-15 1.3387917707867333e-14

SCALARS Gamma float
LOOKUP_TABLE default
-0.0
-0.0
-0.0
52.074228718678846
56.05598001262736
56.06150542339203
53.62988821294845
48.71736051547354
45.489883691688945
48.33740813213708
55.278913231108895
55.95231657143327
52.34576494816961
47.526821808014695
46.53180840090376
45.77036262970412
42.13845190829587
40.01031533167094
35.34613909094803
35.74663912582291
35.21823950128727
36.69620779953891
38.22962683577534
35.94320695150833
37.99149443879619
39.27496735999093
39.343907767201294
39.42314965800516
39.59262972165339
39.83050269193667
40.12614197090427
40.45171424643583
38.40424396015219
38.698301927981724
38.995211732467695
39.2800076214916
39.51147588138094
41.878555395289034
41.77765067395081
41.333223973005694
40.607150806653614
39.38248486932689
37.289254345916
34.55407079540343
31.822310744904698
29.134731613156035
26.26011891974247
23.457110330620356
20.62544131623251
17.999093877171372
-0.0
-0.0
-0.0
52.074228718678846
56.05598001262736
56.06150542339203
53.62988821294845
48.71736051547354
45.489883691688945
48.33740813213708
55.278913231108895
55.95231657143327
52.34576494816961
47.526821808014695
46.53180840090376
45.77036262970412
42.13845190829587
40.01031533167094
35.34613909094803
35.74663912582291
35.21823950128727
36.69620779953891
38.22962683577534
35.94320695150833
37.99149443879619
39.27496735999093
39.343907767201294
39.42314965800516
39.59262972165339
39.83050269193667
40.12614197090427
40.45171424643583
38.40424396015219
38.698301927981724
38.995211732467695
39.2800076214916
39.51147588138094
41.878555395289034
41.77765067395081
41.333223973005694
40.607150806653614
39.38248486932689
37.289254345916
34.55407079540343
31.822310744904698
29.134731613156035
26.26011891974247
23.457110330620356
20.62544131623251
17.999093877171372

VECTORS Ftot float
118.40897027582966 -37.64110315127815 13.700241132008975
142.19353571597625 -83.48508785624435 30.38608698477169
145.37247157552537 -123.71992877635927 45.03037146012928
1310.6141753364775 8.747977602109492 -3.1840034571952778
1338.6467241242258 215.19997806275381 -78.326386429582
1432.6287406746987 278.2340135236626 -101.26889908303303
1510.2142092766876 269.2772189011091 -98.00889244598798
1495.2036718561073 262.3326214272112 -95.4812656765289
1505.0115069678423 279.96044174647693 -101.89726756773456
1706.0522168253328 362.5298107978737 -131.9500601645839
2080.7187974850985 475.84010416680707 -173.1916341868466
2242.589893069753 529.3108377757156 -192.65338962486678
2224.831041077254 539.331882895252 -196.30075176461656
2142.2410014678185 501.1592245921857 -182.40704037948586
2218.400836551162 487.92170427470205 -177.58897700842772
2295.4406108498115 487.1494235517178 -177.30788981276388
2217.998449339273 443.92018774959 -161.57373473071456
2200.590877009014 424.2643567577281 -154.4195973199097
2027.8020751466277 368.7634295286819 -134.21891183436236
2130.8876788908565 376.56763934302376 -137.05941190875095
2175.809594118039 376.12963796538276 -136.89999244472205
2348.1999803424014 379.9935441902488 -138.30633929856916
2524.6583517222134 400.6279123852201 -145.81663512442793
2445.293841567066 380.19503937898065 -138.3796775496154
2657.814781652884 406.5280428323029 -147.9641069854538
2823.8799756664876 409.1174060721794 -148.90655813047195
2900.9723699883607 407.7102028031598 -148.39437802698671
2976.0929802663723 409.1432090459802 -148.915949644891
3056.1892512910913 410.70846185982214 -149.48565507823085
3139.558766178985 413.7391320836392 -150.58872882957718
3225.724253727749 417.994361886745 -152.13750581787014
3312.3048697919285 422.9038480479503 -153.9244126460907
3199.3680521578926 406.6171495620628 -147.99653918275922
3277.65344790619 408.4592435157543 -148.66700655062465
3353.92703072386 414.0343778603231 -150.6961895040829
3427.2475859410893 420.7948541702848 -153.15680165037077
3494.6843724285973 423.2605788874445 -154.05425205331136
3750.8580948378917 452.5014347211213 -164.69705320123896
3786.2830625643073 452.83428256446183 -164.81819990875456
3787.4358635982226 449.1458621580706 -163.47572466936813
3758.485343608894 446.01791094422055 -162.3372435332899
3679.9954540577423 431.4112555998561 -157.02085576575587
3515.5319524471756 404.407612705728 -147.19233353553923
3283.7336569435934 374.751086863577 -136.39824087724986
3046.0895014143357 345.3959655269788 -125.71385048745543
2806.5809986803597 319.91509252453517 -116.4395711714487
2544.5136478504414 288.3237451528147 -104.94126106777863
2284.739131782017 257.2166442903873 -93.61920227953857
2017.899219235706 226.75252958834736 -82.53117131472465
1767.7445981406856 197.66599031993835 -71.94453680320873
118.40897027582966 -37.64110315127815 13.700241132008975
142.19353571597625 -83.48508785624435 30.38608698477169
145.37247157552537 -123.71992877635927 45.03037146012928
1310.6141753364775 8.747977602109492 -3.1840034571952778
1338.6467241242258 215.19997806275381 -78.326386429582
1432.6287406746987 278.2340135236626 -101.26889908303303
1510.2142092766876 269.2772189011091 -98.00889244598798
1495.2036718561073 262.3326214272112 -95.4812656765289
1505.0115069678423 279.96044174647693 -101.89726756773456
1706.0522168253328 362.5298107978737 -131.9500601645839
2080.7187974850985 475.84010416680707 -173.1916341868466
2242.589893069753 529.3108377757156 -192.65338962486678
2224.831041077254 539.331882895252 -196.30075176461656
2142.2410014678185 501.1592245921857 -182.40704037948586
2218.400836551162 487.92170427470205 -177.58897700842772
2295.4406108498115 487.1494235517178 -177.30788981276388
2217.998449339273 443.92018774959 -161.57373473071456
2200.590877009014 424.2643567577281 -154.4195973199097
2027.8020751466277 368.7634295286819 -134.21891183436236
2130.8876788908565 376.56763934302376 -137.05941190875095
2175.809594118039 376.12963796538276 -136.89999244472205
2348.1999803424014 379.9935441902488 -138.30633929856916
2524.6583517222134 400.6279123852201 -145.81663512442793
2445.293841567066 380.19503937898065 -138.3796775496154
2657.814781652884 406.5280428323029 -147.9641069854538
2823.8799756664876 409.1174060721794 -148.90655813047195
2900.9723699883607 407.7102028031598 -148.39437802698671
2976.0929802663723 409.1432090459802 -148.915949644891
3056.1892512910913 410.70846185982214 -149.48565507823085
3139.558766178985 413.7391320836392 -150.58872882957718
3225.724253727749 417.994361886745 -152.13750581787014
3312.3048697919285 422.9038480479503 -153.9244126460907
3199.3680521578926 406.6171495620628 -147.99653918275922
3277.65344790619 408.4592435157543 -148.66700655062465
3353.92703072386 414.0343778603231 -150.6961895040829
3427.2475859410893 420.7948541702848 -153.15680165037077
3494.6843724285973 423.2605788874445 -154.05425205331136
3750.8580948378917 452.5014347211213 -164.69705320123896
3786.2830625643073 452.83428256446183 -164.81819990875456
3787.4358635982226 449.1458621580706 -163.47572466936813
3758.485343608894 446.01791094422055 -162.3372435332899
3679.9954540577423 431.4112555998561 -157.02085576575587
3515.5319524471756 404.407612705728 -147.19233353553923
3283.7336569435934 374.751086863577 -136.39824087724986
3046.0895014143357 345.3959655269788 -125.71385048745543
2806.5809986803597 319.91509252453517 -116.4395711714487
2544.5136478504414 288.3237451528147 -104.94126106777863
2284.739131782017 257.2166442903873 -93.61920227953857
2017.899219235706 226.75252958834736 -82.53117131472465
1767.7445981406856 197.66599031993835 -71.94453680320873

VECTORS D float
94.08502089953201 30.161430460563558 -10.191652657851536
62.34054976768685 36.83020862264787 -12.693694311737652
14.354572757528214 12.283420882856507 -4.262662656956105
551.742588213682 615.5021875067583 -214.30252002803115
538.5832573574111 737.2420239801583 -257.25310401266125
493.36698090404894 797.3708953477933 -278.713264666625
425.6910371948268 790.6293523508963 -276.7695228234461
357.25179436351135 747.6283343461843 -262.2020341262323
317.54150612025785 736.7480567687504 -258.62479539736705
332.62528503000567 845.1331695931232 -296.8973611283601
373.6495309313205 1029.2516273453111 -361.8134681081203
369.45471606430675 1094.1793957406041 -384.8573165447062
339.0412371093065 1072.042610491053 -377.2657737070382
295.76363834236287 992.558466215847 -349.46011267904674
275.81770840158265 977.3984330637362 -344.27345091590416
261.59907763942095 974.5584739934185 -343.4125967535816
230.34597857501825 898.674063409089 -316.7927107125075
211.44050204752 860.5074325084761 -303.39091607497005
179.14360351490146 758.4074781535525 -267.5341526359977
176.1488063743914 773.6435401845775 -273.0438475596742
169.39266997814997 769.9173106006697 -271.8554435171354
169.2017672690948 794.0672399086899 -280.50631659252866
172.55160192286436 834.375954073246 -294.86884159827696
158.9017762020935 790.1540166016955 -279.35230349222576
164.95032279803257 841.9387359321539 -297.7743966571421
164.85863774120372 862.2553564133848 -305.07266546376593
161.46823312715043 863.9825081391623 -305.7934427016003
158.88645864016158 868.433009224449 -307.47628787687677
156.7828456471365 874.1383414622801 -309.3954450254335
155.29531672954744 881.9663281726095 -312.2558760873461
154.3252176703599 891.6408081162407 -315.77332083319845
153.83569424117752 902.5040943442253 -319.7940280257074
145.04713126847147 863.577425924625 -306.10956237959863
144.26974881660328 870.8047051490232 -308.7803960427945
144.20810478245187 881.5964836074857 -312.71639567347955
144.4081292026313 893.3341879498521 -316.9893279412213
143.93465689405056 900.2462997927316 -319.55044137649094
151.86544668419853 959.5819514353457 -340.7253719154069
150.53939961894653 960.2263656678535 -341.0646083365948
148.04288158075767 952.5814666127858 -338.4553645917928
145.19263449905557 941.7956940187839 -334.7242399682164
139.7943899228473 913.5231869269242 -324.7698587477835
131.08258536328023 862.2395868769305 -306.61530023744115
120.85411608457117 799.9192887341932 -284.52730997562037
110.8285271694358 737.7140421797105 -262.464263628179
101.58073663138369 679.6055453006055 -241.84395704026272
91.21650566103904 613.043858523369 -218.20140162521085
81.16730450851466 547.6970979025349 -194.9778259005852
71.25039189925495 482.45925845085753 -171.78095490440228
61.99728833275185 421.0527150736219 -149.93772331664886
94.08502089953201 30.161430460563558 -10.191652657851536
62.34054976768685 36.83020862264787 -12.693694311737652
14.354572757528214 12.283420882856507 -4.262662656956105
551.742588213682 615.5021875067583 -214.30252002803115
538.5832573574111 737.2420239801583 -257.25310401266125
493.36698090404894 797.3708953477933 -278.713264666625
425.6910371948268 790.6293523508963 -276.7695228234461
357.25179436351135 747.6283343461843 -262.2020341262323
317.54150612025785 736.7480567687504 -258.62479539736705
332.62528503000567 845.1331695931232 -296.8973611283601
373.6495309313205 1029.2516273453111 -361.8134681081203
369.45471606430675 1094.1793957406041 -384.8573165447062
339.0412371093065 1072.042610491053 -377.2657737070382
295.76363834236287 992.558466215847 -349.46011267904674
275.81770840158265 977.3984330637362 -344.27345091590416
261.59907763942095 974.5584739934185 -343.4125967535816
230.34597857501825 898.674063409089 -316.7927107125075
211.44050204752 860.5074325084761 -303.39091607497005
179.14360351490146 758.4074781535525 -267.5341526359977
176.1488063743914 773.6435401845775 -273.0438475596742
169.39266997814997 769.9173106006697 -271.8554435171354
169.2017672690948 794.0672399086899 -280.50631659252866
172.55160192286436 834.375954073246 -294.86884159827696
158.9017762020935 790.1540166016955 -279.35230349222576
164.95032279803257 841.9387359321539 -297.7743966571421
164.85863774120372 862.2553564133848 -305.07266546376593
161.46823312715043 863.9825081391623 -305.7934427016003
158.88645864016158 868.433009224449 -307.47628787687677
156.7828456471365 874.1383414622801 -309.3954450254335
155.29531672954744 881.9663281726095 -312.2558760873461
154.3252176703599 891.6408081162407 -315.77332083319845
153.83569424117752 902.5040943442253 -319.7940280257074
145.04713126847147 863.577425924625 -306.10956237959863
144.26974881660328 870.8047051490232 -308.7803960427945
144.20810478245187 881.5964836074857 -312.71639567347955
144.4081292026313 893.3341879498521 -316.9893279412213
143.93465689405056 900.2462997927316 -319.55044137649094
151.86544668419853 959.5819514353457 -340.7253719154069
150.53939961894653 960.2263656678535 -341.0646083365948
148.04288158075767 952.5814666127858 -338.4553645917928
145.19263449905557 941.7956940187839 -334.7242399682164
139.7943899228473 913.5231869269242 -324.7698587477835
131.08258536328023 862.2395868769305 -306.61530023744115
120.85411608457117 799.9192887341932 -284.52730997562037
110.8285271694358 737.7140421797105 -262.464263628179
101.58073663138369 679.6055453006055 -241.84395704026272
91.21650566103904 613.043858523369 -218.20140162521085
81.16730450851466 547.6970979025349 -194.9778259005852
71.25039189925495 482.45925845085753 -171.78095490440228
61.99728833275185 421.0527150736219 -149.93772331664886

VECTORS L float
24.32394937629768 -67.80253361184171 23.891893789860518
79.8529859482894 -120.31529647889224 43.07978129650936
131.01789881799718 -136.00334965921581 49.293034117085405
758.8715871227956 -606.7542099046487 211.11851657083585
800.063466766815 -522.0420459174046 178.92671758307938
939.2617597706496 -519.1368818241306 177.44436558359195
1084.5231720818613 -521.3521334497874 178.76063037745817
1137.9518774925964 -485.29571291897315 166.72076844970348
1187.4700008475843 -456.7876150222734 156.7275278296324
1373.4269317953276 -482.6033587952495 164.94730096377623
1707.0692665537783 -553.411523178504 188.6218339212736
1873.1351770054462 -564.8685579648884 192.2039269198394
1885.789803967948 -532.7107275958011 180.9650219424216
1846.4773631254561 -491.39924162366134 167.0530722995609
1942.5831281495791 -489.4767287890346 166.68447390747653
2033.8415332103903 -487.4090504417007 166.10470694081783
1987.652470764255 -454.75387565949893 155.21897598179302
1989.1503749614942 -436.2430757507481 148.97131875506037
1848.6584716317266 -389.6440486248705 133.31524080163538
1954.738872516465 -397.0759008415538 135.98443565092333
2006.41692413989 -393.78767263528704 134.95545107241338
2178.9982130733065 -414.0736957184411 142.19997729395953
2352.106749799349 -433.74804168802586 149.052206473849
2286.392065364973 -409.9589772227148 140.97262594261042
2492.8644588548514 -435.4106930998512 149.81028967168837
2659.0213379252846 -453.13795034120557 156.166107333294
2739.5041368612106 -456.27230533600243 157.39906467461367
2817.2065216262104 -459.28980017846857 158.56033823198572
2899.406405643955 -463.42987960245785 159.90978994720265
2984.263449449438 -468.2271960889704 161.667147257769
3071.3990360573894 -473.6464462294956 163.6358150153283
3158.4691755507515 -479.60024629627503 165.8696153796167
3054.3209208894214 -456.96027636256224 158.11302319683944
3133.383699089588 -462.3454616332688 160.11338949216977
3209.718925941409 -467.56210574716255 162.02020616939666
3282.8394567384576 -472.5393337795674 163.83252629085052
3350.749715534547 -476.98572090528694 165.4961893231795
3598.9926481536936 -507.08051671422413 176.02831871416785
3635.7436629453614 -507.39208310339166 176.24640842784032
3639.392982017464 -503.4356044547154 174.97963992242467
3613.2927091098386 -495.7777830745635 172.38699643492652
3540.201064134895 -482.1119313270684 167.7490029820276
3384.449367083895 -457.83197417120255 159.42296670190183
3162.879540859023 -425.1682018706164 148.12906909837056
2935.2609742449013 -392.31807665273186 136.75041314072365
2705.000262048977 -359.69045277607046 125.40438586881402
2453.2971421894026 -324.72011337055426 113.26014055743228
2203.571827273503 -290.4804536121476 101.35862362104663
1946.6488273364514 -255.70672886251032 89.24978358967765
1705.7473098079342 -223.38672475368358 77.99318651344011
24.32394937629768 -67.80253361184171 23.891893789860518
79.8529859482894 -120.31529647889224 43.07978129650936
131.01789881799718 -136.00334965921581 49.293034117085405
758.8715871227956 -606.7542099046487 211.11851657083585
800.063466766815 -522.0420459174046 178.92671758307938
939.2617597706496 -519.1368818241306 177.44436558359195
1084.5231720818613 -521.3521334497874 178.76063037745817
1137.9518774925964 -485.29571291897315 166.72076844970348
1187.4700008475843 -456.7876150222734 156.7275278296324
1373.4269317953276 -482.6033587952495 164.94730096377623