# vtk DataFile Version 4.0
[MyVLM domain - lattices] 
ASCII
DATASET UNSTRUCTURED_GRID
POINTS 152 float
0.0 1.1697031535730074 2.0044394955073312
0.0 3.3626771205619033 2.4461710042949236
0.0 5.504259948314186 2.9428085057286424
0.0 7.604103787640407 3.439611932396405
0.0 9.662295057718238 3.9360911767870137
0.0 11.685131704258279 4.396528813890997
0.0 13.677990223505983 4.790433218298286
0.0 15.642232937676155 5.1100782767995785
0.0 17.56945439310426 5.403133685948214
0.0 19.456254097511287 5.688884595783863
0.0 21.302663821355655 5.967150827083337
0.0 23.10875240670865 6.237541957059287
0.0 24.874591061211998 6.499654147107771
0.0 26.60075561200952 6.7502217192168334
0.0 28.28686427442316 6.991409881890193
0.0 29.932080890851406 7.227960720531461
0.0 31.536281224201144 7.460578818708283
0.0 33.099668457131955 7.688111870297342
0.0 34.622388994740064 7.909729570738008
0.0 36.10444288078095 8.125431671880687
0.0 37.545830157841536 8.335217932202925
0.0 38.9465508673402 8.53908811680941
0.0 40.30660504952679 8.73704199743197
0.0 41.62599274348258 8.929079352429573
0.0 42.90471398712034 9.115199966788326
0.0 44.14276881718426 9.29540363212148
0.0 45.34015726925003 9.469690146669425
0.0 46.49687937772474 9.638059315299692
0.0 47.61293512426494 9.800511242043262
0.0 48.68832383243356 9.957049763165344
0.0 49.72304539351518 10.107675495221724
0.0 50.71709994482641 10.252387659451204
0.0 51.67048761828715 10.391185507698905
0.0 52.58320854042056 10.5240683224163
0.0 53.455262832353064 10.651035416661184
0.0 54.286650609814416 10.772086134097698
0.0 55.07744413359636 10.886810663411266
0.0 55.827872587288724 10.993909239875462
0.0 56.538286701358516 11.091392772169277
0.0 57.20886945033136 11.1782235601921
0.0 57.839516143886875 11.254995332254547
0.0 58.4302812232909 11.321399336595476
0.0 58.9832280354592 11.36573375136384
0.0 59.49831034202879 11.388260807347057
0.0 59.97397076017424 11.397812861449138
0.0 60.40914723439872 11.400413129700773
0.0 60.80356893696878 11.397597552502825
0.0 61.15748964760878 11.387926873518461
0.0 61.47068248466707 11.372687802533717
0.0 61.74270042273039 11.354415546647964
0.0 61.97315648457525 11.335304762753196
-0.8152906132198464 1.7682299447993335 -1.3899746141286475
-0.840508508580286 3.979657165118809 -1.0528967054675702
-0.8937965186637556 6.160544996300414 -0.7791689554025858
-0.9506477078574832 8.302414559071947 -0.5207052500664937
-1.02068187720969 10.405090869657315 -0.2765132071512333
-1.0489549773990687 12.463202196539438 -0.016128223364138883
-0.9930987765435385 14.47296582917064 0.2819025188527493
-0.9074282632533693 16.431017264188544 0.6366600662504749
-0.8389431825969345 18.344440850312473 1.0079670807333407
-0.7804380392478915 20.216610380530042 1.3766898314675116
-0.7250391551382538 22.04821908053878 1.7388968401577214
-0.6716005320172311 23.839214516722308 2.0948854726192536
-0.6190912009116674 25.58947044757511 2.445371680007206
-0.5668551203522249 27.298373957967826 2.793831476751744
-0.5160737545271722 28.966286683832433 3.1382139235665294
-0.46824322159258325 30.594077032160897 3.473594039665915
-0.42447592168765613 32.18186917682565 3.799267600024744
-0.38457409080794247 33.729461105390065 4.116380274102247
-0.3477110964547294 35.23672227885988 4.425672385323258
-0.31305686768839563 36.703674267437506 4.727021602991042
-0.2804728235147938 38.13032427780708 5.020387055968908
-0.25028172479702737 39.516672772976676 5.30576611840744
-0.22269967179246206 40.86272308754786 5.583139878841546
-0.19756508903559172 42.16848357446246 5.852460965384069
-0.17527331282134875 43.43395614931181 6.1137185141766635
-0.15618952887337012 44.659144203400395 6.366893292175867
-0.1399679949396797 45.84405762887927 6.611929198205285
-0.12575834684106657 46.988708410145016 6.84875826537441
-0.11252036551220733 48.093107130913495 7.077320470447997
-0.1000861977220127 49.15725549911021 7.2976061272990735
-0.08845640514293837 50.181154285096206 7.509610866993033
-0.07764813403821604 51.16480438735079 7.713329594000609
-0.06766754153320646 52.10820680471011 7.908756643640511
-0.05846867713071907 53.011362763814944 8.09588505928719
-0.05000632361005495 53.874273383533165 8.274708495525466
-0.04224556628624775 54.69693964992245 8.445221360144615
-0.03513713503931205 55.4793093925186 8.607719526549538
-0.02861025434192226 56.22121418230014 8.763158203187839
-0.022599563624171346 56.92213259074177 8.91449455817506
-0.017476911002667815 57.58179466076189 9.063259594200373
-0.0133557109559299 58.200688623978074 9.206684412167123
-0.010110762084749267 58.77880088412881 9.34484612030611
-0.007505342360414162 59.31361110880616 9.492038233981816
-0.005475063785658977 59.805097086375746 9.648386721632452
-0.0039854477514337135 60.25515677114577 9.803127749495484
-0.0029419419370200197 60.66503814580025 9.94918365606382
-0.0022286575278371427 61.034940513657645 10.085424136051051
-0.0017402354220080998 61.364351353329475 10.21475584268958
-0.0014049497010025483 61.65344273537729 10.336202915332084
-0.0011720086804935075 61.90270945872655 10.446959209828412
-0.0010052173229957839 62.11257985019676 10.544595564073965
-0.6209246706750498 2.7220052004861675 -0.35975043237329996
-0.6503643852165156 4.910942944141721 -0.013402184073362801
-0.6916665849454646 7.062155300258961 0.31034972771472613
-0.73924859440019 9.173614391443303 0.6230059671912795
-0.7761138204782846 11.244038245070847 0.9318369623914861
-0.7657701577284777 13.271453250611813 1.248035614831889
-0.7126976399238405 15.25402155515746 1.5820249063009422
-0.6548892921938638 17.192257709285432 1.9308866754624054
-0.6072679581918097 19.088607772892885 2.280748627291829
-0.5645539478948045 20.944175787759175 2.625349429717862
-0.5237398826833068 22.759214627480944 2.9632549653091935
-0.4840093998483369 24.533674795101614 3.294745945255805
-0.4447298704739596 26.267359986231288 3.620935667075181
-0.40609832807977386 27.960200226479184 3.942220975257731
-0.3691188660449083 29.612504539156813 4.2568493115148724
-0.3347696787300898 31.224525092751524 4.563390557288965
-0.3033937546858495 32.79624256599753 4.861954288923324
-0.27460694522350193 34.32757595057773 5.152999927413983
-0.24778798655367185 35.818502689301646 5.436655400945199
-0.22257363420119602 37.269033584294526 5.712859447620432
-0.19903295561693296 38.67917152219162 5.981595696517672
-0.17736802372105853 40.04891793730508 6.2428560132485424
-0.15759928531052017 41.37827722238004 6.4966154853172995
-0.1398144006963527 42.66725323774072 6.742852219737513
-0.12429856563551955 43.915847982805154 6.981554877245925
-0.11105907142989367 45.12406644790916 7.212695156241796
-0.09964737816777985 46.29191684550595 7.436226481588527
-0.08935451713247772 47.419407640645645 7.6521008456012725
-0.07972746121283251 48.5065433558462 7.860292599806227
-0.07070347607435665 49.553324822320995 8.060797030157921
-0.06228920219293291 50.55975266946032 8.253610567206731
-0.05449337833928344 51.525827642412025 8.438728985009183
-0.04730108199897208 52.451550608035355 8.616147367362288
-0.04067812527779026 53.33692247685223 8.78586055043943
-0.03459445871111351 54.18194406781679 8.947863889721141
-0.029018512997084925 54.986605233841736 9.102214932198928
-0.023905271017962866 55.75086093066765 9.249169136562356
-0.0192036817372851 56.47452495097162 9.389782537016679
-0.015028677985064689 57.157367238275114 9.525359848685959
-0.011562233234474143 57.799479431054756 9.655381363943642
-0.008799927390254687 58.4010332364373 9.778873283283716
-0.006606039166936287 58.96134315469437 9.899723268852886
-0.004867652304777427 59.47970787037921 10.021908678194213
-0.003547691826409759 59.956630334345945 10.1425771352725
-0.00259777113317015 60.392962843176385 10.256895025978476
-0.001938974799321436 60.78908151871766 10.362729257318525
-0.0014883348561919659 61.14486677319236 10.460758045280398
-0.001179444421128993 61.460194299799525 10.551686368764646
-0.000966359393061021 61.73522993621362 10.634573715582896
-0.0008164597513084843 61.97021560425943 10.708048078888536

CELLS 100 350
4 0 51 52 1
4 1 52 53 2
4 2 53 54 3
4 3 54 55 4
4 4 55 56 5
4 5 56 57 6
4 6 57 58 7
4 7 58 59 8
4 8 59 60 9
4 9 60 61 10
4 10 61 62 11
4 11 62 63 12
4 12 63 64 13
4 13 64 65 14
4 14 65 66 15
4 15 66 67 16
4 16 67 68 17
4 17 68 69 18
4 18 69 70 19
4 19 70 71 20
4 20 71 72 21
4 21 72 73 22
4 22 73 74 23
4 23 74 75 24
4 24 75 76 25
4 25 76 77 26
4 26 77 78 27
4 27 78 79 28
4 28 79 80 29
4 29 80 81 30
4 30 81 82 31
4 31 82 83 32
4 32 83 84 33
4 33 84 85 34
4 34 85 86 35
4 35 86 87 36
4 36 87 88 37
4 37 88 89 38
4 38 89 90 39
4 39 90 91 40
4 40 91 92 41
4 41 92 93 42
4 42 93 94 43
4 43 94 95 44
4 44 95 96 45
4 45 96 97 46
4 46 97 98 47
4 47 98 99 48
4 48 99 100 49
4 49 100 101 50
1 102
1 103
1 104
1 105
1 106
1 107
1 108
1 109
1 110
1 111
1 112
1 113
1 114
1 115
1 116
1 117
1 118
1 119
1 120
1 121
1 122
1 123
1 124
1 125
1 126
1 127
1 128
1 129
1 130
1 131
1 132
1 133
1 134
1 135
1 136
1 137
1 138
1 139
1 140
1 141
1 142
1 143
1 144
1 145
1 146
1 147
1 148
1 149
1 150
1 151

CELL_TYPES 100
9
9
9
9
9
9
9
9
9
9
9
9
9
9
9
9
9
9
9
9
9
9
9
9
9
9
9
9
9
9
9
9
9
9
9
9
9
9
9
9
9
9
9
9
9
9
9
9
9
9
1
1
1
1
1
1
1
1
1
1
1
1
1
1
1
1
1
1
1
1
1
1
1
1
1
1
1
1
1
1
1
1
1
1
1
1
1
1
1
1
1
1
1
1
1
1
1
1
1
1

CELL_DATA 100

VECTORS S float
-4.5259713641141e-19 1.4889655109623924e-16 1.3982686380157398e-18
-6.928603813603e-20 1.948668571472502e-17 1.1590287915951e-19
3.1341908918911e-19 -7.708616659969102e-17 -3.6155021157678e-19
8.9684468413e-22 -2.0887972615774798e-17 -1.6468195959776999e-19
7.090542849635e-20 5.0169190256970696e-17 4.0431786191505e-19
-4.1445840489169997e-20 -2.7630441802533637e-17 -2.0083926368748e-19
3.2811106883651998e-19 2.75327902347475e-16 1.76401474620732e-18
2.7711209241235997e-19 2.513119616123622e-16 1.5216731197912799e-18
-5.038578961056e-20 -4.763393211524538e-17 -2.6234969497389e-19
-7.586398477880399e-19 -6.522027001639187e-16 -3.36421015913345e-18
-8.1172467377021e-19 -6.802582502407601e-16 -3.3144678302295298e-18
4.240784572071e-20 3.66144532974313e-17 1.6970263461655e-19
-3.1744904652926e-19 -2.7312962217175126e-16 -1.2191606469667999e-18
4.0193800493311e-19 3.6468705547931524e-16 1.57312090096591e-18
2.5111810194705e-19 2.4872907673895203e-16 1.04179662078702e-18
-6.434804819299399e-19 -6.765337838514063e-16 -2.7739441051958297e-18
5.946736106104e-20 6.25686793957683e-17 2.7091191191778996e-19
5.310063566743999e-19 5.967717165192506e-16 2.5050577440089297e-18
-5.481044262671e-20 -6.714896840660321e-17 -2.7472537874561997e-19
-1.6460187919593e-19 -2.1058679223547903e-16 -8.459482519880899e-19
1.2320708032598e-19 1.6333850974438831e-16 6.4732122138664e-19
-8.581417658134e-20 -1.236254126192079e-16 -4.842491971670099e-19
4.2337057339889997e-19 6.254267662123495e-16 2.43394486410222e-18
2.8707608846013996e-19 4.345906205174022e-16 1.68408488681268e-18
2.3039143260019996e-19 3.556154193649736e-16 1.37465975292729e-18
-1.0887322803184e-19 -1.7678869342158106e-16 -6.8182856056876e-19
6.4757597055899996e-21 1.087300150496021e-17 4.189014711634e-20
-1.987242566682e-19 -3.336367751359393e-16 -1.31673960989728e-18
-5.2044487392e-21 -9.00458236019642e-18 -3.526852141374e-20
-1.49887519064e-19 -2.667373193726382e-16 -1.0366771144461499e-18
-7.576918019458e-20 -1.3836373995563923e-16 -5.3345293303533e-19
-6.907781240532e-20 -1.2936384819550537e-16 -4.945586882576399e-19
-2.79480001097e-21 -5.3202391362309395e-18 -2.016230769438e-20
-3.2402058346239996e-20 -6.33256477426458e-17 -2.3772579826793e-19
1.7132114013009998e-20 3.418442025452383e-17 1.2707314289109e-19
-2.745271679621e-20 -5.5447212232806386e-17 -2.0480905920983998e-19
-4.5247845314899995e-20 -9.385015587953996e-17 -3.4264670893444996e-19
-7.354359120045e-20 -1.5543604170066454e-16 -5.6087921123192e-19
-1.1164584355867e-19 -2.410345975304926e-16 -8.5944225677513e-19
-1.4046109816e-20 -3.09693495028379e-17 -1.0911193535492e-19
-2.660710816945e-20 -5.944574975763802e-17 -2.0699359280388e-19
-5.9385411295799994e-21 -1.355369848261432e-17 -4.664336664175e-20
1.9523197753699998e-21 4.59784582235702e-18 1.563909527607e-20
-4.6528209237239995e-20 -1.1172438066571015e-16 -3.7583098088569996e-19
4.8717545362e-21 1.190240516854912e-17 3.961926152535e-20
-2.572718394888e-20 -6.31617948862835e-17 -2.0821771369427999e-19
4.572332406333e-20 1.1398389527448444e-16 3.7232794634745e-19
4.928789312025e-20 1.2474801147012502e-16 4.040894069574e-19
4.7770306061629995e-20 1.220677665437248e-16 3.9248458047834e-19
-2.289151656474e-20 -5.917436614447595e-17 -1.8902571803009998e-19
-4.5259713641141e-19 1.4889655109623924e-16 1.3982686380157398e-18
-6.928603813603e-20 1.948668571472502e-17 1.1590287915951e-19
3.1341908918911e-19 -7.708616659969102e-17 -3.6155021157678e-19
8.9684468413e-22 -2.0887972615774798e-17 -1.6468195959776999e-19
7.090542849635e-20 5.0169190256970696e-17 4.0431786191505e-19
-4.1445840489169997e-20 -2.7630441802533637e-17 -2.0083926368748e-19
3.2811106883651998e-19 2.75327902347475e-16 1.76401474620732e-18
2.7711209241235997e-19 2.513119616123622e-16 1.5216731197912799e-18
-5.038578961056e-20 -4.763393211524538e-17 -2.6234969497389e-19
-7.586398477880399e-19 -6.522027001639187e-16 -3.36421015913345e-18
-8.1172467377021e-19 -6.802582502407601e-16 -3.3144678302295298e-18
4.240784572071e-20 3.66144532974313e-17 1.6970263461655e-19
-3.1744904652926e-19 -2.7312962217175126e-16 -1.2191606469667999e-18
4.0193800493311e-19 3.6468705547931524e-16 1.57312090096591e-18
2.5111810194705e-19 2.4872907673895203e-16 1.04179662078702e-18
-6.434804819299399e-19 -6.765337838514063e-16 -2.7739441051958297e-18
5.946736106104e-20 6.25686793957683e-17 2.7091191191778996e-19
5.310063566743999e-19 5.967717165192506e-16 2.5050577440089297e-18
-5.481044262671e-20 -6.714896840660321e-17 -2.7472537874561997e-19
-1.6460187919593e-19 -2.1058679223547903e-16 -8.459482519880899e-19
1.2320708032598e-19 1.6333850974438831e-16 6.4732122138664e-19
-8.581417658134e-20 -1.236254126192079e-16 -4.842491971670099e-19
4.2337057339889997e-19 6.254267662123495e-16 2.43394486410222e-18
2.8707608846013996e-19 4.345906205174022e-16 1.68408488681268e-18
2.3039143260019996e-19 3.556154193649736e-16 1.37465975292729e-18
-1.0887322803184e-19 -1.7678869342158106e-16 -6.8182856056876e-19
6.4757597055899996e-21 1.087300150496021e-17 4.189014711634e-20
-1.987242566682e-19 -3.336367751359393e-16 -1.31673960989728e-18
-5.2044487392e-21 -9.00458236019642e-18 -3.526852141374e-20
-1.49887519064e-19 -2.667373193726382e-16 -1.0366771144461499e-18
-7.576918019458e-20 -1.3836373995563923e-16 -5.3345293303533e-19
-6.907781240532e-20 -1.2936384819550537e-16 -4.945586882576399e-19
-2.79480001097e-21 -5.3202391362309395e-18 -2.016230769438e-20
-3.2402058346239996e-20 -6.33256477426458e-17 -2.3772579826793e-19
1.7132114013009998e-20 3.418442025452383e-17 1.2707314289109e-19
-2.745271679621e-20 -5.5447212232806386e-17 -2.0480905920983998e-19
-4.5247845314899995e-20 -9.385015587953996e-17 -3.4264670893444996e-19
-7.354359120045e-20 -1.5543604170066454e-16 -5.6087921123192e-19
-1.1164584355867e-19 -2.410345975304926e-16 -8.5944225677513e-19
-1.4046109816e-20 -3.09693495028379e-17 -1.0911193535492e-19
-2.660710816945e-20 -5.944574975763802e-17 -2.0699359280388e-19
-5.9385411295799994e-21 -1.355369848261432e-17 -4.664336664175e-20
1.9523197753699998e-21 4.59784582235702e-18 1.563909527607e-20
-4.6528209237239995e-20 -1.1172438066571015e-16 -3.7583098088569996e-19
4.8717545362e-21 1.190240516854912e-17 3.961926152535e-20
-2.572718394888e-20 -6.31617948862835e-17 -2.0821771369427999e-19
4.572332406333e-20 1.1398389527448444e-16 3.7232794634745e-19
4.928789312025e-20 1.2474801147012502e-16 4.040894069574e-19
4.7770306061629995e-20 1.220677665437248e-16 3.9248458047834e-19
-2.289151656474e-20 -5.917436614447595e-17 -1.8902571803009998e-19

SCALARS Gamma float
LOOKUP_TABLE default
-0.0
-0.0
-0.0
55.31449248832838
61.0874719210162
60.550862809788434
57.20275622934123
51.707992773783744
47.58403737490422
51.1260177190094
59.12074297328978
59.758632621634156
56.92931870377345
52.16035100063275
50.981545953308135
50.02301944701532
46.45413618509418
44.009960919215985
39.28860643942907
39.706773033334194
38.906461734556544
40.01949352527384
41.18503965032023
38.43407987602362
40.30764361546943
41.59111150456827
41.53348712245856
41.44115228011012
41.516017869488884
41.66311970561682
41.87214625707829
42.06109531477449
39.86079939954148
40.080638283450966
40.30921873083785
40.54851392278356
40.72233192039122
43.08475147016009
42.91840870031608
42.40913698285772
41.619940020935985
40.32845965293332
38.13326045518214
35.31747770651697
32.51940945472313
29.747924450316262
26.80437718690184
23.922356584583657
21.030358394135394
18.349574630310038
-0.0
-0.0
-0.0
55.31449248832838
61.0874719210162
60.550862809788434
57.20275622934123
51.707992773783744
47.58403737490422
51.1260177190094
59.12074297328978
59.758632621634156
56.92931870377345
52.16035100063275
50.981545953308135
50.02301944701532
46.45413618509418
44.009960919215985
39.28860643942907
39.706773033334194
38.906461734556544
40.01949352527384
41.18503965032023
38.43407987602362
40.30764361546943
41.59111150456827
41.53348712245856
41.44115228011012
41.516017869488884
41.66311970561682
41.87214625707829
42.06109531477449
39.86079939954148
40.080638283450966
40.30921873083785
40.54851392278356
40.72233192039122
43.08475147016009
42.91840870031608
42.40913698285772
41.619940020935985
40.32845965293332
38.13326045518214
35.31747770651697
32.51940945472313
29.747924450316262
26.80437718690184
23.922356584583657
21.030358394135394
18.349574630310038

VECTORS Ftot float
129.88516857845738 -1.8670285902141397e-14 42.04174631589238
154.66590288644247 -4.1059750531729823e-14 92.45833859731215
156.80011099365973 -6.036336072556242e-14 135.9262044352371
1466.1959745138433 -3.5459569285364286e-15 7.9847851510142585
1494.6740624450545 1.1640544011557529e-13 -262.1217483642022
1579.4807372903852 1.447494378052668e-13 -325.94675708094474
1640.4432931996246 1.3550337542352888e-13 -305.1264755324251
1612.054594701762 1.3037192424347497e-13 -293.5714747212447
1595.3566595623759 1.3606784794339516e-13 -306.39755464749044
1820.5384925341075 1.823150913828264e-13 -410.5370888078582
2239.5561623702997 2.4357186315083454e-13 -548.4750760620188
2409.368883463405 2.673813704190732e-13 -602.0893200925765
2428.6954615123914 2.8083832470768544e-13 -632.3916872524444
2355.455060632984 2.6726495461733687e-13 -601.8271750119166
2433.4446219214315 2.604874259937685e-13 -586.5655373201188
2510.9879785981243 2.586738501505334e-13 -582.4817275742179
2447.044792302956 2.385408187050164e-13 -537.1461711162833
2421.7558625049223 2.279725513711089e-13 -513.3485487028146
2254.788494675478 1.9977473338234575e-13 -449.8527074093871
2366.8275051808414 2.0451624978752073e-13 -460.5296531671456
2402.9974324914992 2.03113761544708e-13 -457.3715304032842
2560.3702858305605 2.0149446921382672e-13 -453.7252082343038
2718.7572642693253 2.1001513252572232e-13 -472.91203629250504
2613.3475956809048 1.9783377628163625e-13 -445.4820605716383
2818.0642590170737 2.097452916761747e-13 -472.304408717769
2987.9171537315738 2.118774236029706e-13 -477.10554299328044
3059.905972118212 2.1006666560336944e-13 -473.0280784671495
3125.8144910163005 2.095001809368642e-13 -471.75246840065745
3201.8360971972998 2.0982479146641557e-13 -472.48342633062157
3281.1454269934893 2.1067725968153698e-13 -474.4030140986045
3363.191017985058 2.121378859605297e-13 -477.6920520815041
3441.632345097361 2.1347913558165683e-13 -480.7122777284635
3318.4799749645704 2.0427721134787836e-13 -459.9913864532954
3392.2249706952502 2.0532940713617477e-13 -462.3607207333416
3464.450267103911 2.0742530481563676e-13 -467.0802627374575
3535.3366646706195 2.1044429929210126e-13 -473.878433937077
3599.225569372404 2.1107199978064285e-13 -475.2918897802251
3856.358375736519 2.2455519016924823e-13 -505.6533353851695
3887.152239284018 2.2424750898213662e-13 -504.960498945357
3883.5452232740836 2.2201503614957056e-13 -499.9334170369275
3849.901714949935 2.1976606706288394e-13 -494.8691888665427
3765.942647929031 2.129285036330661e-13 -479.4723648092177
3592.8219583511263 1.991797786410561e-13 -448.5129884337999
3354.1827461443163 1.844084010263797e-13 -415.25080307319706
3110.8945507641292 1.6987698058785424e-13 -382.52895323714336
2863.891468428966 1.5714528505434441e-13 -353.85972360688856
2595.669969002675 1.4155716443992436e-13 -318.75839651163426
2328.654877062652 1.2613573356323168e-13 -284.0324213367377
2056.2887732556023 1.1114495389275789e-13 -250.2761864677681
1801.0990533647055 9.686379682509295e-14 -218.11787964359044
129.88516857845738 -1.8670285902141397e-14 42.04174631589238
154.66590288644247 -4.1059750531729823e-14 92.45833859731215
156.80011099365973 -6.036336072556242e-14 135.9262044352371
1466.1959745138433 -3.5459569285364286e-15 7.9847851510142585
1494.6740624450545 1.1640544011557529e-13 -262.1217483642022
1579.4807372903852 1.447494378052668e-13 -325.94675708094474
1640.4432931996246 1.3550337542352888e-13 -305.1264755324251
1612.054594701762 1.3037192424347497e-13 -293.5714747212447
1595.3566595623759 1.3606784794339516e-13 -306.39755464749044
1820.5384925341075 1.823150913828264e-13 -410.5370888078582
2239.5561623702997 2.4357186315083454e-13 -548.4750760620188
2409.368883463405 2.673813704190732e-13 -602.0893200925765
2428.6954615123914 2.8083832470768544e-13 -632.3916872524444
2355.455060632984 2.6726495461733687e-13 -601.8271750119166
2433.4446219214315 2.604874259937685e-13 -586.5655373201188
2510.9879785981243 2.586738501505334e-13 -582.4817275742179
2447.044792302956 2.385408187050164e-13 -537.1461711162833
2421.7558625049223 2.279725513711089e-13 -513.3485487028146
2254.788494675478 1.9977473338234575e-13 -449.8527074093871
2366.8275051808414 2.0451624978752073e-13 -460.5296531671456
2402.9974324914992 2.03113761544708e-13 -457.3715304032842
2560.3702858305605 2.0149446921382672e-13 -453.7252082343038
2718.7572642693253 2.1001513252572232e-13 -472.91203629250504
2613.3475956809048 1.9783377628163625e-13 -445.4820605716383
2818.0642590170737 2.097452916761747e-13 -472.304408717769
2987.9171537315738 2.118774236029706e-13 -477.10554299328044
3059.905972118212 2.1006666560336944e-13 -473.0280784671495
3125.8144910163005 2.095001809368642e-13 -471.75246840065745
3201.8360971972998 2.0982479146641557e-13 -472.48342633062157
3281.1454269934893 2.1067725968153698e-13 -474.4030140986045
3363.191017985058 2.121378859605297e-13 -477.6920520815041
3441.632345097361 2.1347913558165683e-13 -480.7122777284635
3318.4799749645704 2.0427721134787836e-13 -459.9913864532954
3392.2249706952502 2.0532940713617477e-13 -462.3607207333416
3464.450267103911 2.0742530481563676e-13 -467.0802627374575
3535.3366646706195 2.1044429929210126e-13 -473.878433937077
3599.225569372404 2.1107199978064285e-13 -475.2918897802251
3856.358375736519 2.2455519016924823e-13 -505.6533353851695
3887.152239284018 2.2424750898213662e-13 -504.960498945357
3883.5452232740836 2.2201503614957056e-13 -499.9334170369275
3849.901714949935 2.1976606706288394e-13 -494.8691888665427
3765.942647929031 2.129285036330661e-13 -479.4723648092177
3592.8219583511263 1.991797786410561e-13 -448.5129884337999
3354.1827461443163 1.844084010263797e-13 -415.25080307319706
3110.8945507641292 1.6987698058785424e-13 -382.52895323714336
2863.891468428966 1.5714528505434441e-13 -353.85972360688856
2595.669969002675 1.4155716443992436e-13 -318.75839651163426
2328.654877062652 1.2613573356323168e-13 -284.0324213367377
2056.2887732556023 1.1114495389275789e-13 -250.2761864677681
1801.0990533647055 9.686379682509295e-14 -218.11787964359044

VECTORS D float
105.24625210796873 0.6398288203641863 -34.0665241478199
73.2240103750697 0.5207044080858038 -43.77286925148609
22.24842020336343 0.18091649652903957 -19.286614618823325
640.356234349221 5.729276406359761 -723.2041013503734
635.2748670991667 6.2058815196152555 -881.4562029151834
572.8922787463748 5.970591034165295 -939.6273748159551
485.89588090698084 5.295605846600529 -916.9174292384885
404.40930061596146 4.766527448243872 -860.8629892612712
352.2431028586994 4.212016945691199 -832.4117783077933
373.81467526260974 4.562270878426353 -968.7611474815018
424.20763714159204 5.309561214650926 -1193.61925652489
415.87728458998595 5.358360349918596 -1260.026958271429
389.47297628027457 5.179607048507927 -1261.8041313534036
344.32423511751654 4.735554051959662 -1185.7907794882128
320.3418578376319 4.563403861855758 -1166.7295174584867
302.0788910940373 4.46262530677288 -1158.4583298217876
268.7227842152568 4.418315599173009 -1079.4224770632368
245.93620190407668 4.112761444493318 -1031.901719468975
210.05820751215748 3.5835701827907127 -917.8126370030282
206.42530442458985 3.6012410590668886 -936.6433394186256
197.15638335070147 3.5237333762335106 -926.6688638538017
193.70780983900505 3.5512331747718546 -940.9319528097246
194.97939129973062 3.6690479112170644 -976.7145270823853
178.02490405589 3.4390947789280824 -917.8308286008029
183.10670694813487 3.6301946374279535 -969.7959091760911
182.92385473056717 3.7191464860956143 -993.5320953756573
178.25398291139643 3.712709702634422 -991.2266010621877
174.20726442637562 3.806304707740758 -990.7368375638586
171.36881687713128 3.796574083411594 -994.6105716226153
169.1452556864438 3.7934193940331187 -1000.5036946445877
167.50311727062126 3.7963673098144115 -1008.469763294473
165.9753424155907 3.795081404246574 -1015.8785199100603
155.87475278227845 3.5896746307190055 -968.8159963413221
154.77635829377508 3.5841136607706776 -975.8359985909884
154.19280298924025 3.5848751213862946 -985.1690415617724
154.10958261541398 3.605202922596016 -996.6804159257971
153.17280735055604 3.584611251445514 -1002.0439573953222
161.00228701929942 3.7651113539131726 -1064.5334678779686
159.2264145275265 3.7173445664012164 -1063.2309635788758
156.26581002654754 3.6391984418681513 -1053.0336100333102
152.87034116722708 3.5490006886008607 -1038.8748831048642
147.1576804515567 3.4039021788667334 -1007.8467554804126
137.64271700667646 3.170906063919672 -949.4193580460575
126.7665759243857 2.907801974992962 -880.1046570030277
116.17228628701906 2.653098558986961 -811.3280163813585
106.33723257493442 2.417925144297744 -746.6043440753715
95.42315152034125 2.1606213298765597 -673.1675705016316
84.80339670307245 1.9125219467333323 -600.7657867816505
74.4027438746034 1.6718172068619412 -529.0124623613743
64.71539064630785 1.4493902942404697 -461.5678030685466
105.24625210796873 0.6398288203641863 -34.0665241478199
73.2240103750697 0.5207044080858038 -43.77286925148609
22.24842020336343 0.18091649652903957 -19.286614618823325
640.356234349221 5.729276406359761 -723.2041013503734
635.2748670991667 6.2058815196152555 -881.4562029151834
572.8922787463748 5.970591034165295 -939.6273748159551
485.89588090698084 5.295605846600529 -916.9174292384885
404.40930061596146 4.766527448243872 -860.8629892612712
352.2431028586994 4.212016945691199 -832.4117783077933
373.81467526260974 4.562270878426353 -968.7611474815018
424.20763714159204 5.309561214650926 -1193.61925652489
415.87728458998595 5.358360349918596 -1260.026958271429
389.47297628027457 5.179607048507927 -1261.8041313534036
344.32423511751654 4.735554051959662 -1185.7907794882128
320.3418578376319 4.563403861855758 -1166.7295174584867
302.0788910940373 4.46262530677288 -1158.4583298217876
268.7227842152568 4.418315599173009 -1079.4224770632368
245.93620190407668 4.112761444493318 -1031.901719468975
210.05820751215748 3.5835701827907127 -917.8126370030282
206.42530442458985 3.6012410590668886 -936.6433394186256
197.15638335070147 3.5237333762335106 -926.6688638538017
193.70780983900505 3.5512331747718546 -940.9319528097246
194.97939129973062 3.6690479112170644 -976.7145270823853
178.02490405589 3.4390947789280824 -917.8308286008029
183.10670694813487 3.6301946374279535 -969.7959091760911
182.92385473056717 3.7191464860956143 -993.5320953756573
178.25398291139643 3.712709702634422 -991.2266010621877
174.20726442637562 3.806304707740758 -990.7368375638586
171.36881687713128 3.796574083411594 -994.6105716226153
169.1452556864438 3.7934193940331187 -1000.5036946445877
167.50311727062126 3.7963673098144115 -1008.469763294473
165.9753424155907 3.795081404246574 -1015.8785199100603
155.87475278227845 3.5896746307190055 -968.8159963413221
154.77635829377508 3.5841136607706776 -975.8359985909884
154.19280298924025 3.5848751213862946 -985.1690415617724
154.10958261541398 3.605202922596016 -996.6804159257971
153.17280735055604 3.584611251445514 -1002.0439573953222
161.00228701929942 3.7651113539131726 -1064.5334678779686
159.2264145275265 3.7173445664012164 -1063.2309635788758
156.26581002654754 3.6391984418681513 -1053.0336100333102
152.87034116722708 3.5490006886008607 -1038.8748831048642
147.1576804515567 3.4039021788667334 -1007.8467554804126
137.64271700667646 3.170906063919672 -949.4193580460575
126.7665759243857 2.907801974992962 -880.1046570030277
116.17228628701906 2.653098558986961 -811.3280163813585
106.33723257493442 2.417925144297744 -746.6043440753715
95.42315152034125 2.1606213298765597 -673.1675705016316
84.80339670307245 1.9125219467333323 -600.7657867816505
74.4027438746034 1.6718172068619412 -529.0124623613743
64.71539064630785 1.4493902942404697 -461.5678030685466

VECTORS L float
24.638916470488645 -0.6398288203642051 76.10827046371229
81.4418925113728 -0.5207044080858448 136.23120784879825
134.5516907902963 -0.1809164965290998 155.21281905406042
825.8397401646228 -5.729276406359765 731.1888865013879
859.3991953458877 -6.20588151961514 619.3344545509811
1006.5884585440103 -5.97059103416515 613.6806177350106
1154.547412292644 -5.2956058466003935 611.7909537060635
1207.6452940858007 -4.766527448243742 567.2915145400262
1243.1135567036765 -4.2120169456910626 526.0142236603028
1446.7238172714979 -4.562270878426171 558.2240586736435
1815.348525228708 -5.3095612146506825 645.1441804628712
1993.491598873419 -5.358360349918327 657.9376381788526