# vtk DataFile Version 4.0
[MyVLM domain - lattices] 
ASCII
DATASET UNSTRUCTURED_GRID
POINTS 152 float
0.0 -0.7836190458746063 2.184473474646695
0.0 0.28761148371910905 4.148328534942485
0.0 1.2837479922999722 6.108108592047254
0.0 2.2529280901683837 8.036021383695923
0.0 3.195582770647799 9.931818075777173
0.0 4.143121410157454 11.77736445636028
0.0 5.122357894073553 13.557179521505272
0.0 6.140086452324738 15.267340620733917
0.0 7.154387057290461 16.93205029327737
0.0 8.148300632647539 18.56109986641603
0.0 9.121985625344774 20.154397860761353
0.0 10.07578536741946 21.71174605346918
0.0 11.01005498857981 23.232939410306887
0.0 11.927666277872559 24.716319903095282
0.0 12.826715182894725 26.16298683700178
0.0 13.703031583728738 27.575347831883334
0.0 14.555995879983886 28.953760614192316
0.0 15.386621392658522 30.29764014277756
0.0 16.19563827932907 31.60656486096576
0.0 16.983046758214627 32.88053464276807
0.0 17.748847041706483 34.119549365560296
0.0 18.493039336368113 35.32360891008298
0.0 19.215623842935187 36.49271316044133
0.0 19.916600756315557 37.62686200410525
0.0 20.59597026558928 38.7260553319093
0.0 21.253732554008582 39.790293038052766
0.0 21.889887798997908 40.8195750200996
0.0 22.504436172153863 41.813901178978455
0.0 23.097377581993165 42.77327156750724
0.0 23.668708654961023 43.6976881334087
0.0 24.218428848867415 44.587151189716394
0.0 24.74653884854343 45.44166034104292
0.0 25.25303931190539 46.261215207540104
0.0 25.737930869954866 47.045815424899025
0.0 26.201214126778652 47.79546064435
0.0 26.642889659548807 48.51015053266259
0.0 27.063317850286374 49.189677023179954
0.0 27.463641692906737 49.83338020805733
0.0 27.845610364967705 50.44025019916087
0.0 28.210136404625967 51.009760142340184
0.0 28.556697695953737 51.5422114813667
0.0 28.885565750691942 52.03744745886372
0.0 29.20703097829485 52.48952690416274
0.0 29.520862776880875 52.89858295532217
0.0 29.81929410212642 53.26909991747306
0.0 30.097028226739628 53.604135857543184
0.0 30.35271446740274 53.90447059290962
0.0 30.587618484907427 54.16937339397361
0.0 30.800608765659703 54.399497540413236
0.0 30.989455885950047 54.59613019060733
0.0 31.15222989689553 54.76038560106297
-0.8152906147965383 2.201378631688083 0.461084261975471
-0.840508508576773 3.3646399869329975 2.371805300307798
-0.8937965186568912 4.55680004105648 4.218411110626032
-0.9506477078523391 5.735572572350711 6.025315654416194
-1.020681877210228 6.900084894465805 7.793022777377309
-1.048954977401727 8.023546884847406 9.536999763977757
-0.9930987765444168 9.087093252342918 11.268138495142832
-0.9074282632528687 10.073944406058107 12.99612667219221
-0.838943182597301 11.019431704167427 14.700565725973036
-0.780438039247949 11.940381067170852 16.371741206755285
-0.7250391551380654 12.840249779063369 18.00765705069379
-0.6716005320170477 13.718776340736817 19.60846423436903
-0.6190912009117757 14.575331155312055 21.174526255708674
-0.5668551203523576 15.406857466995918 22.707607933492742
-0.5160737545272154 16.21515884152901 24.206667978555398
-0.46824322159258064 17.00456623433085 25.66920591261933
-0.4244759216876314 17.77569893049533 27.09486419126888
-0.3845740908079094 18.52754944520797 28.484224486132895
-0.34771109645469384 19.25946674897473 29.837662669265004
-0.3130568676883623 19.971558417604918 31.155116631742743
-0.28047282351476527 20.66386039257295 32.43656562274619
-0.25028172479700606 21.336374983012057 33.682008309096645
-0.22269967179244904 21.98911881938553 34.89143508919166
-0.19756508903558764 22.62213355983181 36.06482191169378
-0.17527331282135344 23.235428757867595 37.20216326087757
-0.15618952887338375 23.82902132674745 38.30344937187096
-0.13996799493970205 24.402960601017952 39.3686517613602
-0.12575834684109707 24.957306349759516 40.39773592165063
-0.11252036551224441 25.492111356519388 41.39067137814703
-0.10008619772204906 26.007384139134754 42.34745321307381
-0.0884564051429673 26.503128539582242 43.26807920826473
-0.07764813403823374 26.97934903879509 44.15254677665178
-0.06766754153321136 27.436050618210402 45.00085304220091
-0.05846867713071129 27.873239395382015 45.81299447294075
-0.05000632361003568 28.290920950374378 46.588967847219614
-0.0422455662862189 28.689100200895055 47.32877032579769
-0.03513713503927796 29.067516960237725 48.03255212753994
-0.028610254341892315 29.425331232188775 48.70079822448637
-0.02259956362415257 29.759942526756685 49.33501001023365
-0.017476911002663225 30.07000450277485 49.935964795216734
-0.013355710955940858 30.357952089230576 50.50225677252933
-0.010110762084772787 30.623717478282284 51.033925091047024
-0.007505342360435571 30.854731163484708 51.53822675869958
-0.005475063785670375 31.050882370054854 52.01522573133777
-0.003985447751437076 31.22163665453401 52.45945706734447
-0.0029419419370193198 31.373218007989674 52.86732734380142
-0.00222865752783443 31.506620404211752 53.238262689673434
-0.0017402354220029323 31.61928777525461 53.573738851476996
-0.0014049497009942318 31.712078278571276 53.873260371775594
-0.0011720086804816246 31.78745959591144 54.1354025338468
-0.0010052173229800666 31.847567896577775 54.358932019768666
-0.6209246712649916 2.0252560367134684 1.8539338370548732
-0.6503643852126241 3.1669599449984394 3.7533857949739025
-0.6916665849409614 4.301724240336241 5.609413783858732
-0.7392485943984627 5.419435407658217 7.4278568443566995
-0.7761138204794831 6.513699939843112 9.212406269525331
-0.765770157729804 7.574674964475248 10.968744844403416
-0.7126976399239822 8.593194665200171 12.702164455530538
-0.6548892921938138 9.571825230036476 14.411183513563378
-0.6072679581919687 10.522765750494104 16.088758869734793
-0.5645539478947554 11.451522349586872 17.731711562440577
-0.5237398826831674 12.359356169020598 19.339313471177373
-0.4840093998483088 13.246020355518235 20.911707116751145
-0.44472987047405005 14.110535891672036 22.4494577351258
-0.40609832807983987 14.952553798292762 23.952766809530186
-0.3691188660449235 15.77361524927538 25.42074454280116
-0.33476967873007946 16.574977869773896 26.852664844717534
-0.3033937546858278 17.35654529996904 28.248583348646903
-0.27460694522347623 18.11791353181696 29.60873330874213
-0.24778798655364606 18.858970067160328 30.933179675844634
-0.22257363420117282 19.57976877880684 32.22189134647439
-0.19903295561691423 20.280324063103702 33.47486000889647
-0.17736802372104568 20.960643073312006 34.692081533173656
-0.15759928531051376 21.620747717112845 35.87354327090036
-0.1398144006963529 22.26065724687538 37.01923410671608
-0.12429856563552642 22.880381634180374 38.12914828352595
-0.11105907142990716 23.479945767037837 39.20327143223073
-0.09964737816779967 24.05939060293552 40.24157990601381
-0.08935451713250306 24.618758359122968 41.24404933073483
-0.07972746121286005 25.158071590489573 42.210666684322305
-0.07070347607438114 25.67733444249743 43.141429573392585
-0.062289202192950394 26.176550054067857 44.03633618568861
-0.054493378339291916 26.655722141433163 44.895384375642635
-0.047301081998971 27.11485502782969 45.71857164723301
-0.040678125277780114 27.553953254250334 46.50589537871627
-0.03459445871109547 27.973020905016963 47.25735321200806
-0.029018512997061326 28.37200737415419 47.97297436448193
-0.023905271017938854 28.750688015059076 48.65288853591452
-0.01920368173726683 29.108134166838852 49.29763188892229
-0.015028677985055923 29.443198482273534 49.90786684473153
-0.01156223323447653 29.756337984574497 50.483329540868134
-0.008799927390267616 30.04840901864803 51.023525566369926
-0.006606039166953134 30.31599283178597 51.53042873903328
-0.00486765230478973 30.555591794474303 52.00605841619962
-0.003547691826415294 30.76971424409674 52.44896640860524
-0.0025977711331711486 30.962610789554642 52.85669862605674
-0.001938974799320156 31.13615724134333 53.228172068859664
-0.0014883348561890108 31.289757186338655 53.56373107629181
-0.0011794444211239365 31.4227906765056 53.86373357551808
-0.0009663593930534462 31.53608478438224 54.127702055985964
-0.0008164597512981341 31.630846032539154 54.35493993156457

CELLS 100 350
4 0 51 52 1
4 1 52 53 2
4 2 53 54 3
4 3 54 55 4
4 4 55 56 5
4 5 56 57 6
4 6 57 58 7
4 7 58 59 8
4 8 59 60 9
4 9 60 61 10
4 10 61 62 11
4 11 62 63 12
4 12 63 64 13
4 13 64 65 14
4 14 65 66 15
4 15 66 67 16
4 16 67 68 17
4 17 68 69 18
4 18 69 70 19
4 19 70 71 20
4 20 71 72 21
4 21 72 73 22
4 22 73 74 23
4 23 74 75 24
4 24 75 76 25
4 25 76 77 26
4 26 77 78 27
4 27 78 79 28
4 28 79 80 29
4 29 80 81 30
4 30 81 82 31
4 31 82 83 32
4 32 83 84 33
4 33 84 85 34
4 34 85 86 35
4 35 86 87 36
4 36 87 88 37
4 37 88 89 38
4 38 89 90 39
4 39 90 91 40
4 40 91 92 41
4 41 92 93 42
4 42 93 94 43
4 43 94 95 44
4 44 95 96 45
4 45 96 97 46
4 46 97 98 47
4 47 98 99 48
4 48 99 100 49
4 49 100 101 50
1 102
1 103
1 104
1 105
1 106
1 107
1 108
1 109
1 110
1 111
1 112
1 113
1 114
1 115
1 116
1 117
1 118
1 119
1 120
1 121
1 122
1 123
1 124
1 125
1 126
1 127
1 128
1 129
1 130
1 131
1 132
1 133
1 134
1 135
1 136
1 137
1 138
1 139
1 140
1 141
1 142
1 143
1 144
1 145
1 146
1 147
1 148
1 149
1 150
1 151

CELL_TYPES 100
9
9
9
9
9
9
9
9
9
9
9
9
9
9
9
9
9
9
9
9
9
9
9
9
9
9
9
9
9
9
9
9
9
9
9
9
9
9
9
9
9
9
9
9
9
9
9
9
9
9
1
1
1
1
1
1
1
1
1
1
1
1
1
1
1
1
1
1
1
1
1
1
1
1
1
1
1
1
1
1
1
1
1
1
1
1
1
1
1
1
1
1
1
1
1
1
1
1
1
1

CELL_DATA 100

VECTORS S float
-0.0 0.0 0.0
-1.411578955375418e-17 4.5494937163295176e-15 5.457930523898987e-15
2.023668420105761e-17 -4.549695376331662e-15 -5.457743159341928e-15
2.0369392707200178e-17 9.050637277502361e-15 1.0956000259926267e-14
-1.7176141185516056e-16 -3.616194126482113e-14 -4.385725447132194e-14
-1.8552763772137504e-16 -3.616736910238363e-14 -4.3852722372651524e-14
-1.9561638414686142e-16 -3.6170898379846315e-14 -4.384976752971843e-14
3.8902356772710507e-16 7.23508636047193e-14 8.769206501990994e-14
0.0 0.0 0.0
-3.4584500513603635e-16 -7.233646637563343e-14 -8.770412244963366e-14
-3.223335007468532e-16 -7.232901554625818e-14 -8.771035675656835e-14
0.0 0.0 0.0
2.852015674807929e-16 7.230728558728537e-14 8.772840008917133e-14
2.6239828433952093e-16 7.232277467924396e-14 8.771570259068066e-14
-5.072135951831801e-16 -1.4459805569051304e-13 -1.7547060525756548e-13
2.478769979757404e-16 7.227466768877224e-14 8.775538751901486e-14
-4.834839551107316e-16 -1.445009717724148e-13 -1.7555062997510763e-13
0.0 0.0 0.0
2.3292611051577307e-16 7.220229025578171e-14 8.781498789152081e-14
2.2948844619756505e-16 7.217872051137557e-14 8.783437090077467e-14
-2.2374281307774703e-16 -7.215612856400548e-14 -8.785294600040094e-14
0.0 0.0 0.0
0.0 0.0 0.0
2.2648598233625046e-16 7.204964206587699e-14 8.79402914108196e-14
0.0 0.0 0.0
0.0 0.0 0.0
2.2239729491255084e-16 7.19856540967497e-14 8.7992688416978e-14
0.0 0.0 0.0
-2.1951899847009408e-16 -7.195072591250243e-14 -8.8021258359639e-14
4.3451616308332325e-16 1.4387099693621683e-13 1.7606741811262904e-13
-2.196354185373832e-16 -7.190000281820651e-14 -8.806269599646537e-14
0.0 0.0 0.0
0.0 0.0 0.0
4.3956423163164407e-16 1.4373275602097546e-13 1.7618027674647705e-13
2.1863650451148874e-16 7.186247079187616e-14 8.809332869693765e-14
0.0 0.0 0.0
1.0789775920966014e-16 3.593265606946788e-14 4.404550889310005e-14
-3.2022870408023134e-16 -1.0780743466047633e-13 -1.321288117541802e-13
-2.1002099953843184e-16 -7.188074605514039e-14 -8.807843838804835e-14
0.0 0.0 0.0
0.0 0.0 0.0
-1.0107351919381352e-16 -3.595954868826372e-14 -4.40235722092764e-14
9.890925644235158e-17 3.5967022665625525e-14 4.401747113720453e-14
0.0 0.0 0.0
4.724557875183606e-17 1.7991084888066306e-14 2.200254983750739e-14
9.013187479919302e-17 3.598976406944543e-14 4.3998898011837355e-14
-1.3025772687439956e-16 -5.399531986559029e-14 -6.598962470005435e-14
0.0 0.0 0.0
-9.45869615776837e-18 -4.501255213862474e-15 -5.497791371713521e-15
0.0 0.0 0.0
-0.0 0.0 0.0
-1.411578955375418e-17 4.5494937163295176e-15 5.457930523898987e-15
2.023668420105761e-17 -4.549695376331662e-15 -5.457743159341928e-15
2.0369392707200178e-17 9.050637277502361e-15 1.0956000259926267e-14
-1.7176141185516056e-16 -3.616194126482113e-14 -4.385725447132194e-14
-1.8552763772137504e-16 -3.616736910238363e-14 -4.3852722372651524e-14
-1.9561638414686142e-16 -3.6170898379846315e-14 -4.384976752971843e-14
3.8902356772710507e-16 7.23508636047193e-14 8.769206501990994e-14
0.0 0.0 0.0
-3.4584500513603635e-16 -7.233646637563343e-14 -8.770412244963366e-14
-3.223335007468532e-16 -7.232901554625818e-14 -8.771035675656835e-14
0.0 0.0 0.0
2.852015674807929e-16 7.230728558728537e-14 8.772840008917133e-14
2.6239828433952093e-16 7.232277467924396e-14 8.771570259068066e-14
-5.072135951831801e-16 -1.4459805569051304e-13 -1.7547060525756548e-13
2.478769979757404e-16 7.227466768877224e-14 8.775538751901486e-14
-4.834839551107316e-16 -1.445009717724148e-13 -1.7555062997510763e-13
0.0 0.0 0.0
2.3292611051577307e-16 7.220229025578171e-14 8.781498789152081e-14
2.2948844619756505e-16 7.217872051137557e-14 8.783437090077467e-14
-2.2374281307774703e-16 -7.215612856400548e-14 -8.785294600040094e-14
0.0 0.0 0.0
0.0 0.0 0.0
2.2648598233625046e-16 7.204964206587699e-14 8.79402914108196e-14
0.0 0.0 0.0
0.0 0.0 0.0
2.2239729491255084e-16 7.19856540967497e-14 8.7992688416978e-14
0.0 0.0 0.0
-2.1951899847009408e-16 -7.195072591250243e-14 -8.8021258359639e-14
4.3451616308332325e-16 1.4387099693621683e-13 1.7606741811262904e-13
-2.196354185373832e-16 -7.190000281820651e-14 -8.806269599646537e-14
0.0 0.0 0.0
0.0 0.0 0.0
4.3956423163164407e-16 1.4373275602097546e-13 1.7618027674647705e-13
2.1863650451148874e-16 7.186247079187616e-14 8.809332869693765e-14
0.0 0.0 0.0
1.0789775920966014e-16 3.593265606946788e-14 4.404550889310005e-14
-3.2022870408023134e-16 -1.0780743466047633e-13 -1.321288117541802e-13
-2.1002099953843184e-16 -7.188074605514039e-14 -8.807843838804835e-14
0.0 0.0 0.0
0.0 0.0 0.0
-1.0107351919381352e-16 -3.595954868826372e-14 -4.40235722092764e-14
9.890925644235158e-17 3.5967022665625525e-14 4.401747113720453e-14
0.0 0.0 0.0
4.724557875183606e-17 1.7991084888066306e-14 2.200254983750739e-14
9.013187479919302e-17 3.598976406944543e-14 4.3998898011837355e-14
-1.3025772687439956e-16 -5.399531986559029e-14 -6.598962470005435e-14
0.0 0.0 0.0
-9.45869615776837e-18 -4.501255213862474e-15 -5.497791371713521e-15
0.0 0.0 0.0

SCALARS Gamma float
LOOKUP_TABLE default
0.0
0.0
0.0
43.72055457858115
76.8882024173529
89.19261720033705
95.00503885809161
97.93101357850699
98.89804613526353
98.57555559031054
97.03158666332881
97.87381626240175
98.49203751449046
98.66892218155182
99.75673128170119
101.46465763317684
102.33934212078341
103.52173563321614
104.17476426154265
104.42269724385116
105.25416516831538
107.31447456986216
104.31410725699213
101.18470731397174
99.26963297652085
97.52363302443072
97.60556520819395
97.14398305552206
96.27995591147517
95.15529662150952
95.45130021226515
94.44002639735852
91.4175167664781
89.13951451295027
88.0022821964162
85.63158332972844
82.27670192737598
78.86309775963606
74.72965131168674
69.94987894492236
64.70773775059844
58.63624952590762
50.751108249291114
43.183083263264265
36.5167534314369
29.49633065876624
23.054346414989897
16.899934650869582
11.198480476665196
5.532319116648019
0.0
0.0
0.0
43.72055457858115
76.8882024173529
89.19261720033705
95.00503885809161
97.93101357850699
98.89804613526353
98.57555559031054
97.03158666332881
97.87381626240175
98.49203751449046
98.66892218155182
99.75673128170119
101.46465763317684
102.33934212078341
103.52173563321614
104.17476426154265
104.42269724385116
105.25416516831538
107.31447456986216
104.31410725699213
101.18470731397174
99.26963297652085
97.52363302443072
97.60556520819395
97.14398305552206
96.27995591147517
95.15529662150952
95.45130021226515
94.44002639735852
91.4175167664781
89.13951451295027
88.0022821964162
85.63158332972844
82.27670192737598
78.86309775963606
74.72965131168674
69.94987894492236
64.70773775059844
58.63624952590762
50.751108249291114
43.183083263264265
36.5167534314369
29.49633065876624
23.054346414989897
16.899934650869582
11.198480476665196
5.532319116648019

VECTORS Ftot float
114.76635927471453 -28.968396867653706 24.30737112744527
137.28868551629898 -64.05608238890792 53.74943510719403
139.91297331809486 -94.71097280310062 79.47194234752303
936.5444509131942 133.83641428702848 -112.30208586633512
1611.0761207655596 433.28004761245614 -363.5651281480858
2030.1942431253015 598.4060317238244 -502.12228051372017
2362.418979579638 741.2721270289538 -622.0011683919923
2674.161050003333 844.7408172459415 -708.8217081914627
2972.0480023200184 890.119698149539 -746.899110420909
3246.722480559497 893.977351972889 -750.1360663212917
3471.8720609363863 882.0758935216446 -740.1495569243808
3776.187886440152 887.8803935439342 -745.0201107522525
4070.672991651044 889.2293321247121 -746.152004617864
4339.305369478704 889.9418202515956 -746.74985314235
4649.244846852071 893.491435289618 -749.7283338115761
4986.9442597409925 908.3681212970341 -762.211355553539
5285.149335971254 911.4633687394947 -764.8085765409102
5596.929287406013 919.9020905279808 -771.8895048812365
5878.036615429288 923.0832674243578 -774.5588292416962
6131.406928675461 923.8506168464797 -775.2027118587829
6417.377284847107 919.6769921930301 -771.7006249514008
6773.790546760424 941.8804865822145 -790.3315689042121
6802.024944897918 920.1005549783549 -772.0560363283474
6805.214429955069 885.2753639247264 -742.8342313595693
6872.916151378651 863.3766059232806 -724.4589915973157
6934.528954979693 862.8595888874041 -724.0251627931992
7121.604731058233 856.5950327397235 -718.7685760401911
7260.6601726837225 852.4817540602362 -715.3171254173039
7360.755193963082 846.922249175478 -710.6521469189751
7432.292555204896 835.1074469948304 -700.7383507667612
7607.071674260062 838.1684933129692 -703.306873603328
7667.807460103381 842.6645308644601 -707.0794970545433
7555.220186302967 819.4693274540278 -687.6164104277676
7490.74225833871 803.0787413281041 -673.8630756547255
7511.477832080565 798.5394380489378 -670.0541479473753
7417.000162617959 781.8878945662384 -656.0818439525099
7224.126368321983 759.7780097988971 -637.5294477988616
7013.607806307794 733.5412724394646 -615.5142111572667
6726.322128195756 697.3253151996387 -585.1254147945966
6365.953129604866 659.5726532773832 -553.4471700996716
5950.067316824479 612.8936426287079 -514.2788294806478
5442.913325673359 561.0098522048381 -470.74316007189935
4752.917181832926 485.6376471051701 -407.4983705717498
4077.207888209495 412.7268379711637 -346.3189375185681
3473.4827245809447 348.23957054677993 -292.2076952071371
2825.832355872336 273.95819208736066 -229.87821793849847
2222.5762892842035 210.31401701081333 -176.47441410518545
1638.7601555758586 149.2960014312276 -125.2742197371856
1092.1265626560028 92.28282658662565 -77.43448575283436
544.0620639777802 32.74618168235143 -27.477308972125254
114.76635927471453 -28.968396867653706 24.30737112744527
137.28868551629898 -64.05608238890792 53.74943510719403
139.91297331809486 -94.71097280310062 79.47194234752303
936.5444509131942 133.83641428702848 -112.30208586633512
1611.0761207655596 433.28004761245614 -363.5651281480858
2030.1942431253015 598.4060317238244 -502.12228051372017
2362.418979579638 741.2721270289538 -622.0011683919923
2674.161050003333 844.7408172459415 -708.8217081914627
2972.0480023200184 890.119698149539 -746.899110420909
3246.722480559497 893.977351972889 -750.1360663212917
3471.8720609363863 882.0758935216446 -740.1495569243808
3776.187886440152 887.8803935439342 -745.0201107522525
4070.672991651044 889.2293321247121 -746.152004617864
4339.305369478704 889.9418202515956 -746.74985314235
4649.244846852071 893.491435289618 -749.7283338115761
4986.9442597409925 908.3681212970341 -762.211355553539
5285.149335971254 911.4633687394947 -764.8085765409102
5596.929287406013 919.9020905279808 -771.8895048812365
5878.036615429288 923.0832674243578 -774.5588292416962
6131.406928675461 923.8506168464797 -775.2027118587829
6417.377284847107 919.6769921930301 -771.7006249514008
6773.790546760424 941.8804865822145 -790.3315689042121
6802.024944897918 920.1005549783549 -772.0560363283474
6805.214429955069 885.2753639247264 -742.8342313595693
6872.916151378651 863.3766059232806 -724.4589915973157
6934.528954979693 862.8595888874041 -724.0251627931992
7121.604731058233 856.5950327397235 -718.7685760401911
7260.6601726837225 852.4817540602362 -715.3171254173039
7360.755193963082 846.922249175478 -710.6521469189751
7432.292555204896 835.1074469948304 -700.7383507667612
7607.071674260062 838.1684933129692 -703.306873603328
7667.807460103381 842.6645308644601 -707.0794970545433
7555.220186302967 819.4693274540278 -687.6164104277676
7490.74225833871 803.0787413281041 -673.8630756547255
7511.477832080565 798.5394380489378 -670.0541479473753
7417.000162617959 781.8878945662384 -656.0818439525099
7224.126368321983 759.7780097988971 -637.5294477988616
7013.607806307794 733.5412724394646 -615.5142111572667
6726.322128195756 697.3253151996387 -585.1254147945966
6365.953129604866 659.5726532773832 -553.4471700996716
5950.067316824479 612.8936426287079 -514.2788294806478
5442.913325673359 561.0098522048381 -470.74316007189935
4752.917181832926 485.6376471051701 -407.4983705717498
4077.207888209495 412.7268379711637 -346.3189375185681
3473.4827245809447 348.23957054677993 -292.2076952071371
2825.832355872336 273.95819208736066 -229.87821793849847
2222.5762892842035 210.31401701081333 -176.47441410518545
1638.7601555758586 149.2960014312276 -125.2742197371856
1092.1265626560028 92.28282658662565 -77.43448575283436
544.0620639777802 32.74618168235143 -27.477308972125254

VECTORS D float
92.28610729249799 23.427286744503935 -19.38737204408034
62.989658588680385 29.550555279594978 -24.46914928819209
17.21582707226622 11.716905444343757 -9.703637148749644
488.38403629811825 433.81997761044835 -359.2821516910166
801.4224585027373 875.3409156909964 -724.8898868866919
875.5340136868633 1131.6427087288018 -937.0222205758873
893.5265499248543 1330.6151855312219 -1101.5870279957192
880.9914933682452 1482.0478178977503 -1226.6807259910713
839.4953539400994 1571.4433106548518 -1300.3104818719523
781.3832823461656 1610.1274063869837 -1331.079557462487
720.7029083329112 1616.5402563132657 -1335.7039733247057
682.4263461930573 1652.984953643767 -1365.1438244221415
646.1365370193826 1678.9857990493656 -1385.9500993798645
608.4621191581192 1693.1486987281367 -1397.844030559584
580.9086044954473 1718.1040655622644 -1417.49754456554
561.2400549361442 1756.6458019667816 -1448.3453800081186
538.0890617496312 1775.2510535818174 -1462.7441658669275
519.5876319760137 1800.2494057193596 -1482.4084082060895
500.427224025619 1814.609198884257 -1493.3157288313334
481.7392803047669 1822.3009195250286 -1498.7515821755394
465.19984999305785 1830.262080682526 -1504.4311789160733
459.19038712957644 1873.8737615112095 -1539.4218507574917
431.67289288242256 1827.793154445968 -1499.5142597193162
405.1264074900518 1769.7479866488488 -1451.001155330803
385.6696904032308 1734.624848953924 -1421.4063884053623
372.39428210299235 1721.147306338374 -1409.6360570329823
362.63516902323727 1718.9509048116647 -1407.1675334766503
353.2692082076536 1713.943570385933 -1402.4510028878315
343.9245418867121 1704.172425005095 -1393.8898774756583
334.0186738579626 1686.4801370073942 -1378.9076805888026
330.56842230449377 1697.230888975062 -1386.5520337821945
326.4923587673147 1698.4941981001166 -1387.1024768202046
314.7554845648737 1654.8781693962878 -1351.1215639022062
306.6212316758247 1625.366467572751 -1326.7840530798042
303.52903923848066 1618.6768391598262 -1321.195161147455
296.6791948682795 1588.689305272466 -1296.7024550924473
287.53491684265083 1543.6829130354936 -1260.0524539820865
277.8249549938285 1493.566070488485 -1219.3138797034069
265.10096378895037 1425.8033749747499 -1164.2291685365547
250.84851653422493 1348.9290323097923 -1101.7375424338488
233.9432688175497 1257.351168535106 -1027.2433039011878
214.25183640914904 1150.7038955754324 -940.4154608129561
186.47307206729397 1000.7730824010677 -818.158588404971
159.37554343713072 854.7700597129292 -699.035451877696
135.23779436749578 724.9114192135523 -593.037278116756
108.34075894838183 580.4975134471082 -475.05129564742697
84.27678196732515 451.44229708458835 -369.55429046358034
61.07404341541809 327.11116621322043 -267.85346331160054
39.36429545795731 210.83054305398238 -172.6828742461904
17.162993029651027 91.92872586051611 -75.31251119178934
92.28610729249799 23.427286744503935 -19.38737204408034
62.989658588680385 29.550555279594978 -24.46914928819209
17.21582707226622 11.716905444343757 -9.703637148749644
488.38403629811825 433.81997761044835 -359.2821516910166
801.4224585027373 875.3409156909964 -724.8898868866919
875.5340136868633 1131.6427087288018 -937.0222205758873
893.5265499248543 1330.6151855312219 -1101.5870279957192
880.9914933682452 1482.0478178977503 -1226.6807259910713
839.4953539400994 1571.4433106548518 -1300.3104818719523
781.3832823461656 1610.1274063869837 -1331.079557462487
720.7029083329112 1616.5402563132657 -1335.7039733247057
682.4263461930573 1652.984953643767 -1365.1438244221415
646.1365370193826 1678.9857990493656 -1385.9500993798645
608.4621191581192 1693.1486987281367 -1397.844030559584
580.9086044954473 1718.1040655622644 -1417.49754456554
561.2400549361442 1756.6458019667816 -1448.3453800081186
538.0890617496312 1775.2510535818174 -1462.7441658669275
519.5876319760137 1800.2494057193596 -1482.4084082060895
500.427224025619 1814.609198884257 -1493.3157288313334
481.7392803047669 1822.3009195250286 -1498.7515821755394
465.19984999305785 1830.262080682526 -1504.4311789160733
459.19038712957644 1873.8737615112095 -1539.4218507574917
431.67289288242256 1827.793154445968 -1499.5142597193162
405.1264074900518 1769.7479866488488 -1451.001155330803
385.6696904032308 1734.624848953924 -1421.4063884053623
372.39428210299235 1721.147306338374 -1409.6360570329823
362.63516902323727 1718.9509048116647 -1407.1675334766503
353.2692082076536 1713.943570385933 -1402.4510028878315
343.9245418867121 1704.172425005095 -1393.8898774756583
334.0186738579626 1686.4801370073942 -1378.9076805888026
330.56842230449377 1697.230888975062 -1386.5520337821945
326.4923587673147 1698.4941981001166 -1387.1024768202046
314.7554845648737 1654.8781693962878 -1351.1215639022062
306.6212316758247 1625.366467572751 -1326.7840530798042
303.52903923848066 1618.6768391598262 -1321.195161147455
296.6791948682795 1588.689305272466 -1296.7024550924473
287.53491684265083 1543.6829130354936 -1260.0524539820865
277.8249549938285 1493.566070488485 -1219.3138797034069
265.10096378895037 1425.8033749747499 -1164.2291685365547
250.84851653422493 1348.9290323097923 -1101.7375424338488
233.9432688175497 1257.351168535106 -1027.2433039011878
214.25183640914904 1150.7038955754324 -940.4154608129561
186.47307206729397 1000.7730824010677 -818.158588404971
159.37554343713072 854.7700597129292 -699.035451877696
135.23779436749578 724.9114192135523 -593.037278116756
108.34075894838183 580.4975134471082 -475.05129564742697
84.27678196732515 451.44229708458835 -369.55429046358034
61.07404341541809 327.11116621322043 -267.85346331160054
39.36429545795731 210.83054305398238 -172.6828742461904
17.162993029651027 91.92872586051611 -75.31251119178934

VECTORS L float
22.48025198221657 -52.39568361215762 43.6947431715256
74.29902692761864 -93.60663766850291 78.21858439538615
122.69714624582869 -106.42787824744441 89.17557949627272
448.16041461507604 -299.98356332341984 246.98006582468156
809.6536622628223 -442.06086807854047 361.3247587386062
1154.6602294384384 -533.2366770049775 434.8999400621672
1468.8924296547832 -589.3430585022681 479.5858596037269
1793.1695566350884 -637.307000651809 517.8590177996085
2132.55264837992 -681.3236125053132 553.4113714510435
2465.3391982133317 -716.1500544140945 580.9434911411951
2751.1691526034756 -734.4643627916207 595.5544164003243
3093.7615402470947 -765.1045600998326 620.123713669889
3424.5364546316614 -789.7564669246533 639.7980947620006
3730.8432503205845 -803.2068784765412 651.094177417234
4068.336242356624 -824.6126302726464 667.7692107539638
4425.704204804848 -848.2776806697476 686.1340244545794
4747.060274221624 -863.7876848423231 697.9355893260175
5077.34165543 -880.3473151913793 710.5189033248535
5377.60939140367 -891.5259314598993 718.7568995896374
5649.667648370695 -898.4503026785493 723.5488703167572
5952.17743485405 -910.5850884894962 732.7305539646728
6314.600159630849 -931.9932749289951 749.0902818532799
6370.352052015496 -907.6925994676127 727.4582233909688
6400.088022465019 -884.4726227241223 708.1669239712335
6487.246460975421 -871.2482430306433 696.9473968080465
6562.134672876701 -858.28771745097 685.6108942397832
6758.969562034996 -862.3558720719419 688.3989574364598
6907.39096447607 -861.4618163256971 687.1338774705278
7016.830652076371 -857.2501758296173 683.2377305566835
7098.273881346935 -851.3726900125638 678.1693298220415
7276.503251955565 -859.0623956620931 683.2451601788667
7341.315101336067 -855.8296672356563 680.0229797656614
7240.464701738095 -835.4088419422604 663.5051534744388
7184.121026662887 -822.2877262446468 652.9209774250788
7207.948792842086 -820.1374011108886 651.1410132000799
7120.320967749679 -806.8014107062279 640.6206111399376
6936.591451479333 -783.9049032365958 622.5230061832245
6735.782851313965 -760.0247980490201 603.79966854614
6461.221164406806 -728.4780597751111 579.1037537419579
6115.104613070643 -689.356379032409 548.2903723341769
5716.124048006929 -644.4575259063982 512.9644744205402
5228.66148926421 -589.6940433705944 469.67230074105663
4566.444109765634 -515.1354352958973 410.66021783322117
3917.8323447723646 -442.0432217417657 352.7165143591282
3338.2449302134496 -376.6718486667724 300.82958290961886
2717.491596923954 -306.5393213597477 245.1730777089286
2138.299507316878 -241.12828007377487 193.0798763583948
1577.6861121604409 -177.81516478199285 142.5792435744149
1052.7622671980455 -118.54771646735682 95.24838849335607
526.8990709481292 -59.182544178164676 47.83520221966409