# vtk DataFile Version 4.0
[MyVLM domain - lattices] 
ASCII
DATASET UNSTRUCTURED_GRID
POINTS 152 float
0.0 2.2836190458746044 -0.4136027367066116
0.0 3.448752152644523 -2.3232431187921168
0.0 4.647903213636942 -4.1658126694126585
0.0 5.83293461855146 -5.969103650833321
0.0 7.003415374064622 -7.7333648971654165
0.0 8.127936103757191 -9.476730620339671
0.0 9.179682922252963 -11.214681824296058
0.0 10.151861599623299 -12.951141159512812
0.0 11.086392163488743 -14.661906086758776
0.0 12.00023369017248 -16.337185278753548
0.0 12.893227732725709 -17.977070214885675
0.0 13.765030959111131 -19.581759117999304
0.0 14.615288239620538 -21.151457022327083
0.0 15.441127785207193 -22.687821956048186
0.0 16.24445364827408 -24.18975461399521
0.0 17.029435948738765 -25.654847376311185
0.0 17.79669428699196 -27.082742516543753
0.0 18.545215342035323 -28.47402507584407
0.0 19.27426895629242 -29.829116610885457
0.0 19.983854911544153 -31.14801724765676
0.0 20.673972995399236 -32.43072710878215
0.0 21.344623001294188 -33.677246313521096
0.0 21.995804728493347 -34.887574977768395
0.0 22.627517982088857 -36.06171321405415
0.0 23.23976257300066 -37.199661131543785
0.0 23.832538317976528 -38.30141883603802
0.0 24.405845039592027 -39.3669864299729
0.0 24.959682566250542 -40.39636401241979
0.0 25.494050989435358 -41.389551530560766
0.0 26.008953682701264 -42.34654703667307
0.0 26.504391188238294 -43.26735021772317
0.0 26.98036282121534 -44.15196146909845
0.0 27.436867923716083 -45.00038117064709
0.0 27.87390586473896 -45.81260968667801
0.0 28.291476040197182 -46.58864736596089
0.0 28.68957787291867 -47.328494541726165
0.0 29.067850980882405 -48.03235928063069
0.0 29.425152370172974 -48.70090149051922
0.0 29.759732863232603 -49.33513105952561
0.0 30.07067992190459 -49.93557484180024
0.0 30.35851566211671 -50.50193139357169
0.0 30.62296857212804 -51.03435747221665
0.0 30.85374824248432 -51.538794248403626
0.0 31.05108527506712 -52.0151085840742
0.0 31.222746714200053 -52.458816174097336
0.0 31.374029287174967 -52.866858951545275
0.0 31.50628367730963 -53.23845709904088
0.0 31.61824422381237 -53.574341346182955
0.0 31.71104244027715 -53.87385841329343
0.0 31.78690775041353 -54.13572114199344
0.0 31.847770103104402 -54.35881527577594
-0.8152906147965383 -0.7013786316880837 -2.1369919493778387
-0.840508508576773 0.37172364943063574 -4.099766353426807
-0.8937965186568912 1.3748511648804354 -6.055510150833885
-0.9506477078523391 2.350290136369134 -7.9798093801130525
-1.020681877210228 3.298913250246615 -9.872160195565282
-1.048954977401727 4.247510629067239 -11.717095312722197
-0.9930987765444168 5.2149475639836 -13.503722850658503
-0.9074282632528687 6.21800364588993 -15.22235510805452
-0.838943182597301 7.221347516611778 -16.89339065406311
-0.780438039247949 8.208153255649169 -18.526543938414296
-0.7250391551380654 9.174963579007116 -20.12381102495324
-0.6716005320170477 10.122039985793775 -21.68504093709946
-0.6190912009117757 11.050012072888295 -23.2098701769253
-0.5668551203523576 11.961936596083836 -24.696533925650733
-0.5160737545272154 12.856009989639798 -26.1460734724416
-0.46824322159258064 13.727901298136656 -27.56098929557519
-0.4244759216876314 14.576991236480518 -28.94163893946719
-0.3845740908079094 15.404287289485877 -30.287440732488744
-0.34771109645469384 16.21044048664676 -31.59801880258622
-0.3130568676883623 16.995343252153862 -32.87343525868208
-0.28047282351476527 17.75895964453277 -34.11371085159626
-0.25028172479700606 18.50128735465025 -35.31884691450743
-0.22269967179244904 19.222309752043003 -36.48885304901808
-0.19756508903558764 19.921985178572605 -37.62375330646562
-0.17527331282135344 20.60030408072235 -38.723553202575516
-0.15618952887338375 21.25724954523766 -39.78826250221982
-0.13996799493970205 21.892772237571982 -40.8179096887123
-0.12575834684109707 22.50681238864489 -41.812529269747614
-0.11252036551224441 23.09931721490914 -42.77215171992097
-0.10008619772204906 23.670278198527537 -43.69678195700796
-0.0884564051429673 24.219691497523463 -44.586422199174834
-0.07764813403823374 24.747552630963675 -45.44107503348959
-0.06766754153321136 25.253856617411067 -46.260743335986284
-0.05846867713071129 25.73859733931181 -47.04543063863628
-0.05000632361003568 26.201769216601456 -47.795140163091276
-0.0422455662862189 26.643367331572428 -48.509874748591066
-0.03513713503927796 27.063651870931054 -49.18948417627071
-0.028610254341892315 27.463462830890936 -49.83348347409018
-0.02259956362415257 27.84540070144363 -50.44037124845283
-0.017476911002663225 28.210811823755712 -51.00937018892369
-0.013355710955940858 28.557261268839873 -51.541886102409066
-0.010110762084772787 28.8848168445377 -52.03787984003334
-0.007505342360435571 29.20604805729446 -52.49009439386678
-0.005475063785670375 29.521065681893138 -52.8984658080586
-0.003985447751437076 29.820404161792464 -53.268459024225926
-0.0029419419370193198 30.097839505924924 -53.603667465287025
-0.00222865752783443 30.352377740500618 -53.90466500227706
-0.0017402354220029323 30.586574933465187 -54.16997588867957
-0.0014049497009942318 30.799572927365578 -54.40009558193106
-0.0011720086804816246 30.988904040452134 -54.596448798753975
-0.0010052173229800666 31.152432103422168 -54.76026885707026
-0.6209246712649916 0.5929257814683478 -2.680890095489083
-0.6503643852126241 1.667047476151835 -4.619360662623356
-0.6916665849409614 2.7070327169921393 -6.530109364135849
-0.7392485943984627 3.7229950190579157 -8.407297159379219
-0.7761138204794831 4.721327889470422 -10.247232755295942
-0.765770157729804 5.711874200645335 -12.04423336684723
-0.7126976399239822 6.703799768937105 -13.793007107493494
-0.6548892921938138 7.694538406327147 -15.49503556657806
-0.6072679581919687 8.671891021305509 -17.157361892868067
-0.5645539478947554 9.63035149085838 -18.783165047967728
-0.5237398826831674 10.568658673279938 -20.37317315238038
-0.4840093998483088 11.487059421847233 -21.927243685300084
-0.44472987047405005 12.386532753968012 -23.44481141076292
-0.40609832807983987 13.267427648831521 -24.92567484554005
-0.3691188660449235 14.128202932542775 -26.370723786794596
-0.33476967873007946 14.967600979947784 -27.780684324747764
-0.3033937546858278 15.78571815086581 -29.15550082603195
-0.27460694522347623 16.58295845334071 -30.49494003649431
-0.24778798655364606 17.359434385529806 -31.798937005293393
-0.22257363420117282 18.11509207462541 -33.067522835909244
-0.19903295561691423 18.84991712428031 -34.300705840076795
-0.17736802372104568 19.56390238123341 -35.49849014773326
-0.15759928531051376 20.25702593780363 -36.660888407284205
-0.1398144006963529 20.9292685416218 -37.787911734090166
-0.12429856563552642 21.58062022110715 -38.87956588524598
-0.11105907142990716 22.211056088249684 -39.93586522985092
-0.09964737816779967 22.820535185561646 -40.95683341472155
-0.08935451713250306 23.409015295793495 -41.94249481399829
-0.07972746121286005 23.97647386405583 -42.89286244975258
-0.07070347607438114 24.52290674488657 -43.807938715368074
-0.062289202192950394 25.048310799364376 -44.68772542310186
-0.054493378339291916 25.55268231125695 -45.53222471852165
-0.047301081998971 26.03601695732796 -46.34143909764909
-0.040678125277780114 26.49831019658449 -47.11537118222769
-0.03459445871109547 26.939557944704685 -47.854023330341754
-0.029018512997061326 27.359810807663937 -48.557366324617774
-0.023905271017938854 27.759293432065167 -49.225270465279074
-0.01920368173726683 28.13893447880116 -49.85719958970923
-0.015028677985055923 28.4998812950919 -50.45249127668192
-0.01156223323447653 28.841676857726007 -51.011409388671275
-0.008799927390267616 29.163464821797184 -51.53444833663945
-0.006606039166953134 29.46866394001361 -52.01963430279008
-0.00486765230478973 29.76077184188928 -52.464947929781744
-0.003547691826415294 30.037280190040494 -52.87183740687815
-0.0025977711331711486 30.2939383755659 -53.24275682427268
-0.001938974799320156 30.528870587970154 -53.57878918165981
-0.0014883348561890108 30.74267324037743 -53.879590139761724
-0.0011794444211239365 30.935966280822726 -54.14480177141354
-0.0009663593930534462 31.10792263676797 -54.37490158716774
-0.0008164597512981341 31.257335785642603 -54.57058617315527

CELLS 100 350
4 0 51 52 1
4 1 52 53 2
4 2 53 54 3
4 3 54 55 4
4 4 55 56 5
4 5 56 57 6
4 6 57 58 7
4 7 58 59 8
4 8 59 60 9
4 9 60 61 10
4 10 61 62 11
4 11 62 63 12
4 12 63 64 13
4 13 64 65 14
4 14 65 66 15
4 15 66 67 16
4 16 67 68 17
4 17 68 69 18
4 18 69 70 19
4 19 70 71 20
4 20 71 72 21
4 21 72 73 22
4 22 73 74 23
4 23 74 75 24
4 24 75 76 25
4 25 76 77 26
4 26 77 78 27
4 27 78 79 28
4 28 79 80 29
4 29 80 81 30
4 30 81 82 31
4 31 82 83 32
4 32 83 84 33
4 33 84 85 34
4 34 85 86 35
4 35 86 87 36
4 36 87 88 37
4 37 88 89 38
4 38 89 90 39
4 39 90 91 40
4 40 91 92 41
4 41 92 93 42
4 42 93 94 43
4 43 94 95 44
4 44 95 96 45
4 45 96 97 46
4 46 97 98 47
4 47 98 99 48
4 48 99 100 49
4 49 100 101 50
1 102
1 103
1 104
1 105
1 106
1 107
1 108
1 109
1 110
1 111
1 112
1 113
1 114
1 115
1 116
1 117
1 118
1 119
1 120
1 121
1 122
1 123
1 124
1 125
1 126
1 127
1 128
1 129
1 130
1 131
1 132
1 133
1 134
1 135
1 136
1 137
1 138
1 139
1 140
1 141
1 142
1 143
1 144
1 145
1 146
1 147
1 148
1 149
1 150
1 151

CELL_TYPES 100
9
9
9
9
9
9
9
9
9
9
9
9
9
9
9
9
9
9
9
9
9
9
9
9
9
9
9
9
9
9
9
9
9
9
9
9
9
9
9
9
9
9
9
9
9
9
9
9
9
9
1
1
1
1
1
1
1
1
1
1
1
1
1
1
1
1
1
1
1
1
1
1
1
1
1
1
1
1
1
1
1
1
1
1
1
1
1
1
1
1
1
1
1
1
1
1
1
1
1
1

CELL_DATA 100

VECTORS S float
-0.0 0.0 -0.0
-0.0 0.0 -0.0
-5.413764587371334e-17 2.482421951178152e-15 -6.657458096432366e-15
6.353884861498922e-17 5.1166679227925155e-15 -1.3257604003709035e-14
-2.0264686600615624e-16 -1.0263024116575945e-14 2.6503260878174873e-14
0.0 0.0 -0.0
4.883375866448034e-16 2.050918956405779e-14 -5.301234702984086e-14
4.4166325487093424e-16 2.0473797857565608e-14 -5.30264349418486e-14
0.0 0.0 -0.0
3.5364207275236857e-16 2.0437983773532766e-14 -5.304090896979854e-14
-3.1885985529325105e-16 -2.0424833420653666e-14 5.304619473549913e-14
5.895249519534615e-16 4.0844560586312416e-14 -1.0609463418091951e-13
0.0 0.0 -0.0
0.0 0.0 -0.0
-2.461693293026605e-16 -2.0433178259684415e-14 5.3043368055342556e-14
0.0 0.0 -0.0
0.0 0.0 -0.0
-2.1667399341383516e-16 -2.046785890217532e-14 5.303012419489968e-14
0.0 0.0 -0.0
-2.033441307879896e-16 -2.0495213309594203e-14 5.3019610997667375e-14
-1.9576500175997482e-16 -2.050759170235845e-14 5.301485288500487e-14
1.9229778946023348e-16 2.0520473091715188e-14 -5.300988090382422e-14
0.0 0.0 -0.0
0.0 0.0 -0.0
1.8191221007417504e-16 2.056269780067973e-14 -5.299355276720944e-14
0.0 0.0 -0.0
-1.7671161446518775e-16 -2.0584310062737236e-14 5.2985179248839685e-14
3.495094605851728e-16 4.1189879955252126e-14 -1.059621097541472e-13
0.0 0.0 -0.0
-1.7073078502326365e-16 -2.061347719357643e-14 5.297385842823055e-14
0.0 0.0 -0.0
-1.6851994280326728e-16 -2.0627630925717178e-14 5.2968355753284787e-14
-1.6835993494413428e-16 -2.0641071135135973e-14 5.296312023580018e-14
1.6669013555153526e-16 2.0643183630392702e-14 -5.296230217603707e-14
-1.6578798955177731e-16 -2.064339360092793e-14 5.296222316675304e-14
1.6672042848683467e-16 2.064196837227941e-14 -5.296277573732145e-14
1.6573240761846112e-16 2.0638601764545243e-14 -5.29640908329298e-14
-1.640266606902273e-16 -2.062973388169909e-14 5.296755084964873e-14
1.62274069895399e-16 2.0623375973593893e-14 -5.2970032078178837e-14
0.0 0.0 -0.0
1.61468876357312e-16 2.0607574725775744e-14 -5.297618388963857e-14
7.996161178045692e-17 1.0300294315396183e-14 -2.648945280867792e-14
0.0 0.0 -0.0
0.0 0.0 -0.0
0.0 0.0 -0.0
-3.645323622450612e-17 -5.139075260171992e-15 1.3249036507174245e-14
-3.522789356655272e-17 -5.136435168967242e-15 1.3250063565398104e-14
-1.683640732601854e-17 -2.5669725874500997e-15 6.6255162972264174e-15
-1.5211894777246418e-17 -2.5657314232249e-15 6.626000965611036e-15
0.0 0.0 -0.0
-0.0 0.0 -0.0
-0.0 0.0 -0.0
-5.413764587371334e-17 2.482421951178152e-15 -6.657458096432366e-15
6.353884861498922e-17 5.1166679227925155e-15 -1.3257604003709035e-14
-2.0264686600615624e-16 -1.0263024116575945e-14 2.6503260878174873e-14
0.0 0.0 -0.0
4.883375866448034e-16 2.050918956405779e-14 -5.301234702984086e-14
4.4166325487093424e-16 2.0473797857565608e-14 -5.30264349418486e-14
0.0 0.0 -0.0
3.5364207275236857e-16 2.0437983773532766e-14 -5.304090896979854e-14
-3.1885985529325105e-16 -2.0424833420653666e-14 5.304619473549913e-14
5.895249519534615e-16 4.0844560586312416e-14 -1.0609463418091951e-13
0.0 0.0 -0.0
0.0 0.0 -0.0
-2.461693293026605e-16 -2.0433178259684415e-14 5.3043368055342556e-14
0.0 0.0 -0.0
0.0 0.0 -0.0
-2.1667399341383516e-16 -2.046785890217532e-14 5.303012419489968e-14
0.0 0.0 -0.0
-2.033441307879896e-16 -2.0495213309594203e-14 5.3019610997667375e-14
-1.9576500175997482e-16 -2.050759170235845e-14 5.301485288500487e-14
1.9229778946023348e-16 2.0520473091715188e-14 -5.300988090382422e-14
0.0 0.0 -0.0
0.0 0.0 -0.0
1.8191221007417504e-16 2.056269780067973e-14 -5.299355276720944e-14
0.0 0.0 -0.0
-1.7671161446518775e-16 -2.0584310062737236e-14 5.2985179248839685e-14
3.495094605851728e-16 4.1189879955252126e-14 -1.059621097541472e-13
0.0 0.0 -0.0
-1.7073078502326365e-16 -2.061347719357643e-14 5.297385842823055e-14
0.0 0.0 -0.0
-1.6851994280326728e-16 -2.0627630925717178e-14 5.2968355753284787e-14
-1.6835993494413428e-16 -2.0641071135135973e-14 5.296312023580018e-14
1.6669013555153526e-16 2.0643183630392702e-14 -5.296230217603707e-14
-1.6578798955177731e-16 -2.064339360092793e-14 5.296222316675304e-14
1.6672042848683467e-16 2.064196837227941e-14 -5.296277573732145e-14
1.6573240761846112e-16 2.0638601764545243e-14 -5.29640908329298e-14
-1.640266606902273e-16 -2.062973388169909e-14 5.296755084964873e-14
1.62274069895399e-16 2.0623375973593893e-14 -5.2970032078178837e-14
0.0 0.0 -0.0
1.61468876357312e-16 2.0607574725775744e-14 -5.297618388963857e-14
7.996161178045692e-17 1.0300294315396183e-14 -2.648945280867792e-14
0.0 0.0 -0.0
0.0 0.0 -0.0
0.0 0.0 -0.0
-3.645323622450612e-17 -5.139075260171992e-15 1.3249036507174245e-14
-3.522789356655272e-17 -5.136435168967242e-15 1.3250063565398104e-14
-1.683640732601854e-17 -2.5669725874500997e-15 6.6255162972264174e-15
-1.5211894777246418e-17 -2.5657314232249e-15 6.626000965611036e-15
0.0 0.0 -0.0

SCALARS Gamma float
LOOKUP_TABLE default
0.0
0.0
0.0
55.56385119974795
64.18255459694076
70.63852410322151
83.23766464465864
89.30915516316998
88.53091102149399
87.22151900176357
86.88133188950836
86.99682843626327
88.83243057746954
91.13305363908223
92.03869011874241
92.75510573262382
93.86368332377117
95.69432334415328
98.5208600451204
98.04733685776223
99.1892861924808
102.0797849898259
99.1596497433021
95.97997080067614
94.55016202159487
93.87842309153102
93.10150636511062
93.88871719939587
92.554583101908
91.7024965369867
92.5404122741412
91.8391653445417
88.79607545960528
88.24506654664297
86.5305359373983
83.3854152649076
80.73437702190233
77.55590987655924
73.63139595455071
69.0362245025307
63.954410551752
58.10115027830148
51.089315363968524
43.5236302930876
36.70676111126054
29.67376885743177
22.673605186206682
16.61945235532937
11.010880680666851
5.438763198958933
0.0
0.0
0.0
55.56385119974795
64.18255459694076
70.63852410322151
83.23766464465864
89.30915516316998
88.53091102149399
87.22151900176357
86.88133188950836
86.99682843626327
88.83243057746954
91.13305363908223
92.03869011874241
92.75510573262382
93.86368332377117
95.69432334415328
98.5208600451204
98.04733685776223
99.1892861924808
102.0797849898259
99.1596497433021
95.97997080067614
94.55016202159487
93.87842309153102
93.10150636511062
93.88871719939587
92.554583101908
91.7024965369867
92.5404122741412
91.8391653445417
88.79607545960528
88.24506654664297
86.5305359373983
83.3854152649076
80.73437702190233
77.55590987655924
73.63139595455071
69.0362245025307
63.954410551752
58.10115027830148
51.089315363968524
43.5236302930876
36.70676111126054
29.67376885743177
22.673605186206682
16.61945235532937
11.010880680666851
5.438763198958933

VECTORS Ftot float
95.28921035299528 32.39852167873651 11.792097525288371
116.0721116562403 73.03189704448367 26.58143667618591
120.35628368352857 109.86873637670705 39.98894971756172
1080.141020043458 -235.60648250936288 -85.75374663356878
1289.7974138133372 -423.8766841232139 -154.27849602030733
1543.279214077857 -591.7352015877264 -215.37399994544333
2009.5137142787712 -808.1551007663755 -294.1444013493643
2408.096933422594 -906.1251434995007 -329.80258075400974
2647.6561776259978 -906.7730507860226 -330.03839972086786
2863.4810210625046 -894.0343036232829 -325.4018749317876
3103.0170488002677 -885.3165570187938 -322.22887465787824
3350.9822014825263 -886.1582890690994 -322.5352400694174
3665.440010828167 -903.6295898230668 -328.8942734977742
4004.133801476942 -928.8688219014448 -338.08060271004047
4285.130059682221 -936.0200403013455 -340.68343334634113
4555.913395772831 -940.303984314938 -342.2426614525517
4844.8065978653985 -947.7723836667843 -344.9609365142367
5172.516222854252 -960.8028114711373 -349.7036243747759
5560.037585316295 -978.6273744806069 -356.1912347490253
5757.682403671113 -977.5710087302828 -355.80674905940896
6048.4123586692585 -977.1441974906056 -355.6514024725162
6444.977222388862 -1010.5185754105354 -367.7986826225219
6467.104910586609 -993.0573333951246 -361.44331027559394
6457.819515253032 -947.7998558058855 -344.9709355551412
6548.321285924253 -934.5669626311087 -340.15455632629806
6678.846327958568 -941.8668713500874 -342.8115058128666
6796.3782331898965 -924.3559197262665 -336.43804064812036
7020.567811745305 -935.5385477617152 -340.5081843938945
7079.407626376097 -924.6720875394984 -336.55311632116985
7165.603204128341 -918.0677115269741 -334.1493200367093
7377.388195889109 -932.0045176408029 -339.22190262288217
7460.587550973249 -932.1817173056482 -339.2863980264078
7342.183916342637 -906.2056383401589 -329.83187848002126
7419.403371687136 -905.0549243526496 -329.4130528404141
7389.47235775987 -896.368695963781 -326.2515242588279
7224.211658673969 -882.3005887544379 -321.13115198216127
7090.725377331739 -863.297458245964 -314.2145781192008
6899.169553108325 -837.5614869231487 -304.8474506077674
6628.857818348032 -800.4486667426892 -291.3394887524061
6284.804012496323 -754.511917864636 -274.61987950183334
5880.666518780622 -716.193856479403 -260.6732457228234
5393.626807162054 -654.5283232299145 -238.22882713985675
4784.630441345338 -577.7983487669926 -210.30140035934735
4109.198076518413 -493.06778704470355 -179.46199795977884
3492.5090324079697 -407.511450440046 -148.32203808282355
2842.572296045303 -327.0653638200491 -119.04205708994404
2185.653971444517 -245.36140230792623 -89.3042470778999
1611.303607657111 -174.4805623074791 -63.505731137951926
1073.8459588898168 -106.0286632538491 -38.59127740343577
534.3727393648527 -39.61232145086104 -14.417705918298017
95.28921035299528 32.39852167873651 11.792097525288371
116.0721116562403 73.03189704448367 26.58143667618591
120.35628368352857 109.86873637670705 39.98894971756172
1080.141020043458 -235.60648250936288 -85.75374663356878
1289.7974138133372 -423.8766841232139 -154.27849602030733
1543.279214077857 -591.7352015877264 -215.37399994544333
2009.5137142787712 -808.1551007663755 -294.1444013493643
2408.096933422594 -906.1251434995007 -329.80258075400974
2647.6561776259978 -906.7730507860226 -330.03839972086786
2863.4810210625046 -894.0343036232829 -325.4018749317876
3103.0170488002677 -885.3165570187938 -322.22887465787824
3350.9822014825263 -886.1582890690994 -322.5352400694174
3665.440010828167 -903.6295898230668 -328.8942734977742
4004.133801476942 -928.8688219014448 -338.08060271004047
4285.130059682221 -936.0200403013455 -340.68343334634113
4555.913395772831 -940.303984314938 -342.2426614525517
4844.8065978653985 -947.7723836667843 -344.9609365142367
5172.516222854252 -960.8028114711373 -349.7036243747759
5560.037585316295 -978.6273744806069 -356.1912347490253
5757.682403671113 -977.5710087302828 -355.80674905940896
6048.4123586692585 -977.1441974906056 -355.6514024725162
6444.977222388862 -1010.5185754105354 -367.7986826225219
6467.104910586609 -993.0573333951246 -361.44331027559394
6457.819515253032 -947.7998558058855 -344.9709355551412
6548.321285924253 -934.5669626311087 -340.15455632629806
6678.846327958568 -941.8668713500874 -342.8115058128666
6796.3782331898965 -924.3559197262665 -336.43804064812036
7020.567811745305 -935.5385477617152 -340.5081843938945
7079.407626376097 -924.6720875394984 -336.55311632116985
7165.603204128341 -918.0677115269741 -334.1493200367093
7377.388195889109 -932.0045176408029 -339.22190262288217
7460.587550973249 -932.1817173056482 -339.2863980264078
7342.183916342637 -906.2056383401589 -329.83187848002126
7419.403371687136 -905.0549243526496 -329.4130528404141
7389.47235775987 -896.368695963781 -326.2515242588279
7224.211658673969 -882.3005887544379 -321.13115198216127
7090.725377331739 -863.297458245964 -314.2145781192008
6899.169553108325 -837.5614869231487 -304.8474506077674
6628.857818348032 -800.4486667426892 -291.3394887524061
6284.804012496323 -754.511917864636 -274.61987950183334
5880.666518780622 -716.193856479403 -260.6732457228234
5393.626807162054 -654.5283232299145 -238.22882713985675
4784.630441345338 -577.7983487669926 -210.30140035934735
4109.198076518413 -493.06778704470355 -179.46199795977884
3492.5090324079697 -407.511450440046 -148.32203808282355
2842.572296045303 -327.0653638200491 -119.04205708994404
2185.653971444517 -245.36140230792623 -89.3042470778999
1611.303607657111 -174.4805623074791 -63.505731137951926
1073.8459588898168 -106.0286632538491 -38.59127740343577
534.3727393648527 -39.61232145086104 -14.417705918298017

VECTORS D float
73.22561047432107 -24.753888153206375 -9.454508254038497
44.20859686536432 -27.657070214701427 -10.56020431339891
3.485037908840301 -3.1631958343726296 -1.2078271326403474
536.2778772017577 -635.029193210105 -242.51433540935227
581.5099291261691 -846.1277051623816 -323.20505459574196
615.3944178465483 -1058.7717495095687 -404.548097188971
697.4412782278782 -1381.2813259791753 -527.9595289265153
701.0100270169039 -1566.8756109622873 -599.1404889165732
644.8181681924685 -1603.5655403084436 -613.7343074820405
590.9369200971474 -1614.038444021526 -617.9892465671195
548.1583503401638 -1629.2798044979993 -624.0406701234435
514.4430780988827 -1651.071400089796 -632.7747799941983
493.98626490625225 -1700.768355146922 -652.2473666915512
478.9683906291727 -1759.2834176784881 -675.0865431836124
457.43829808821926 -1784.7174515306167 -685.3796032206396
437.14755994371234 -1803.6513776349232 -693.245099197549
420.67234008236267 -1828.030056177061 -703.2562593978616
408.8314511983724 -1863.9360023206232 -717.7466870552729
401.59915533808356 -1913.9404736465872 -737.7463738692895
384.79712040236757 -1911.75712240974 -737.5313218662819
373.1142441618172 -1926.4531514888693 -743.8268675257268
372.0348342643557 -1990.4858455599297 -769.1805576963621
352.1982922784554 -1947.4568227138163 -753.1447399079989
328.98294329260864 -1875.4722871186864 -725.8479118828775
316.1262973197939 -1852.0918920974423 -717.5683957239852
308.4184568981397 -1855.0569359721312 -719.2359297539848
297.73649600081694 -1833.9171870083003 -711.4688870415349
294.85188628256526 -1856.2911340745868 -720.6099956670164
286.0530939485633 -1836.4698951824541 -713.3342230797333
279.66698201158664 -1826.4496899656317 -709.8167356806853
279.8837271512746 -1854.6222255591097 -721.0967373370189
276.6052111657325 -1854.8477448991555 -721.4590799987972
267.01965769015 -1806.5909701012451 -703.2255114112589
265.8032781012002 -1809.7096742733124 -704.5362608151157
262.37907460405114 -1793.904152931944 -698.3991230046006
256.4677006094666 -1757.6508815706618 -684.228026145835
251.03407458720847 -1721.8988909741545 -670.1895652286526
244.10352653170594 -1673.56903787022 -651.0636010995177
234.29941245194132 -1604.7088537239486 -624.0602846999016
222.04190132296776 -1518.399226462684 -590.250716793836
209.80437811996686 -1432.077188766896 -556.4342056953681
192.73331950227944 -1312.6619259198885 -509.8403883335061
171.05607837634398 -1162.8579880661623 -451.4097542435975
146.84435545014813 -996.5509343358872 -386.638946933951
123.44082057964387 -836.4508576334271 -324.34828167175704
100.1786522271178 -677.2012893674087 -262.39919818983213
76.28160998954672 -515.085479097459 -199.47194338937658
55.390934451115925 -373.69826864871993 -144.6439166809417
35.47417477571281 -239.17224621269938 -92.53124493027713
15.767070711830291 -106.25359595262027 -41.090776687256344
73.22561047432107 -24.753888153206375 -9.454508254038497
44.20859686536432 -27.657070214701427 -10.56020431339891
3.485037908840301 -3.1631958343726296 -1.2078271326403474
536.2778772017577 -635.029193210105 -242.51433540935227
581.5099291261691 -846.1277051623816 -323.20505459574196
615.3944178465483 -1058.7717495095687 -404.548097188971
697.4412782278782 -1381.2813259791753 -527.9595289265153
701.0100270169039 -1566.8756109622873 -599.1404889165732
644.8181681924685 -1603.5655403084436 -613.7343074820405
590.9369200971474 -1614.038444021526 -617.9892465671195
548.1583503401638 -1629.2798044979993 -624.0406701234435
514.4430780988827 -1651.071400089796 -632.7747799941983
493.98626490625225 -1700.768355146922 -652.2473666915512
478.9683906291727 -1759.2834176784881 -675.0865431836124
457.43829808821926 -1784.7174515306167 -685.3796032206396
437.14755994371234 -1803.6513776349232 -693.245099197549
420.67234008236267 -1828.030056177061 -703.2562593978616
408.8314511983724 -1863.9360023206232 -717.7466870552729
401.59915533808356 -1913.9404736465872 -737.7463738692895
384.79712040236757 -1911.75712240974 -737.5313218662819
373.1142441618172 -1926.4531514888693 -743.8268675257268
372.0348342643557 -1990.4858455599297 -769.1805576963621
352.1982922784554 -1947.4568227138163 -753.1447399079989
328.98294329260864 -1875.4722871186864 -725.8479118828775
316.1262973197939 -1852.0918920974423 -717.5683957239852
308.4184568981397 -1855.0569359721312 -719.2359297539848
297.73649600081694 -1833.9171870083003 -711.4688870415349
294.85188628256526 -1856.2911340745868 -720.6099956670164
286.0530939485633 -1836.4698951824541 -713.3342230797333
279.66698201158664 -1826.4496899656317 -709.8167356806853
279.8837271512746 -1854.6222255591097 -721.0967373370189
276.6052111657325 -1854.8477448991555 -721.4590799987972
267.01965769015 -1806.5909701012451 -703.2255114112589
265.8032781012002 -1809.7096742733124 -704.5362608151157
262.37907460405114 -1793.904152931944 -698.3991230046006
256.4677006094666 -1757.6508815706618 -684.228026145835
251.03407458720847 -1721.8988909741545 -670.1895652286526
244.10352653170594 -1673.56903787022 -651.0636010995177
234.29941245194132 -1604.7088537239486 -624.0602846999016
222.04190132296776 -1518.399226462684 -590.250716793836
209.80437811996686 -1432.077188766896 -556.4342056953681
192.73331950227944 -1312.6619259198885 -509.8403883335061
171.05607837634398 -1162.8579880661623 -451.4097542435975
146.84435545014813 -996.5509343358872 -386.638946933951
123.44082057964387 -836.4508576334271 -324.34828167175704
100.1786522271178 -677.2012893674087 -262.39919818983213
76.28160998954672 -515.085479097459 -199.47194338937658
55.390934451115925 -373.69826864871993 -144.6439166809417
35.47417477571281 -239.17224621269938 -92.53124493027713
15.767070711830291 -106.25359595262027 -41.090776687256344

VECTORS L float
22.0635998786742 57.152409831942904 21.24660577932687
71.863514790876 100.6889672591851 37.14164098958482
116.87124577468829 113.03193221107969 41.19677685020207
543.8631428417003 399.4227107007422 156.76058877578353
708.2874846871679 422.2510210391677 168.9265585754346
927.8847962313085 467.0365479218426 189.17409724352765
1312.072436050893 573.1262252127995 233.815127577151
1707.08690640569 660.7504674627863 269.33790816256334
2002.8380094335296 696.792489522421 283.69590776117263
2272.544100965357 720.004140398243 292.5873716353319
2554.858698460104 743.9632474792062 301.8117954655654
2836.5391233836435 764.9131110206968 310.239539924781
3171.453745921915 797.1387653238547 323.35309319377683
3525.1654108477696 830.4145957770434 337.0059404735721
3827.691761594002 848.6974112292716 344.69616987429873
4118.76583582912 863.3473933199857 351.0024377449977
4424.134257783037 880.2576725102767 358.2953228836248
4763.68477165588 903.1331908494853 368.0430626804968
5158.438429978212 935.3130991659798 381.5551391202642
5372.885283268746 934.1861136794572 381.7245728068729
5675.298114507442 949.3089539982643 388.1754650532107
6072.942388124504 979.9672701493939 401.3818750738403
6114.906618308153 954.3994893186915 391.7014296324048
6128.836571960422 927.6724313128003 380.8769763277362
6232.1949886044595 917.5249294663338 377.4138393976871
6370.427871060429 913.1900646220437 376.42442394111833
6498.64173718908 909.5612672820333 375.0308463934145
6725.715925462741 920.7525863128715 380.1018112731218
6793.354532427536 911.7978076429554 376.78110675856345
6885.936222116756 908.3819784386577 375.66741564397597
7097.504468737834 922.6177079183071 381.8748347141368
7183.982339807517 922.6660275935071 382.17268197238934
7075.164258652486 900.385331761087 373.39363293123796
7153.6000935859365 904.6547499206627 375.12320797470153
7127.093283155818 897.5354569681625 372.1475987457726
6967.743958064502 875.3502928162242 363.096874163674
6839.691302744532 858.6014327281918 355.9749871094519
6655.066026576621 836.0075509470715 346.21615049175034
6394.558405896092 804.2601869812593 332.72079594749545
6062.762111173355 763.8873085980484 315.6308372920027
5670.862140660655 715.8833322874926 295.7609599725445
5200.893487659776 658.133602689974 271.6115611936492
4613.574362968994 585.0596392991702 241.10835388425033
3962.353721068265 503.48314729118385 207.17694897417226
3369.0682118283257 428.939407193381 176.02624358893354
2742.3936438181854 350.1359255473598 143.35714109988814
2109.372361454971 269.72407678953294 110.16769631147673
1555.9126732059954 199.2177063412409 81.13818554298979