# vtk DataFile Version 4.0
[MyVLM domain - lattices] 
ASCII
DATASET UNSTRUCTURED_GRID
POINTS 62 float
0.0 -2.3207606371499443 0.010761539315142121
0.0 -6.098140817503191 4.139576704431169
0.0 -9.755149739586667 8.023681025168857
0.0 -12.988240892836043 11.917780266587886
0.0 -15.980158172634265 15.668534093472529
0.0 -18.797612567256962 19.219965340165224
0.0 -21.43635454008147 22.575639791278732
0.0 -23.916337260579876 25.718814749668205
0.0 -26.232611610616832 28.653643018535664
0.0 -28.384737773176905 31.380493648176543
0.0 -30.372716356828278 33.89936612794151
0.0 -32.19654690442345 36.210260841422865
0.0 -33.856214062974935 38.313190671306735
0.0 -35.351717840506076 40.20815561086076
0.0 -36.68259412931389 41.8955450926873
0.0 -37.84536141251821 43.378280456316475
0.0 -38.8166571601212 44.675965192052814
0.0 -39.59710911935214 45.78807255742779
0.0 -40.1663813596903 46.73166642424095
0.0 -40.55741712305421 47.47910413034869
0.0 -40.80325182407597 48.00266567151743
-0.8152938918039478 0.31962766461190284 2.226310389488316
-0.9232602711185554 -3.1006222585441066 6.654793421700793
-1.045017403566863 -6.298416901060211 10.924224275054804
-0.8624275731409438 -9.543178671866091 14.808530705586556
-0.7172432011617597 -12.702341384204026 18.418948951711037
-0.5835709082011334 -15.695769755822612 21.822720499209687
-0.458823694439046 -18.53146791511118 25.01312908690312
-0.35706975050238215 -21.18872820806733 28.007550499627293
-0.27205245991127286 -23.671549759468054 30.80262907325681
-0.20240159072431146 -25.979794470723473 33.3984806862675
-0.1506132401889805 -28.113143168168172 35.795373157164285
-0.11426271706148827 -30.071080015429676 37.99373932405707
-0.08424963388989035 -31.85307891519815 39.99402063500449
-0.059335794404298196 -33.45902869527693 41.79631037455577
-0.038970351202568594 -34.88943832566939 43.40018146616881
-0.02333805368457717 -36.14779439545529 44.80270831423268
-0.011931771028020786 -37.256895409231866 45.98476070194849
-0.005641151376299379 -38.2162088452325 46.94678546813419
-0.0026418300562744777 -39.04660179279337 47.671273045824016
-0.0014569859069231085 -39.714998692826995 48.18597712444928
-0.001005086180947595 -40.18817508360198 48.51877633759488
-0.6519578110959388 -2.0952356545562183 3.849206209664205
-0.7381041280070318 -5.506301004487852 8.112538852483352
-0.7152918662654275 -8.7835221689002 12.142465779210102
-0.5923765403635137 -11.963119904210084 15.90859416649415
-0.4878052910110849 -14.996513019996394 19.451688473299992
-0.39089797599006726 -17.864460015017475 22.7878942362228
-0.30596004185303555 -20.564160021274613 25.91956166256728
-0.23592082890512064 -23.09122284672536 28.85037456085702
-0.17792026898834412 -25.44642275929604 31.579683243160638
-0.1323805615924845 -27.629533380835014 34.10767766330167
-0.0993284839689258 -29.640241601505664 36.434620551628555
-0.07444213160676699 -31.47815471991023 38.560841423739284
-0.05384453561032071 -33.14303184186328 40.486542413856036
-0.036864804602575046 -34.63496412908236 42.211647028215225
-0.023365651832679663 -35.954956713150764 43.735311861276024
-0.013226184267224234 -37.10951099833761 45.052081587114095
-0.006589845901620062 -38.1041348803583 46.15733453246607
-0.0031061180372151964 -38.943990299140005 47.04673931544291
-0.0015370559861990949 -39.626074992450704 47.72281513317619
-0.0009232770329515139 -40.13377378455214 48.19950377349983

CELLS 40 140
4 0 21 22 1
4 1 22 23 2
4 2 23 24 3
4 3 24 25 4
4 4 25 26 5
4 5 26 27 6
4 6 27 28 7
4 7 28 29 8
4 8 29 30 9
4 9 30 31 10
4 10 31 32 11
4 11 32 33 12
4 12 33 34 13
4 13 34 35 14
4 14 35 36 15
4 15 36 37 16
4 16 37 38 17
4 17 38 39 18
4 18 39 40 19
4 19 40 41 20
1 42
1 43
1 44
1 45
1 46
1 47
1 48
1 49
1 50
1 51
1 52
1 53
1 54
1 55
1 56
1 57
1 58
1 59
1 60
1 61

CELL_TYPES 40
9
9
9
9
9
9
9
9
9
9
9
9
9
9
9
9
9
9
9
9
1
1
1
1
1
1
1
1
1
1
1
1
1
1
1
1
1
1
1
1

CELL_DATA 40

VECTORS S float
0.0 -0.0 0.0
1.6978400357502418e-16 2.7874338977646973e-14 -4.953954650313853e-14
-1.0249253228857951e-16 -2.8206479028935478e-14 4.935137590641533e-14
-8.51691035027098e-18 5.686279808102263e-14 -9.844449803315649e-14
0.0 -0.0 0.0
0.0 -0.0 0.0
0.0 -0.0 0.0
0.0 -0.0 0.0
0.0 -0.0 0.0
0.0 -0.0 0.0
2.0378073519853518e-16 -5.795526559168014e-14 9.780512632142979e-14
1.035590579357172e-16 -2.901792393337907e-14 4.8878662357959536e-14
2.0827012330194143e-16 -5.809451154939642e-14 9.77224714307505e-14
0.0 -0.0 0.0
0.0 -0.0 0.0
9.869126840036658e-17 -2.9050859046189374e-14 4.885910474514697e-14
0.0 -0.0 0.0
0.0 -0.0 0.0
2.06442991093565e-17 -7.249619989927702e-15 1.2222560106259817e-14
8.28052057491703e-18 -3.622814926692295e-15 6.112466063223522e-15
0.0 -0.0 0.0
1.6978400357502418e-16 2.7874338977646973e-14 -4.953954650313853e-14
-1.0249253228857951e-16 -2.8206479028935478e-14 4.935137590641533e-14
-8.51691035027098e-18 5.686279808102263e-14 -9.844449803315649e-14
0.0 -0.0 0.0
0.0 -0.0 0.0
0.0 -0.0 0.0
0.0 -0.0 0.0
0.0 -0.0 0.0
0.0 -0.0 0.0
2.0378073519853518e-16 -5.795526559168014e-14 9.780512632142979e-14
1.035590579357172e-16 -2.901792393337907e-14 4.8878662357959536e-14
2.0827012330194143e-16 -5.809451154939642e-14 9.77224714307505e-14
0.0 -0.0 0.0
0.0 -0.0 0.0
9.869126840036658e-17 -2.9050859046189374e-14 4.885910474514697e-14
0.0 -0.0 0.0
0.0 -0.0 0.0
2.06442991093565e-17 -7.249619989927702e-15 1.2222560106259817e-14
8.28052057491703e-18 -3.622814926692295e-15 6.112466063223522e-15

SCALARS Gamma float
LOOKUP_TABLE default
0.0
72.11144460943983
87.05884346153972
100.61492545684237
99.31960820130281
101.78739673926876
102.70327879552653
105.42197605037671
108.27103034369581
100.06487025106502
97.94750833746933
96.30307726327337
95.04760956842557
89.46811521568276
81.53683243199836
71.25335651497791
57.18308581511536
40.283747396967776
23.244796694861957
9.470799392402405
0.0
72.11144460943983
87.05884346153972
100.61492545684237
99.31960820130281
101.78739673926876
102.70327879552653
105.42197605037671
108.27103034369581
100.06487025106502
97.94750833746933
96.30307726327337
95.04760956842557
89.46811521568276
81.53683243199836
71.25335651497791
57.18308581511536
40.283747396967776
23.244796694861957
9.470799392402405

VECTORS Ftot float
173.61051012721407 -76.51450186843375 -44.17566825065041
1623.927972947857 379.08021422710067 218.8620637284779
2236.6502167862564 799.996636386526 461.8782733685566
3230.6888731269464 1064.8144191857625 614.7708915538958
3886.6297100320176 1037.641124837007 599.0823827468728
4659.972384293619 1056.0602842845135 609.7166894121374
5349.821910334 1047.8185191891462 604.9583041157293
6113.772555374697 1066.7023019848232 615.860861196132
6876.758076173945 1087.9990833969082 628.1565636772718
6868.618591122276 1002.6547746772947 578.8830040642003
7185.215954315208 984.3752740060525 568.3293294310067
7480.226359029058 970.9583466661118 560.5830628195944
7754.209593477266 964.497375832642 556.8528195696642
7610.481696797063 926.487217526941 534.9076444399275
7186.673822959095 859.4567506799249 496.2075863618964
6471.702576219184 758.5140776955964 437.92830694167384
5322.700755791255 623.1108897043247 359.75323990577954
3827.1762316294007 430.80355886787055 248.7245506802142
2244.2293029536486 240.1521427492875 138.65190426276675
927.2133594216018 81.86956128013014 47.26741324351976
173.61051012721407 -76.51450186843375 -44.17566825065041
1623.927972947857 379.08021422710067 218.8620637284779
2236.6502167862564 799.996636386526 461.8782733685566
3230.6888731269464 1064.8144191857625 614.7708915538958
3886.6297100320176 1037.641124837007 599.0823827468728
4659.972384293619 1056.0602842845135 609.7166894121374
5349.821910334 1047.8185191891462 604.9583041157293
6113.772555374697 1066.7023019848232 615.860861196132
6876.758076173945 1087.9990833969082 628.1565636772718
6868.618591122276 1002.6547746772947 578.8830040642003
7185.215954315208 984.3752740060525 568.3293294310067
7480.226359029058 970.9583466661118 560.5830628195944
7754.209593477266 964.497375832642 556.8528195696642
7610.481696797063 926.487217526941 534.9076444399275
7186.673822959095 859.4567506799249 496.2075863618964
6471.702576219184 758.5140776955964 437.92830694167384
5322.700755791255 623.1108897043247 359.75323990577954
3827.1762316294007 430.80355886787055 248.7245506802142
2244.2293029536486 240.1521427492875 138.65190426276675
927.2133594216018 81.86956128013014 47.26741324351976

VECTORS D float
102.18100120506709 45.34152083383994 25.46712104777023
882.7528094546839 919.7282830322715 520.5274786496765
875.2606780716147 1429.2807911873194 818.7144857523881
856.249969299597 1876.9535305580382 1084.078228276547
707.4486844392312 1914.3389518391386 1112.2745795495898
624.7693813836257 1995.6447978269318 1164.470436089545
551.7822321496476 2020.0510683405785 1182.8241306951877
506.21710221173686 2077.8460800394996 1220.323156617322
471.60921952742217 2133.332952544714 1257.1197607241932
402.883449640371 1974.6234078563814 1166.6199596917736
370.5249291101321 1941.0889766929333 1149.4369013889404
347.6797620612712 1919.657442612086 1138.9114507994493
334.25652504659774 1914.7635831630948 1137.585222939469
314.5226376287606 1840.5963437214102 1094.3576370045014
290.2392176741384 1715.2353416485373 1019.6668773898692
257.94611352627345 1528.0671895215487 908.0438075603741
212.19799006388862 1256.6142610665956 746.2021823473225
149.93572320511004 887.3482094052489 526.4836654570759
85.90170054221375 508.3738396326822 301.3888856124961
32.622026623601144 193.15812008103185 114.43924367734412
102.18100120506709 45.34152083383994 25.46712104777023
882.7528094546839 919.7282830322715 520.5274786496765
875.2606780716147 1429.2807911873194 818.7144857523881
856.249969299597 1876.9535305580382 1084.078228276547
707.4486844392312 1914.3389518391386 1112.2745795495898
624.7693813836257 1995.6447978269318 1164.470436089545
551.7822321496476 2020.0510683405785 1182.8241306951877
506.21710221173686 2077.8460800394996 1220.323156617322
471.60921952742217 2133.332952544714 1257.1197607241932
402.883449640371 1974.6234078563814 1166.6199596917736
370.5249291101321 1941.0889766929333 1149.4369013889404
347.6797620612712 1919.657442612086 1138.9114507994493
334.25652504659774 1914.7635831630948 1137.585222939469
314.5226376287606 1840.5963437214102 1094.3576370045014
290.2392176741384 1715.2353416485373 1019.6668773898692
257.94611352627345 1528.0671895215487 908.0438075603741
212.19799006388862 1256.6142610665956 746.2021823473225
149.93572320511004 887.3482094052489 526.4836654570759
85.90170054221375 508.3738396326822 301.3888856124961
32.622026623601144 193.15812008103185 114.43924367734412

VECTORS L float
71.429508922147 -121.85602270227372 -69.64278929842067
741.1751634931732 -540.6480688051709 -301.6654149211986
1361.3895387146417 -629.2841548007934 -356.8362123838314
2374.4389038273493 -812.1391113722755 -469.3073367226512
3179.181025592787 -876.6978270021316 -513.192196802717
4035.2030029099933 -939.5845135424187 -554.7537466774078
4798.039678184353 -972.2325491514324 -577.8658265794586
5607.5554531629605 -1011.1437780546761 -604.4622954211898
6405.148856646523 -1045.3338691478057 -628.9631970469216
6465.735141481905 -971.9686331790867 -587.7369556275733
6814.691025205076 -956.7137026868816 -581.1075719579338
7132.546596967788 -948.6990959459742 -578.328387979855
7419.953068430668 -950.2662073304532 -580.7324033698048
7295.959059168301 -914.1091261944688 -559.4499925645738
6896.434605284957 -855.778590968613 -523.459291027973
6213.7564626929125 -769.5531118259523 -470.1155006187004
5110.502765727367 -633.5033713622709 -386.44894244154295
3677.2405084242905 -456.5446505373783 -277.75911477686174
2158.3276024114352 -268.2216968833947 -162.73698134972932
894.5913327980006 -111.28855880090171 -67.17183043382434
71.429508922147 -121.85602270227372 -69.64278929842067
741.1751634931732 -540.6480688051709 -301.6654149211986
1361.3895387146417 -629.2841548007934 -356.8362123838314
2374.4389038273493 -812.1391113722755 -469.3073367226512
3179.181025592787 -876.6978270021316 -513.192196802717
4035.2030029099933 -939.5845135424187 -554.7537466774078
4798.039678184353 -972.2325491514324 -577.8658265794586
5607.5554531629605 -1011.1437780546761 -604.4622954211898
6405.148856646523 -1045.3338691478057 -628.9631970469216
6465.735141481905 -971.9686331790867 -587.7369556275733
6814.691025205076 -956.7137026868816 -581.1075719579338
7132.546596967788 -948.6990959459742 -578.328387979855
7419.953068430668 -950.2662073304532 -580.7324033698048
7295.959059168301 -914.1091261944688 -559.4499925645738
6896.434605284957 -855.778590968613 -523.459291027973
6213.7564626929125 -769.5531118259523 -470.1155006187004
5110.502765727367 -633.5033713622709 -386.44894244154295
3677.2405084242905 -456.5446505373783 -277.75911477686174
2158.3276024114352 -268.2216968833947 -162.73698134972932
894.5913327980006 -111.28855880090171 -67.17183043382434

SCALARS mu float
LOOKUP_TABLE default
-3.268982883232406
-7.7041852658549015
-1.8121115641639571
-0.28334986817649943
-0.24082239068529473
-0.20957946270897373
-0.2520529235401924
-0.2513424831338595
-0.25034086702122577
-0.2266813660509063
-0.20204135537917361
-0.2056024373263014
-0.2364586613340875
-0.23021688899124254
-0.2581358847446357
-0.32024387450900765
-0.29053424575428133
-0.3674053476420786
-0.3852491398315152
-0.42301598389139927
-3.268982883232406
-7.7041852658549015
-1.8121115641639571
-0.28334986817649943
-0.24082239068529473
-0.20957946270897373
-0.2520529235401924
-0.2513424831338595
-0.25034086702122577
-0.2266813660509063
-0.20204135537917361
-0.2056024373263014
-0.2364586613340875
-0.23021688899124254
-0.2581358847446357
-0.32024387450900765
-0.29053424575428133
-0.3674053476420786
-0.3852491398315152
-0.42301598389139927