# vtk DataFile Version 4.0
[MyVLM domain - lattices] 
ASCII
DATASET UNSTRUCTURED_GRID
POINTS 152 float
0.0 1.1697031529913213 2.004439498806237
0.0 3.362677120562786 2.4461710042899174
0.0 5.504259948315475 2.942808505721332
0.0 7.604103787640535 3.439611932395678
0.0 9.662295057717909 3.9360911767888824
0.0 11.685131704257985 4.3965288138926555
0.0 13.677990223506033 4.790433218298004
0.0 15.642232937676383 5.11007827679828
0.0 17.569454393104238 5.4031336859483385
0.0 19.456254097511227 5.688884595784209
0.0 21.302663821355583 5.967150827083739
0.0 23.108752406708625 6.2375419570594275
0.0 24.87459106121206 6.499654147107419
0.0 26.600755612009568 6.750221719216562
0.0 28.286864274423113 6.991409881890442
0.0 29.932080890851328 7.227960720531941
0.0 31.536281224201097 7.4605788187085595
0.0 33.09966845713196 7.688111870297288
0.0 34.62238899474011 7.909729570737719
0.0 36.10444288078103 8.125431671880254
0.0 37.54583015784162 8.33521793220243
0.0 38.946550867340285 8.539088116808928
0.0 40.30660504952685 8.737041997431572
0.0 41.62599274348262 8.929079352429323
0.0 42.904713987120346 9.115199966788282
0.0 44.142768817184226 9.295403632121692
0.0 45.340157269249936 9.46969014666994
0.0 46.49687937772459 9.63805931530055
0.0 47.61293512426473 9.80051124204448
0.0 48.688323832433326 9.957049763166692
0.0 49.72304539351497 10.10767549522292
0.0 50.71709994482627 10.252387659451996
0.0 51.67048761828712 10.391185507699072
0.0 52.58320854042066 10.524068322415651
0.0 53.45526283235334 10.65103541665956
0.0 54.2866506098149 10.772086134094963
0.0 55.077444133596885 10.886810663408218
0.0 55.82787258728867 10.99390923987579
0.0 56.538286701358416 11.091392772169892
0.0 57.208869450332365 11.178223560186458
0.0 57.83951614388734 11.254995332251934
0.0 58.430281223288965 11.321399336606472
0.0 58.9832280354568 11.365733751377457
0.0 59.49831034202841 11.388260807349187
0.0 59.97397076017559 11.397812861441489
0.0 60.40914723439995 11.400413129693781
0.0 60.80356893696861 11.397597552503859
0.0 61.15748964760794 11.38792687352327
0.0 61.470682484666725 11.37268780253571
0.0 61.74270042273129 11.35441554664287
0.0 61.97315648457779 11.335304762738751
-0.8152906147965383 1.7682299453737316 -1.3899746173862209
-0.840508508576773 3.9796571651173367 -1.05289670545922
-0.8937965186568912 6.160544996296644 -0.7791689553812007
-0.9506477078523391 8.3024145590683 -0.5207052500458123
-1.020681877210228 10.40509086965738 -0.27651320715161387
-1.048954977401727 12.463202196541104 -0.01612822337358777
-0.9930987765444168 14.472965829171391 0.2819025188484878
-0.9074282632528687 16.43101726418835 0.6366600662515847
-0.838943182597301 18.344440850312793 1.0079670807315284
-0.780438039247949 20.216610380530035 1.376689831467567
-0.7250391551380654 22.04821908053851 1.7388968401592428
-0.6716005320170477 23.839214516722084 2.0948854726205264
-0.6190912009117757 25.589470447575298 2.445371680006137
-0.5668551203523576 27.29837395796804 2.7938314767505434
-0.5160737545272154 28.966286683832443 3.1382139235664583
-0.46824322159258064 30.594077032160808 3.4735940396664162
-0.4244759216876314 32.181869176825565 3.7992676000252286
-0.3845740908079094 33.729461105390016 4.116380274102497
-0.34771109645469384 35.236722278859865 4.425672385323326
-0.3130568676883623 36.70367426743752 4.727021602990975
-0.28047282351476527 38.1303242778071 5.020387055968752
-0.25028172479700606 39.51667277297671 5.305766118407234
-0.22269967179244904 40.862723087547906 5.58313987884133
-0.19756508903558764 42.16848357446249 5.8524609653838775
-0.17527331282135344 43.43395614931183 6.113718514176528
-0.15618952887338375 44.6591442034004 6.366893292175814
-0.13996799493970205 45.844057628879256 6.611929198205342
-0.12575834684109707 46.98870841014498 6.848758265374601
-0.11252036551224441 48.09310713091343 7.077320470448332
-0.10008619772204906 49.157255499110136 7.297606127299464
-0.0884564051429673 50.18115428509615 7.509610866993377
-0.07764813403823374 51.164804387350756 7.713329594000807
-0.06766754153321136 52.10820680471011 7.908756643640481
-0.05846867713071129 53.011362763815 8.095885059286859
-0.05000632361003568 53.87427338353329 8.274708495524775
-0.0422455662862189 54.69693964992265 8.44522136014351
-0.03513713503927796 55.47930939251873 8.607719526548752
-0.028610254341892315 56.221214182299654 8.76315820319054
-0.02259956362415257 56.92213259074134 8.914494558177482
-0.017476911002663225 57.581794660762796 9.063259594195237
-0.013355710955940858 58.20068862397884 9.206684412162728
-0.010110762084772787 58.778800884127705 9.344846120312367
-0.007505342360435571 59.31361110880473 9.492038233989936
-0.005475063785670375 59.80509708637604 9.64838672163083
-0.003985447751437076 60.25515677114737 9.80312774948642
-0.0029419419370193198 60.66503814580143 9.949183656057201
-0.00222865752783443 61.03494051365713 10.085424136053843
-0.0017402354220029323 61.364351353327955 10.214755842698176
-0.0014049497009942318 61.65344273537579 10.33620291534064
-0.0011720086804816246 61.90270945872573 10.446959209833029
-0.0010052173229800666 62.11257985019704 10.544595564072432
-0.6209246712649916 2.722005200628414 -0.3597504331800212
-0.6503643852126241 4.910942944140026 -0.013402184063751712
-0.6916665849409614 7.0621553002563555 0.31034972772949687
-0.7392485943984627 9.173614391441935 0.6230059671990349
-0.7761138204794831 11.244038245071419 0.9318369623882412
-0.765770157729804 13.271453250612689 1.24803561482692
-0.7126976399239822 15.254021555157701 1.5820249062995624
-0.6548892921938138 17.192257709285506 1.9308866754619949
-0.6072679581919687 19.088607772892992 2.2807486272912296
-0.5645539478947554 20.944175787759054 2.625349429718548
-0.5237398826831674 22.75921462748075 2.9632549653103086
-0.4840093998483088 24.533674795101604 3.2947459452558547
-0.44472987047405005 26.267359986231455 3.6209356670742525
-0.40609832807983987 27.96020022647927 3.9422209752572517
-0.3691188660449235 29.612504539156774 4.256849311515126
-0.33476967873007946 31.224525092751442 4.563390557289429
-0.3033937546858278 32.796242565997474 4.861954288923627
-0.27460694522347623 34.32757595057772 5.152999927414059
-0.24778798655364606 35.81850268930167 5.436655400945108
-0.22257363420117282 37.26903358429456 5.712859447620232
-0.19903295561691423 38.67917152219167 5.981595696517414
-0.17736802372104568 40.04891793730513 6.242856013248275
-0.15759928531051376 41.378277222380085 6.496615485317064
-0.1398144006963529 42.667253237740745 6.742852219737352
-0.12429856563552642 43.91584798280516 6.981554877245874
-0.11105907142990716 45.12406644790914 7.212695156241887
-0.09964737816779967 46.2919168455059 7.436226481588791
-0.08935451713250306 47.41940764064557 7.652100845601728
-0.07972746121286005 48.50654335584609 7.86029259980682
-0.07070347607438114 49.55332482232089 8.060797030158517
-0.062289202192950394 50.559752669460245 8.253610567207183
-0.054493378339291916 51.525827642412 8.438728985009366
-0.047301081998971 52.45155060803538 8.616147367362094
-0.040678125277780114 53.336922476852344 8.785860550438764
-0.03459445871109547 54.18194406781701 8.947863889719923
-0.029018512997061326 54.98660523384198 9.102214932197496
-0.023905271017938854 55.75086093066758 9.249169136562735
-0.01920368173726683 56.474524950971265 9.389782537018718
-0.015028677985055923 57.15736723827541 9.525359848684314
-0.01156223323447653 57.79947943105557 9.655381363939036
-0.008799927390267616 58.40103323643699 9.778873283285462
-0.006606039166953134 58.961343154692884 9.899723268861354
-0.00486765230478973 59.47970787037843 10.021908678198617
-0.003547691826415294 59.95663033434676 10.142577135267803
-0.0025977711331711486 60.39296284317775 10.256895025970767
-0.001938974799320156 60.789081518718035 10.362729257316348
-0.0014883348561890108 61.144866773191474 10.460758045285399
-0.0011794444211239365 61.460194299798246 10.551686368771929
-0.0009663593930534462 61.73522993621282 10.634573715587447
-0.0008164597512981341 61.970215604259664 10.70804807888725

CELLS 100 350
4 0 51 52 1
4 1 52 53 2
4 2 53 54 3
4 3 54 55 4
4 4 55 56 5
4 5 56 57 6
4 6 57 58 7
4 7 58 59 8
4 8 59 60 9
4 9 60 61 10
4 10 61 62 11
4 11 62 63 12
4 12 63 64 13
4 13 64 65 14
4 14 65 66 15
4 15 66 67 16
4 16 67 68 17
4 17 68 69 18
4 18 69 70 19
4 19 70 71 20
4 20 71 72 21
4 21 72 73 22
4 22 73 74 23
4 23 74 75 24
4 24 75 76 25
4 25 76 77 26
4 26 77 78 27
4 27 78 79 28
4 28 79 80 29
4 29 80 81 30
4 30 81 82 31
4 31 82 83 32
4 32 83 84 33
4 33 84 85 34
4 34 85 86 35
4 35 86 87 36
4 36 87 88 37
4 37 88 89 38
4 38 89 90 39
4 39 90 91 40
4 40 91 92 41
4 41 92 93 42
4 42 93 94 43
4 43 94 95 44
4 44 95 96 45
4 45 96 97 46
4 46 97 98 47
4 47 98 99 48
4 48 99 100 49
4 49 100 101 50
1 102
1 103
1 104
1 105
1 106
1 107
1 108
1 109
1 110
1 111
1 112
1 113
1 114
1 115
1 116
1 117
1 118
1 119
1 120
1 121
1 122
1 123
1 124
1 125
1 126
1 127
1 128
1 129
1 130
1 131
1 132
1 133
1 134
1 135
1 136
1 137
1 138
1 139
1 140
1 141
1 142
1 143
1 144
1 145
1 146
1 147
1 148
1 149
1 150
1 151

CELL_TYPES 100
9
9
9
9
9
9
9
9
9
9
9
9
9
9
9
9
9
9
9
9
9
9
9
9
9
9
9
9
9
9
9
9
9
9
9
9
9
9
9
9
9
9
9
9
9
9
9
9
9
9
1
1
1
1
1
1
1
1
1
1
1
1
1
1
1
1
1
1
1
1
1
1
1
1
1
1
1
1
1
1
1
1
1
1
1
1
1
1
1
1
1
1
1
1
1
1
1
1
1
1

CELL_DATA 100

VECTORS S float
-2.8386949019386e-19 9.338810306070018e-17 8.7699583911561e-19
-6.928603687331999e-20 1.948668535963255e-17 1.1590287704726e-19
3.1341909038850997e-19 -7.708616689468144e-17 -3.615502129604e-19
-2.9482993339999997e-22 6.8667403442522295e-18 5.4137769937859996e-20
6.9852731318151e-19 4.942435356204474e-16 3.98315158294661e-18
-4.1445841316639995e-20 -2.763044235419098e-17 -2.0083926769706998e-19
3.2811106865035e-19 2.7532790219154894e-16 1.76401474520604e-18
3.2276632380499996e-20 2.9271562013709876e-17 1.7723688440751e-19
-2.8525442861987e-19 -2.6967504515635256e-16 -1.4852682257599399e-18
-2.4208408897013e-19 -2.0811969863365968e-16 -1.0735288343374899e-18
-1.3416317105404398e-18 -1.1243418727696872e-15 -5.4782062050027995e-18
4.240784571712e-20 3.6614453294351616e-17 1.6970263460217999e-19
-3.1744904640548e-19 -2.7312962206542657e-16 -1.2191606464914099e-18
4.0193800502132e-19 3.6468705555953845e-16 1.57312090131107e-18
6.994685960651e-19 6.928141649618155e-16 2.9018378765895598e-18
2.012968648167e-19 2.116367682567196e-16 8.677594227534699e-19
-3.6260569794829996e-19 -3.815161671413598e-16 -1.6519011631039098e-18
1.3586024650745e-19 1.5268659498315715e-16 6.4092973339885e-19
1.2643221021582e-19 1.5489370423780002e-16 6.3371385401399e-19
1.8251061339601999e-19 2.334986988713057e-16 9.3798767745443e-19
-4.428094743869e-20 -5.870428830529473e-17 -2.3264894277447e-19
2.2244645953132997e-19 3.2046028337980925e-16 1.2552648493758299e-18
-2.75523326103e-20 -4.070185168454121e-17 -1.5839754263624e-19
1.4040195164312e-19 2.1254773120873078e-16 8.2364506953357e-19
-5.731702375111e-20 -8.847037933649302e-17 -3.4198930411166e-19
-2.4561573150427e-19 -3.988316048069783e-16 -1.53819101070119e-18
6.4757597465999995e-21 1.087300157382408e-17 4.1890147381619995e-20
-6.646875938623999e-20 -1.1159393876084194e-16 -4.40419553063e-19
-5.20444868276e-21 -9.00458226255514e-18 -3.5268521031279996e-20
9.965730224732e-20 1.773484665259312e-16 6.8926649244974e-19
4.5823443218939995e-20 8.367918149752516e-17 3.2261996400307996e-19
-3.0621116153375996e-19 -5.734497494509434e-16 -2.19230148009611e-18
1.1384764904111e-19 2.1672274066814044e-16 8.2132221312391e-19
-1.4601559195256e-19 -2.8536865905617697e-16 -1.0712798793693898e-18
-9.414860102305e-20 -1.8785862277738064e-16 -6.9832354732817e-19
-1.3738944910467e-19 -2.774902753563113e-16 -1.02498430393477e-18
6.180548563693999e-20 1.2819294313071797e-16 4.6803214827593e-19
3.151472936423e-20 6.660709257853159e-17 2.4034666052431997e-19
-8.79672058083e-21 -1.899142804787682e-17 -6.771656827719e-20
-1.404610978764e-20 -3.096934944033528e-17 -1.0911193513464e-19
-2.660710800553e-20 -5.944574939145735e-17 -2.0699359152869e-19
-5.93854085863e-21 -1.355369786422682e-17 -4.664336451362e-20
1.9523200037099998e-21 4.59784636011719e-18 1.56390971052e-20
4.594290978052e-20 1.1031894898512334e-16 3.7110323243936e-19
9.575596766419e-20 2.3394576142499026e-16 7.7872985950176e-19
-1.1617032121144e-19 -2.852051749936711e-16 -9.402007903327899e-19
-4.3346824275599996e-20 -1.0805950748180645e-16 -3.5297595688503e-19
-3.844138115298e-20 -9.729541178198967e-17 -3.1516370307876e-19
-3.9124731341569996e-20 -9.997567453996625e-17 -3.2145186064151e-19
2.0057075120749998e-20 5.184736029292909e-17 1.6562043915098999e-19
-2.8386949019386e-19 9.338810306070018e-17 8.7699583911561e-19
-6.928603687331999e-20 1.948668535963255e-17 1.1590287704726e-19
3.1341909038850997e-19 -7.708616689468144e-17 -3.615502129604e-19
-2.9482993339999997e-22 6.8667403442522295e-18 5.4137769937859996e-20
6.9852731318151e-19 4.942435356204474e-16 3.98315158294661e-18
-4.1445841316639995e-20 -2.763044235419098e-17 -2.0083926769706998e-19
3.2811106865035e-19 2.7532790219154894e-16 1.76401474520604e-18
3.2276632380499996e-20 2.9271562013709876e-17 1.7723688440751e-19
-2.8525442861987e-19 -2.6967504515635256e-16 -1.4852682257599399e-18
-2.4208408897013e-19 -2.0811969863365968e-16 -1.0735288343374899e-18
-1.3416317105404398e-18 -1.1243418727696872e-15 -5.4782062050027995e-18
4.240784571712e-20 3.6614453294351616e-17 1.6970263460217999e-19
-3.1744904640548e-19 -2.7312962206542657e-16 -1.2191606464914099e-18
4.0193800502132e-19 3.6468705555953845e-16 1.57312090131107e-18
6.994685960651e-19 6.928141649618155e-16 2.9018378765895598e-18
2.012968648167e-19 2.116367682567196e-16 8.677594227534699e-19
-3.6260569794829996e-19 -3.815161671413598e-16 -1.6519011631039098e-18
1.3586024650745e-19 1.5268659498315715e-16 6.4092973339885e-19
1.2643221021582e-19 1.5489370423780002e-16 6.3371385401399e-19
1.8251061339601999e-19 2.334986988713057e-16 9.3798767745443e-19
-4.428094743869e-20 -5.870428830529473e-17 -2.3264894277447e-19
2.2244645953132997e-19 3.2046028337980925e-16 1.2552648493758299e-18
-2.75523326103e-20 -4.070185168454121e-17 -1.5839754263624e-19
1.4040195164312e-19 2.1254773120873078e-16 8.2364506953357e-19
-5.731702375111e-20 -8.847037933649302e-17 -3.4198930411166e-19
-2.4561573150427e-19 -3.988316048069783e-16 -1.53819101070119e-18
6.4757597465999995e-21 1.087300157382408e-17 4.1890147381619995e-20
-6.646875938623999e-20 -1.1159393876084194e-16 -4.40419553063e-19
-5.20444868276e-21 -9.00458226255514e-18 -3.5268521031279996e-20
9.965730224732e-20 1.773484665259312e-16 6.8926649244974e-19
4.5823443218939995e-20 8.367918149752516e-17 3.2261996400307996e-19
-3.0621116153375996e-19 -5.734497494509434e-16 -2.19230148009611e-18
1.1384764904111e-19 2.1672274066814044e-16 8.2132221312391e-19
-1.4601559195256e-19 -2.8536865905617697e-16 -1.0712798793693898e-18
-9.414860102305e-20 -1.8785862277738064e-16 -6.9832354732817e-19
-1.3738944910467e-19 -2.774902753563113e-16 -1.02498430393477e-18
6.180548563693999e-20 1.2819294313071797e-16 4.6803214827593e-19
3.151472936423e-20 6.660709257853159e-17 2.4034666052431997e-19
-8.79672058083e-21 -1.899142804787682e-17 -6.771656827719e-20
-1.404610978764e-20 -3.096934944033528e-17 -1.0911193513464e-19
-2.660710800553e-20 -5.944574939145735e-17 -2.0699359152869e-19
-5.93854085863e-21 -1.355369786422682e-17 -4.664336451362e-20
1.9523200037099998e-21 4.59784636011719e-18 1.56390971052e-20
4.594290978052e-20 1.1031894898512334e-16 3.7110323243936e-19
9.575596766419e-20 2.3394576142499026e-16 7.7872985950176e-19
-1.1617032121144e-19 -2.852051749936711e-16 -9.402007903327899e-19
-4.3346824275599996e-20 -1.0805950748180645e-16 -3.5297595688503e-19
-3.844138115298e-20 -9.729541178198967e-17 -3.1516370307876e-19
-3.9124731341569996e-20 -9.997567453996625e-17 -3.2145186064151e-19
2.0057075120749998e-20 5.184736029292909e-17 1.6562043915098999e-19

SCALARS Gamma float
LOOKUP_TABLE default
-0.0
-0.0
-0.0
55.31449248866308
61.08747192092161
60.55086280951192
57.20275622926569
51.707992773866174
47.584037374913024
51.126017719009035
59.12074297327297
59.7586326216352
56.92931870379645
52.160351000647125
50.981545953317436
50.02301944702114
46.45413618509829
44.009960919218955
39.288606439432
39.70677303333705
38.90646173455969
40.0194935252768
41.18503965032379
38.434079876028136
40.30764361547579
41.59111150457722
41.53348712247023
41.441152280125046
41.51601786950645
41.66311970563432
41.87214625709309
42.06109531478385
39.86079939954283
40.08063828344222
40.30921873081691
40.54851392274857
40.72233192034814
43.08475147011794
42.91840870029168
42.40913698286897
41.619940021004766
40.3284596530495
38.13326045528628
35.31747770657164
32.51940945473386
29.747924450293613
26.80437718684576
23.922356584474674
21.030358393961762
18.34957463006745
-0.0
-0.0
-0.0
55.31449248866308
61.08747192092161
60.55086280951192
57.20275622926569
51.707992773866174
47.584037374913024
51.126017719009035
59.12074297327297
59.7586326216352
56.92931870379645
52.160351000647125
50.981545953317436
50.02301944702114
46.45413618509829
44.009960919218955
39.288606439432
39.70677303333705
38.90646173455969
40.0194935252768
41.18503965032379
38.434079876028136
40.30764361547579
41.59111150457722
41.53348712247023
41.441152280125046
41.51601786950645
41.66311970563432
41.87214625709309
42.06109531478385
39.86079939954283
40.08063828344222
40.30921873081691
40.54851392274857
40.72233192034814
43.08475147011794
42.91840870029168
42.40913698286897
41.619940021004766
40.3284596530495
38.13326045528628
35.31747770657164
32.51940945473386
29.747924450293613
26.80437718684576
23.922356584474674
21.030358393961762
18.34957463006745

VECTORS Ftot float
129.88516858417674 -1.86702859029232e-14 42.041746317652844
154.66590288779295 -4.1059750532084924e-14 92.45833859811177
156.80011099443973 -6.036336072585743e-14 135.9262044359014
1466.1959745227987 -3.5459569285862807e-15 7.984785151126515
1494.6740624426782 1.1640544011542302e-13 -262.1217483638593
1579.480737282983 1.4474943780471507e-13 -325.94675707970237
1640.4432931973793 1.3550337542337292e-13 -305.1264755320739
1612.054594704323 1.3037192424363073e-13 -293.57147472159545
1595.3566595626219 1.360678479434014e-13 -306.3975546475045
1820.5384925340193 1.8231509138281926e-13 -410.5370888078421
2239.556162369561 2.435718631507688e-13 -548.4750760618708
2409.3688834633504 2.673813704190702e-13 -602.0893200925697
2428.6954615132795 2.8083832470779177e-13 -632.3916872526838
2355.4550606335406 2.672649546174171e-13 -601.8271750120972
2433.444621921786 2.604874259938229e-13 -586.5655373202412
2510.987978598332 2.586738501505697e-13 -582.4817275742996
2447.0447923030924 2.3854081870504516e-13 -537.1461711163481
2421.755862505012 2.279725513711335e-13 -513.34854870287
2254.7884946755858 1.9977473338236713e-13 -449.85270740943525
2366.8275051809514 2.045162497875441e-13 -460.5296531671983
2402.997432491638 2.0311376154473246e-13 -457.37153040333925
2560.3702858306974 2.014944692138486e-13 -453.72520823435303
2718.7572642695077 2.1001513252574857e-13 -472.91203629256415
2613.347595681165 1.9783377628166732e-13 -445.48206057170825
2818.0642590174702 2.097452916762161e-13 -472.3044087178623
2987.917153732168 2.1187742360302607e-13 -477.1055429934053
3059.905972119026 2.1006666560343832e-13 -473.02807846730457
3125.814491017384 2.0950018093694874e-13 -471.7524684008478
3201.8360971986135 2.0982479146651324e-13 -472.4834263308413
3281.1454269948294 2.1067725968163367e-13 -474.40301409882215
3363.1910179862098 2.121378859606124e-13 -477.69205208169024
3441.6323450980913 2.1347913558171156e-13 -480.7122777285867
3318.479974964651 2.0427721134789136e-13 -459.99138645332454
3392.2249706944785 2.0532940713613577e-13 -462.3607207332538
3464.45026710208 2.0742530481553394e-13 -467.08026273722595
3535.3366646675404 2.1044429929192455e-13 -473.8784339366791
3599.225569368569 2.110719997804231e-13 -475.29188977973024
3856.358375732718 2.2455519016903282e-13 -505.65333538468445
3887.152239281781 2.2424750898201293e-13 -504.9604989450786
3883.545223275089 2.2201503614963306e-13 -499.9334170370681
3849.90171495627 2.1976606706325012e-13 -494.86918886736726
3765.942647939848 2.129285036336845e-13 -479.47236481061026
3592.8219583609166 1.991797786415939e-13 -448.5129884350108
3354.1827461494895 1.8440840102666736e-13 -415.2508030738448
3110.894550765141 1.6987698058791218e-13 -382.5289532372738
2863.8914684267706 1.5714528505422645e-13 -353.85972360662294
2595.669968997229 1.4155716443963043e-13 -318.7583965109724
2328.654877052029 1.2613573356265822e-13 -284.0324213354464
2056.288773238615 1.1114495389183922e-13 -250.27618646569948
1801.0990533408863 9.686379682381186e-14 -218.1178796407057
129.88516858417674 -1.86702859029232e-14 42.041746317652844
154.66590288779295 -4.1059750532084924e-14 92.45833859811177
156.80011099443973 -6.036336072585743e-14 135.9262044359014
1466.1959745227987 -3.5459569285862807e-15 7.984785151126515
1494.6740624426782 1.1640544011542302e-13 -262.1217483638593
1579.480737282983 1.4474943780471507e-13 -325.94675707970237
1640.4432931973793 1.3550337542337292e-13 -305.1264755320739
1612.054594704323 1.3037192424363073e-13 -293.57147472159545
1595.3566595626219 1.360678479434014e-13 -306.3975546475045
1820.5384925340193 1.8231509138281926e-13 -410.5370888078421
2239.556162369561 2.435718631507688e-13 -548.4750760618708
2409.3688834633504 2.673813704190702e-13 -602.0893200925697
2428.6954615132795 2.8083832470779177e-13 -632.3916872526838
2355.4550606335406 2.672649546174171e-13 -601.8271750120972
2433.444621921786 2.604874259938229e-13 -586.5655373202412
2510.987978598332 2.586738501505697e-13 -582.4817275742996
2447.0447923030924 2.3854081870504516e-13 -537.1461711163481
2421.755862505012 2.279725513711335e-13 -513.34854870287
2254.7884946755858 1.9977473338236713e-13 -449.85270740943525
2366.8275051809514 2.045162497875441e-13 -460.5296531671983
2402.997432491638 2.0311376154473246e-13 -457.37153040333925
2560.3702858306974 2.014944692138486e-13 -453.72520823435303
2718.7572642695077 2.1001513252574857e-13 -472.91203629256415
2613.347595681165 1.9783377628166732e-13 -445.48206057170825
2818.0642590174702 2.097452916762161e-13 -472.3044087178623
2987.917153732168 2.1187742360302607e-13 -477.1055429934053
3059.905972119026 2.1006666560343832e-13 -473.02807846730457
3125.814491017384 2.0950018093694874e-13 -471.7524684008478
3201.8360971986135 2.0982479146651324e-13 -472.4834263308413
3281.1454269948294 2.1067725968163367e-13 -474.40301409882215
3363.1910179862098 2.121378859606124e-13 -477.69205208169024
3441.6323450980913 2.1347913558171156e-13 -480.7122777285867
3318.479974964651 2.0427721134789136e-13 -459.99138645332454
3392.2249706944785 2.0532940713613577e-13 -462.3607207332538
3464.45026710208 2.0742530481553394e-13 -467.08026273722595
3535.3366646675404 2.1044429929192455e-13 -473.8784339366791
3599.225569368569 2.110719997804231e-13 -475.29188977973024
3856.358375732718 2.2455519016903282e-13 -505.65333538468445
3887.152239281781 2.2424750898201293e-13 -504.9604989450786
3883.545223275089 2.2201503614963306e-13 -499.9334170370681
3849.90171495627 2.1976606706325012e-13 -494.86918886736726
3765.942647939848 2.129285036336845e-13 -479.47236481061026
3592.8219583609166 1.991797786415939e-13 -448.5129884350108
3354.1827461494895 1.8440840102666736e-13 -415.2508030738448
3110.894550765141 1.6987698058791218e-13 -382.5289532372738
2863.8914684267706 1.5714528505422645e-13 -353.85972360662294
2595.669968997229 1.4155716443963043e-13 -318.7583965109724
2328.654877052029 1.2613573356265822e-13 -284.0324213354464
2056.288773238615 1.1114495389183922e-13 -250.27618646569948
1801.0990533408863 9.686379682381186e-14 -218.1178796407057

VECTORS D float
105.2462521126943 0.6398288208644081 -34.06652414927591
73.22401037571905 0.5207044080893022 -43.77286925187064
22.24842020348752 0.18091649653006384 -19.286614618929207
640.3562343531661 5.7292764063975685 -723.2041013547633
635.2748670982571 6.205881519599559 -881.4562029138406
572.8922787438792 5.9705910341298125 -939.6273748117774
485.8958809063995 5.29560584658675 -916.9174292373101
404.40930061660805 4.766527448245624 -860.8629892625713
352.2431028587839 4.212016945688266 -832.411778307921
373.8146752626361 4.562270878423544 -968.7611474814885
424.2076371415095 5.309561214646734 -1193.619256524561
415.87728459002267 5.358360349915438 -1260.0269582714427
389.47297628045874 5.179607048506614 -1261.804131353907
344.3242351176419 4.735554051958327 -1185.7907794885602
320.34185783771875 4.563403861854359 -1166.7295174587227
302.0788910940984 4.4626253067711135 -1158.4583298219454
268.72278421530336 4.418315599170634 -1079.422477063357
245.93620190411445 4.112761444490917 -1031.901719469073
210.05820751219008 3.5835701827885624 -917.8126370031196
206.42530442462183 3.601241059064692 -936.6433394187205
197.15638335073314 3.5237333762313705 -926.6688638539035
193.70780983903404 3.5512331747696604 -940.9319528098196
194.97939129976226 3.6690479112148653 -976.7145270824982
178.0249040559241 3.4390947789261497 -917.8308286009377
183.10670694817688 3.630194637426093 -969.7959091762724
182.92385473061978 3.7191464860939707 -993.5320953759027
178.25398291145902 3.71270970263307 -991.2266010624978
174.20726442644985 3.8063047077395744 -990.7368375642452
171.36881687721464 3.7965740834106803 -994.6105716230651
169.14525568652485 3.7934193940321976 -1000.5036946450352
167.50311727068976 3.7963673098132302 -1008.4697632948549
165.97534241563613 3.795081404244877 -1015.8785199103103
155.87475278229095 3.589674630716693 -968.815996341375
154.77635829374796 3.5841136607674464 -975.8359985907948
154.19280298916604 3.5848751213819527 -985.1690415612771
154.10958261528663 3.6052029225903963 -996.6804159249535
153.17280735039893 3.584611251439323 -1002.0439573942749
161.00228701914716 3.7651113539070806 -1064.533467876942
159.22641452744054 3.7173445663966023 -1063.2309635782844
156.2658100265931 3.6391984418666135 -1053.0336100336017
152.87034116748382 3.549000688604578 -1038.8748831065925
147.15768045198539 3.40390217887474 -1007.8467554833313
137.64271700705305 3.1709060639264535 -949.419358048641
126.76657592458452 2.907801974995562 -880.1046570043975
116.17228628705948 2.6530985589860334 -811.3280163816327
106.33723257485532 2.4179251442943555 -746.6043440748082
95.42315152014365 2.160621329870765 -673.1675705002299
84.8033967026876 1.9125219467235017 -600.7657867789176
74.40274387398973 1.671817206847107 -529.0124623570058
64.71539064545281 1.4493902942203563 -461.5678030624443
105.2462521126943 0.6398288208644081 -34.06652414927591
73.22401037571905 0.5207044080893022 -43.77286925187064
22.24842020348752 0.18091649653006384 -19.286614618929207
640.3562343531661 5.7292764063975685 -723.2041013547633
635.2748670982571 6.205881519599559 -881.4562029138406
572.8922787438792 5.9705910341298125 -939.6273748117774
485.8958809063995 5.29560584658675 -916.9174292373101
404.40930061660805 4.766527448245624 -860.8629892625713
352.2431028587839 4.212016945688266 -832.411778307921
373.8146752626361 4.562270878423544 -968.7611474814885
424.2076371415095 5.309561214646734 -1193.619256524561
415.87728459002267 5.358360349915438 -1260.0269582714427
389.47297628045874 5.179607048506614 -1261.804131353907
344.3242351176419 4.735554051958327 -1185.7907794885602
320.34185783771875 4.563403861854359 -1166.7295174587227
302.0788910940984 4.4626253067711135 -1158.4583298219454
268.72278421530336 4.418315599170634 -1079.422477063357
245.93620190411445 4.112761444490917 -1031.901719469073
210.05820751219008 3.5835701827885624 -917.8126370031196
206.42530442462183 3.601241059064692 -936.6433394187205
197.15638335073314 3.5237333762313705 -926.6688638539035
193.70780983903404 3.5512331747696604 -940.9319528098196
194.97939129976226 3.6690479112148653 -976.7145270824982
178.0249040559241 3.4390947789261497 -917.8308286009377
183.10670694817688 3.630194637426093 -969.7959091762724
182.92385473061978 3.7191464860939707 -993.5320953759027
178.25398291145902 3.71270970263307 -991.2266010624978
174.20726442644985 3.8063047077395744 -990.7368375642452
171.36881687721464 3.7965740834106803 -994.6105716230651
169.14525568652485 3.7934193940321976 -1000.5036946450352
167.50311727068976 3.7963673098132302 -1008.4697632948549
165.97534241563613 3.795081404244877 -1015.8785199103103
155.87475278229095 3.589674630716693 -968.815996341375
154.77635829374796 3.5841136607674464 -975.8359985907948
154.19280298916604 3.5848751213819527 -985.1690415612771
154.10958261528663 3.6052029225903963 -996.6804159249535
153.17280735039893 3.584611251439323 -1002.0439573942749
161.00228701914716 3.7651113539070806 -1064.533467876942
159.22641452744054 3.7173445663966023 -1063.2309635782844
156.2658100265931 3.6391984418666135 -1053.0336100336017
152.87034116748382 3.549000688604578 -1038.8748831065925
147.15768045198539 3.40390217887474 -1007.8467554833313
137.64271700705305 3.1709060639264535 -949.419358048641
126.76657592458452 2.907801974995562 -880.1046570043975
116.17228628705948 2.6530985589860334 -811.3280163816327
106.33723257485532 2.4179251442943555 -746.6043440748082
95.42315152014365 2.160621329870765 -673.1675705002299
84.8033967026876 1.9125219467235017 -600.7657867789176
74.40274387398973 1.671817206847107 -529.0124623570058
64.71539064545281 1.4493902942203563 -461.5678030624443

VECTORS L float
24.638916471482457 -0.6398288208644265 76.10827046692873
81.44189251207392 -0.5207044080893432 136.2312078499824
134.5516907909522 -0.18091649653012415 155.2128190548306
825.8397401696326 -5.729276406397572 731.1888865058899
859.3991953444214 -6.205881519599442 619.3344545499812
1006.5884585391041 -5.970591034129668 613.6806177320749
1154.5474122909798 -5.295605846586617 611.7909537052361
1207.645294087715 -4.766527448245493 567.2915145409759
1243.1135567038382 -4.212016945688132 526.0142236604167
1446.7238172713835 -4.562270878423364 558.2240586736465
1815.3485252280514 -5.30956121464649 645.1441804626902
1993.4915988733278 -5.3583603499151735 657.9376381788734