# vtk DataFile Version 4.0
[MyVLM domain - lattices] 
ASCII
DATASET UNSTRUCTURED_GRID
POINTS 152 float
0.0 -2.320747102810776 0.01077289597412534
0.0 -3.7997847919972982 1.6890783089871035
0.0 -5.300676898585256 3.2954246914137175
0.0 -6.780843206434908 4.865541086912276
0.0 -8.23990247956979 6.399747390450018
0.0 -9.650071493430156 7.921356495507941
0.0 -10.98763197393177 9.450270397122296
0.0 -12.24657407187233 10.991531957542158
0.0 -13.463978228626631 12.514026992086048
0.0 -14.654845627902489 14.005168013037517
0.0 -15.8190361151454 15.465072624031556
0.0 -16.956245995338833 16.893995655444524
0.0 -18.06616113781367 18.292200694205018
0.0 -19.146241296023515 19.66181926025323
0.0 -20.198170703197942 21.001438114107398
0.0 -21.225638046962086 22.307962079341742
0.0 -22.229191396037933 23.580931271693785
0.0 -23.207934415379782 24.821097805569792
0.0 -24.16122124269355 26.02900362378252
0.0 -25.089051684953105 27.20464888830011
0.0 -25.991425554287332 28.34803375676516
0.0 -26.868342667980098 29.459158382494703
0.0 -27.719802848470287 30.538022914480205
0.0 -28.545805923351786 31.584627497387583
0.0 -29.34635172537346 32.59897227155719
0.0 -30.121440092439194 33.581057373003816
0.0 -30.87107086760787 34.530882933416706
0.0 -31.595243899093358 35.44844908015954
0.0 -32.293959267817385 36.33375574533093
0.0 -32.96721995786436 37.18680042498675
0.0 -33.6150264488295 38.00758271669882
0.0 -34.237378134944144 38.796103128767406
0.0 -34.83427443424714 39.552362149515886
0.0 -35.405714788584845 40.2763602472908
0.0 -35.9516986636111 40.96809787046179
0.0 -36.47222554878725 41.62757544742166
0.0 -36.96697666750073 42.25506046350844
0.0 -37.43494098227668 42.851401279894404
0.0 -37.87457125472888 43.41789618373876
0.0 -38.28506029746882 43.95522248568152
0.0 -38.666869949148555 44.46299265708005
0.0 -39.019760043533395 44.9414082213333
0.0 -39.334628179070904 45.39810700022677
0.0 -39.6116783351007 45.832917834771806
0.0 -39.857780865676546 46.240075813415835
0.0 -40.077621001151854 46.61564956109733
0.0 -40.27239349106339 46.95863656392064
0.0 -40.44097879271401 47.269976229750036
0.0 -40.584377788638115 47.54882871842005
0.0 -40.704562519882735 47.793539291015435
0.0 -40.80324012645879 48.00267548698268
-0.8152906147965383 0.31963835658515194 2.2263193611190992
-0.840508508576773 -1.077993288070026 3.9729325560739306
-0.8937965186568912 -2.4054923889479833 5.724772945640526
-0.9506477078523391 -3.7002633051104947 7.450454545925732
-1.020681877210228 -4.963077972953411 9.149329625384492
-1.048954977401727 -6.217633647111024 10.801513826393261
-0.9930987765444168 -7.480617657299197 12.393004816742126
-0.9074282632528687 -8.766872423043 13.911348327681816
-0.838943182597301 -10.045145523248191 15.382768254225917
-0.780438039247949 -11.30055355744748 16.819753252217186
-0.7250391551380654 -12.530038378407463 18.224869411871264
-0.6716005320170477 -13.733831295669184 19.59792264143757
-0.6190912009117757 -14.912489220367776 20.93844563698801
-0.5668551203523576 -16.068716011742346 22.244169591232307
-0.5160737545272154 -17.20091632223456 23.51643315971826
-0.46824322159258064 -18.30525919686546 24.758450895355747
-0.4244759216876314 -19.38119684580948 25.970682448385382
-0.3845740908079094 -20.42962044170462 27.152380036175305
-0.34771109645469384 -21.451105853946892 28.30306044692771
-0.3130568676883623 -22.445557926146453 29.422803526334214
-0.28047282351476527 -23.412944866202714 30.5116359511347
-0.25028172479700606 -24.35326463156742 31.56955943523066
-0.22269967179244904 -25.266502511732142 32.59658632220428
-0.19756508903558764 -26.1526216579101 33.59274753185897
-0.17527331282135344 -27.011613619519643 34.55805015507466
-0.15618952887338375 -27.843463435908784 35.49250674532893
-0.13996799493970205 -28.64812746810911 36.39615392006409
-0.12575834684109707 -29.425552847265113 37.26903604151727
-0.11252036551224441 -30.175692883588162 38.1111922870729
-0.10008619772204906 -30.89854004260892 38.92262897890143
-0.0884564051429673 -31.594090925899557 39.70334896862239
-0.07764813403823374 -32.262341569841915 40.453355582106326
-0.06766754153321136 -32.90328756809618 41.17265251671133
-0.05846867713071129 -33.51692350936831 41.86124431305226
-0.05000632361003568 -34.10324445780151 42.519135112804705
-0.0422455662862189 -34.66224606342806 43.146328566025005
-0.03513713503927796 -35.194158474901435 43.742631555062886
-0.028610254341892315 -35.6997247124943 44.30742061188162
-0.02259956362415257 -36.18124504464997 44.8387655820788
-0.017476911002663225 -36.63991038004698 45.33566717462152
-0.013355710955940858 -37.073566897548005 45.79993266003171
-0.010110762084772787 -37.48227457671026 46.23151170948502
-0.007505342360435571 -37.87715179873027 46.62107489342019
-0.005475063785670375 -38.25829654965621 46.968539991780325
-0.003985447751437076 -38.61733605317253 47.28093259808372
-0.0029419419370193198 -38.94876486596261 47.56287232778683
-0.00222865752783443 -39.25170376659135 47.815096935271576
-0.0017402354220029323 -39.52841372989553 48.03570923738629
-0.0014049497009942318 -39.778135671043074 48.22534618193363
-0.0011720086804816246 -39.99868679737748 48.38583934942659
-0.0010052173229800666 -40.188177556217354 48.51877426282323
-0.6209246712649916 -1.049449586157837 2.53720086956754
-0.6503643852126241 -2.4438648402045726 4.259702438193024
-0.6916665849409614 -3.7998483983994493 5.9608310316280955
-0.7392485943984627 -5.1263461900245515 7.633080123911621
-0.7761138204794831 -6.429013604149157 9.271704280161403
-0.765770157729804 -7.716557172574073 10.86939785275455
-0.7126976399239822 -8.997084535853837 12.419357723492036
-0.6548892921938138 -10.268325767421569 13.923488586918927
-0.6072679581919687 -11.519490137327018 15.39084494055661
-0.5645539478947554 -12.74570719382659 16.8255135786668
-0.5237398826831674 -13.945861391589272 18.22843055492532
-0.4840093998483088 -15.12017108515792 19.599412648115788
-0.44472987047405005 -16.26950226627094 20.937733204889902
-0.40609832807983987 -17.39416362514402 22.243133203401545
-0.3691188660449235 -18.49279191343251 23.516756544833893
-0.33476967873007946 -19.564274696378103 24.759536672782364
-0.3033937546858278 -20.608697209245 25.971402066368203
-0.27460694522347623 -21.626416818128483 27.152052859832665
-0.24778798655364606 -22.617533033490837 28.30140555398355
-0.22257363420117282 -23.581998202035994 29.419500134684004
-0.19903295561691423 -24.519799589447228 30.506347287294496
-0.17736802372104568 -25.430930868293633 31.561952321159968
-0.15759928531051376 -26.3153726600936 32.58633149675719
-0.1398144006963529 -27.173107935126808 33.579499103718206
-0.12429856563552642 -28.004127873012244 34.54146254322147
-0.11105907142990716 -28.808410459012592 35.47224028782495
-0.09964737816779967 -29.585919464102982 36.37186273729004
-0.08935451713250306 -30.336617544933812 37.24036122640762
-0.07972746121286005 -31.060484750534126 38.07775249603008
-0.07070347607438114 -31.757517414027408 38.88403962303212
-0.062289202192950394 -32.427712758874755 39.659224937206545
-0.054493378339291916 -33.071067497875696 40.403311196842026
-0.047301081998971 -33.68757780690318 41.11630161076217
-0.040678125277780114 -34.277239669213174 41.79819954941543
-0.03459445871109547 -34.840049472010875 42.44900804429657
-0.029018512997061326 -35.37605197890955 43.06868953427422
-0.023905271017938854 -35.88544590149557 43.65707728052954
-0.01920368173726683 -36.3690526885548 44.2134820056893
-0.015028677985055923 -36.82788722828607 44.73705211744016
-0.01156223323447653 -37.261545259925285 45.228126830840154
-0.008799927390267616 -37.66926930193209 45.68734174837044
-0.006606039166953134 -38.05408341861573 46.11215937878447
-0.00486765230478973 -38.41908144491638 46.499983686325024
-0.003547691826415294 -38.76204462615793 46.85267642722247
-0.0025977711331711486 -39.07921307802923 47.1733925190156
-0.001938974799320156 -39.36892754873464 47.46352423927414
-0.0014883348561890108 -39.63171559665476 47.72262891395553
-0.0011794444211239365 -39.868125598020995 47.95024640076623
-0.0009663593930534462 -40.07742596422282 48.14699057543952
-0.0008164597512981341 -40.25854946339075 48.313756951843445

CELLS 100 350
4 0 51 52 1
4 1 52 53 2
4 2 53 54 3
4 3 54 55 4
4 4 55 56 5
4 5 56 57 6
4 6 57 58 7
4 7 58 59 8
4 8 59 60 9
4 9 60 61 10
4 10 61 62 11
4 11 62 63 12
4 12 63 64 13
4 13 64 65 14
4 14 65 66 15
4 15 66 67 16
4 16 67 68 17
4 17 68 69 18
4 18 69 70 19
4 19 70 71 20
4 20 71 72 21
4 21 72 73 22
4 22 73 74 23
4 23 74 75 24
4 24 75 76 25
4 25 76 77 26
4 26 77 78 27
4 27 78 79 28
4 28 79 80 29
4 29 80 81 30
4 30 81 82 31
4 31 82 83 32
4 32 83 84 33
4 33 84 85 34
4 34 85 86 35
4 35 86 87 36
4 36 87 88 37
4 37 88 89 38
4 38 89 90 39
4 39 90 91 40
4 40 91 92 41
4 41 92 93 42
4 42 93 94 43
4 43 94 95 44
4 44 95 96 45
4 45 96 97 46
4 46 97 98 47
4 47 98 99 48
4 48 99 100 49
4 49 100 101 50
1 102
1 103
1 104
1 105
1 106
1 107
1 108
1 109
1 110
1 111
1 112
1 113
1 114
1 115
1 116
1 117
1 118
1 119
1 120
1 121
1 122
1 123
1 124
1 125
1 126
1 127
1 128
1 129
1 130
1 131
1 132
1 133
1 134
1 135
1 136
1 137
1 138
1 139
1 140
1 141
1 142
1 143
1 144
1 145
1 146
1 147
1 148
1 149
1 150
1 151

CELL_TYPES 100
9
9
9
9
9
9
9
9
9
9
9
9
9
9
9
9
9
9
9
9
9
9
9
9
9
9
9
9
9
9
9
9
9
9
9
9
9
9
9
9
9
9
9
9
9
9
9
9
9
9
1
1
1
1
1
1
1
1
1
1
1
1
1
1
1
1
1
1
1
1
1
1
1
1
1
1
1
1
1
1
1
1
1
1
1
1
1
1
1
1
1
1
1
1
1
1
1
1
1
1

CELL_DATA 100

VECTORS S float
0.0 -0.0 0.0
4.6552536481417147e-17 -3.4869495412082474e-15 6.190808807624371e-15
-5.67383947121008e-17 3.4988116727375038e-15 -6.1840274552613395e-15
-0.0 -0.0 0.0
-1.0610252962473908e-16 -1.3948413638087771e-14 2.4763361366751697e-14
-1.1511933440592303e-16 -2.8175658088461542e-14 4.9368950835583106e-14
1.413699036442088e-17 2.8392408583590192e-14 -4.92447479712633e-14
0.0 -0.0 0.0
-1.233358483669073e-16 2.87310033508014e-14 -4.904781852957387e-14
6.134161134003984e-16 -1.1537940914744296e-13 1.9592346452128448e-13
-3.494266662966491e-16 5.789810939582128e-14 -9.783856039688776e-14
-3.6891509113034364e-16 5.804432874522464e-14 -9.775181263441042e-14
0.0 -0.0 0.0
-1.9381502569463694e-16 2.913771598996856e-14 -4.880707131563018e-14
1.9010622993893626e-16 -2.917499913750229e-14 4.878480862659341e-14
-1.9197594315298322e-16 2.921831821595076e-14 -4.8758868871764804e-14
0.0 -0.0 0.0
-3.787174010095463e-16 5.858355369185502e-14 -9.742956882335448e-14
-1.869581622736798e-16 2.9323556780043774e-14 -4.869567056934705e-14
-3.6970114262662343e-16 5.870418670755209e-14 -9.735696613602472e-14
0.0 -0.0 0.0
-1.8057873151888674e-16 2.940606054011093e-14 -4.864591722455563e-14
1.8156577336401586e-16 -2.943159975904512e-14 4.863046614292919e-14
0.0 -0.0 0.0
0.0 -0.0 0.0
5.298712043338302e-16 -8.846599023351593e-14 1.4578770942222005e-13
1.7227488451788359e-16 -2.950901570294946e-14 4.858356287256536e-14
0.0 -0.0 0.0
0.0 -0.0 0.0
0.0 -0.0 0.0
-1.7049001967930041e-16 2.957888355635883e-14 -4.8541063528705464e-14
0.0 -0.0 0.0
-1.7229341714032117e-16 2.9603253146468886e-14 -4.852619896416527e-14
1.725608825753786e-16 -2.961250849294276e-14 4.852055060778331e-14
0.0 -0.0 0.0
-1.7069650626244362e-16 2.9625031538110095e-14 -4.8512912063222884e-14
0.0 -0.0 0.0
1.7142278678022603e-16 -2.962171281113674e-14 4.8514935969740016e-14
3.4165595017513403e-16 -5.923985212358295e-14 9.703205791246927e-14
0.0 -0.0 0.0
-1.6968415401237277e-16 2.961164391072926e-14 -4.852108840470617e-14
1.7035213118229365e-16 -2.960591275816642e-14 4.852458323048746e-14
-1.687593048729705e-16 2.959921667008369e-14 -4.85286735920087e-14
8.370073249712707e-17 -1.479754293655376e-14 2.42655987804658e-14
-8.273267542413378e-17 1.479388938155273e-14 -2.426782971790256e-14
7.939592283358853e-17 -1.478991690003567e-14 2.427026207777313e-14
-3.871135937297092e-17 7.393078996029103e-15 -1.213627933617663e-14
0.0 -0.0 0.0
0.0 -0.0 0.0
6.54893095786736e-18 -1.8467587685925636e-15 3.0349981294336868e-15
0.0 -0.0 0.0
4.6552536481417147e-17 -3.4869495412082474e-15 6.190808807624371e-15
-5.67383947121008e-17 3.4988116727375038e-15 -6.1840274552613395e-15
-0.0 -0.0 0.0
-1.0610252962473908e-16 -1.3948413638087771e-14 2.4763361366751697e-14
-1.1511933440592303e-16 -2.8175658088461542e-14 4.9368950835583106e-14
1.413699036442088e-17 2.8392408583590192e-14 -4.92447479712633e-14
0.0 -0.0 0.0
-1.233358483669073e-16 2.87310033508014e-14 -4.904781852957387e-14
6.134161134003984e-16 -1.1537940914744296e-13 1.9592346452128448e-13
-3.494266662966491e-16 5.789810939582128e-14 -9.783856039688776e-14
-3.6891509113034364e-16 5.804432874522464e-14 -9.775181263441042e-14
0.0 -0.0 0.0
-1.9381502569463694e-16 2.913771598996856e-14 -4.880707131563018e-14
1.9010622993893626e-16 -2.917499913750229e-14 4.878480862659341e-14
-1.9197594315298322e-16 2.921831821595076e-14 -4.8758868871764804e-14
0.0 -0.0 0.0
-3.787174010095463e-16 5.858355369185502e-14 -9.742956882335448e-14
-1.869581622736798e-16 2.9323556780043774e-14 -4.869567056934705e-14
-3.6970114262662343e-16 5.870418670755209e-14 -9.735696613602472e-14
0.0 -0.0 0.0
-1.8057873151888674e-16 2.940606054011093e-14 -4.864591722455563e-14
1.8156577336401586e-16 -2.943159975904512e-14 4.863046614292919e-14
0.0 -0.0 0.0
0.0 -0.0 0.0
5.298712043338302e-16 -8.846599023351593e-14 1.4578770942222005e-13
1.7227488451788359e-16 -2.950901570294946e-14 4.858356287256536e-14
0.0 -0.0 0.0
0.0 -0.0 0.0
0.0 -0.0 0.0
-1.7049001967930041e-16 2.957888355635883e-14 -4.8541063528705464e-14
0.0 -0.0 0.0
-1.7229341714032117e-16 2.9603253146468886e-14 -4.852619896416527e-14
1.725608825753786e-16 -2.961250849294276e-14 4.852055060778331e-14
0.0 -0.0 0.0
-1.7069650626244362e-16 2.9625031538110095e-14 -4.8512912063222884e-14
0.0 -0.0 0.0
1.7142278678022603e-16 -2.962171281113674e-14 4.8514935969740016e-14
3.4165595017513403e-16 -5.923985212358295e-14 9.703205791246927e-14
0.0 -0.0 0.0
-1.6968415401237277e-16 2.961164391072926e-14 -4.852108840470617e-14
1.7035213118229365e-16 -2.960591275816642e-14 4.852458323048746e-14
-1.687593048729705e-16 2.959921667008369e-14 -4.85286735920087e-14
8.370073249712707e-17 -1.479754293655376e-14 2.42655987804658e-14
-8.273267542413378e-17 1.479388938155273e-14 -2.426782971790256e-14
7.939592283358853e-17 -1.478991690003567e-14 2.427026207777313e-14
-3.871135937297092e-17 7.393078996029103e-15 -1.213627933617663e-14
0.0 -0.0 0.0
0.0 -0.0 0.0
6.54893095786736e-18 -1.8467587685925636e-15 3.0349981294336868e-15

SCALARS Gamma float
LOOKUP_TABLE default
0.0
0.0
0.0
41.1558893502407
71.76893638839623
82.13756277828502
88.34629458569776
88.60613242507506
86.22461859130352
82.38854910642107
81.37767316517169
81.684094796801
84.56933017603687
86.82623644875738
87.25831019398291
88.41571609822981
89.79076621296612
92.48746552655372
93.78419875095976
94.42612773688714
95.65580174571524
98.5943453320737
95.78690453039002
92.7952578891342
91.46874284899319
90.60396567902187
90.85810892276352
90.65152009641788
90.30460943957871
89.3690697899686
90.36660952978139
89.84671186696642
87.91920713974187
86.17712349598375
85.1371177426402
83.26539865272757
80.41825262672889
77.40643549366008
73.66567331415244
69.21421464836367
64.23603795997712
58.67682168225612
50.79039034358487
43.30451749470734
36.622168132232986
29.623868111969255
23.236912577596183
17.050822415107998
11.307605895376582
5.589808313618228
0.0
0.0
0.0
41.1558893502407
71.76893638839623
82.13756277828502
88.34629458569776
88.60613242507506
86.22461859130352
82.38854910642107
81.37767316517169
81.684094796801
84.56933017603687
86.82623644875738
87.25831019398291
88.41571609822981
89.79076621296612
92.48746552655372
93.78419875095976
94.42612773688714
95.65580174571524
98.5943453320737
95.78690453039002
92.7952578891342
91.46874284899319
90.60396567902187
90.85810892276352
90.65152009641788
90.30460943957871
89.3690697899686
90.36660952978139
89.84671186696642
87.91920713974187
86.17712349598375
85.1371177426402
83.26539865272757
80.41825262672889
77.40643549366008
73.66567331415244
69.21421464836367
64.23603795997712
58.67682168225612
50.79039034358487
43.30451749470734
36.622168132232986
29.623868111969255
23.236912577596183
17.050822415107998
11.307605895376582
5.589808313618228

VECTORS Ftot float
132.25505944968882 -37.65155628669028 -21.738136157528945
152.8864624198494 -81.51181923792653 -47.06087077915293
149.61253488397446 -118.66065861302297 -68.50876319244699
902.5007379675434 136.92077690951328 79.05124740636008
1527.8194789699814 464.8590414134527 268.38649269528787
1883.3743271161877 661.9854769794965 382.19749333373454
2230.261996398047 807.2007664831855 466.0375798191387
2488.1733930373543 825.5901207924675 476.65467847982603
2671.9683021096616 797.4924061535015 460.4324553694058
2787.7840493459667 755.6844232433184 436.29460518193633
2982.6554312311036 738.6439211526915 426.45626671278643
3214.984279011904 737.9214106945476 426.03912510528477
3552.590812325259 762.302049982263 440.11529376106233
3872.6295574696387 782.7117641297858 451.898847718218
4118.0903273889635 775.8325924141866 447.9271560764151
4392.054471961979 789.9482871499204 456.0768562318896
4680.859855601726 795.0577230442768 459.02679042090335
5041.645622238655 818.5659076337596 472.59924712180066
5331.293857221907 824.3572322331273 475.9428699382102
5581.9850214652815 827.0822505514661 477.5161599978497
5866.731483972266 830.7695892470095 479.64504598631504
6258.181541529858 855.920062511095 494.16567849558123
6277.537367894452 841.3026496856204 485.7263112659377
6270.939570457656 804.2991601719174 464.36233663424576
6360.268506183234 793.6783495381375 458.23040875582086
6469.88813989849 798.1081830377635 460.7879743192951
6657.056118677753 785.8954625046806 453.73695683198207
6803.6664050429135 783.2482779648161 452.20860412529663
6931.713068034877 781.5332514921255 451.2184331296214
7005.793012429095 779.7791923342722 450.2057266026603
7226.220805216041 792.9513225584301 457.8106595333786
7318.804787440738 803.1813908118878 463.7169921933407
7288.88387256264 791.5011676163258 456.97341218718816
7263.19832336273 783.7536018065047 452.50035298132354
7289.057543304142 771.4627750486922 445.40424084413746
7232.731405409554 763.9444432857556 441.06352997694904
7079.517667350653 754.9108749335885 435.84799685708253
6900.194381036071 733.9597119153927 423.7518372486916
6644.912831933128 705.4117035060863 407.2696369087508
6312.173311282339 671.1959474390511 387.51516093292145
5918.311249376787 628.4455056631936 362.83318186565475
5456.533963866517 584.526309548758 337.47642216639343
4764.568541737313 508.5242495409667 293.5966123619291
4095.0845417985365 435.090941589934 251.19987224891574
3488.58082179216 368.67742600664536 212.8560111490747
2841.921373521806 290.21781908108846 167.55733597009225
2242.88133239463 224.8217041642138 129.80087141887907
1655.054358836742 160.86891214651644 92.87770973203338
1103.4966966409058 100.80047720853615 58.197182650790985
549.4265472584093 38.07501260276839 21.982618775606685
132.25505944968882 -37.65155628669028 -21.738136157528945
152.8864624198494 -81.51181923792653 -47.06087077915293
149.61253488397446 -118.66065861302297 -68.50876319244699
902.5007379675434 136.92077690951328 79.05124740636008
1527.8194789699814 464.8590414134527 268.38649269528787
1883.3743271161877 661.9854769794965 382.19749333373454
2230.261996398047 807.2007664831855 466.0375798191387
2488.1733930373543 825.5901207924675 476.65467847982603
2671.9683021096616 797.4924061535015 460.4324553694058
2787.7840493459667 755.6844232433184 436.29460518193633
2982.6554312311036 738.6439211526915 426.45626671278643
3214.984279011904 737.9214106945476 426.03912510528477
3552.590812325259 762.302049982263 440.11529376106233
3872.6295574696387 782.7117641297858 451.898847718218
4118.0903273889635 775.8325924141866 447.9271560764151
4392.054471961979 789.9482871499204 456.0768562318896
4680.859855601726 795.0577230442768 459.02679042090335
5041.645622238655 818.5659076337596 472.59924712180066
5331.293857221907 824.3572322331273 475.9428699382102
5581.9850214652815 827.0822505514661 477.5161599978497
5866.731483972266 830.7695892470095 479.64504598631504
6258.181541529858 855.920062511095 494.16567849558123
6277.537367894452 841.3026496856204 485.7263112659377
6270.939570457656 804.2991601719174 464.36233663424576
6360.268506183234 793.6783495381375 458.23040875582086
6469.88813989849 798.1081830377635 460.7879743192951
6657.056118677753 785.8954625046806 453.73695683198207
6803.6664050429135 783.2482779648161 452.20860412529663
6931.713068034877 781.5332514921255 451.2184331296214
7005.793012429095 779.7791923342722 450.2057266026603
7226.220805216041 792.9513225584301 457.8106595333786
7318.804787440738 803.1813908118878 463.7169921933407
7288.88387256264 791.5011676163258 456.97341218718816
7263.19832336273 783.7536018065047 452.50035298132354
7289.057543304142 771.4627750486922 445.40424084413746
7232.731405409554 763.9444432857556 441.06352997694904
7079.517667350653 754.9108749335885 435.84799685708253
6900.194381036071 733.9597119153927 423.7518372486916
6644.912831933128 705.4117035060863 407.2696369087508
6312.173311282339 671.1959474390511 387.51516093292145
5918.311249376787 628.4455056631936 362.83318186565475
5456.533963866517 584.526309548758 337.47642216639343
4764.568541737313 508.5242495409667 293.5966123619291
4095.0845417985365 435.090941589934 251.19987224891574
3488.58082179216 368.67742600664536 212.8560111490747
2841.921373521806 290.21781908108846 167.55733597009225
2242.88133239463 224.8217041642138 129.80087141887907
1655.054358836742 160.86891214651644 92.87770973203338
1103.4966966409058 100.80047720853615 58.197182650790985
549.4265472584093 38.07501260276839 21.982618775606685

VECTORS D float
106.45484460236923 30.645941546095358 16.90958157977437
68.83985620054631 37.15320266992159 20.408750619393185
13.121295014817097 10.51154216831853 5.8268540173837176
436.46151672760055 468.4325099773332 262.41480486315953
690.3968733922567 935.1202273617022 529.6815885789499
729.9878932817314 1194.502375927035 683.424007991187
729.8143822822316 1396.0471067468789 805.1103695103219
665.4945380755374 1449.7185405440125 842.4566312609095
589.613993190852 1433.2812657514862 838.0981976212012
518.247325534116 1383.9397376389436 813.3801040810349
474.60335557755377 1375.841264789014 812.4891522240289
444.2661491863688 1388.9151093101052 823.0512207276512
431.32095757615906 1445.0585359339243 858.8622982144722
417.26151336987635 1490.2835233812332 888.0390756819833
394.7108401445198 1494.2333717895347 892.0650007372965
380.61817107764836 1521.6181947219932 910.3175711669742
366.4709870150658 1541.7835858722108 924.1248457095228
360.3401498929893 1590.0275128883804 954.669062083342
349.1584133137563 1609.4231639960233 967.8218405503621
336.92466128077785 1619.0340026687954 974.9637515786038
327.3416507219829 1634.770473039449 985.7655164062058
325.77023743277283 1685.965336647753 1017.9430136585823
308.1835671764279 1648.4854075590436 996.5277115329058
289.1013627698737 1590.5366814899835 962.0620179168327
277.46980647863364 1570.2366038786683 950.8537712586254
269.95460367793345 1568.3221591315469 950.6983283506288
262.213676164891 1560.8340933486545 947.1002581724483
255.45160649767334 1557.3839106464536 945.9992710650455
250.24928459245976 1555.741141282638 945.6536487932442
245.776082589335 1550.9128906106193 943.5460310460237
246.41788375573813 1577.3895786855044 960.3294096252113
245.294627963179 1588.4780899080456 967.674916532955
239.821421105087 1566.8639192961382 955.0088526626371
235.99285669122423 1551.5883926085603 946.1084168050729
233.20436484846493 1539.3402734293638 938.9613158734817
230.4881703204837 1524.3576399623416 930.0575396305626
226.5495473182874 1498.704653220814 914.559123810054
220.5639733236239 1459.1447127481097 890.1290927577015
212.9258028138164 1405.3989740111451 857.2721409517661
203.28616691223263 1337.9957544909669 816.026767182123
191.36474559372093 1255.6455613557955 765.6311698149893
178.0349705046564 1164.5148452329017 709.871038217642
155.89875358926665 1016.6306861874998 619.533986059414
134.23254482525965 873.0394648119154 531.930150181344
114.47591144482476 742.7784590303182 452.4142285113325
92.04027973842642 595.9744618446388 362.8763922719894
72.20586350507547 466.72828462025774 284.087387513438
52.64859324361478 339.82248856312657 206.7776428433448
34.198065490630675 220.47607908654774 134.1179474929827
15.22988951020995 98.09767408736032 59.6583564742609
106.45484460236923 30.645941546095358 16.90958157977437
68.83985620054631 37.15320266992159 20.408750619393185
13.121295014817097 10.51154216831853 5.8268540173837176
436.46151672760055 468.4325099773332 262.41480486315953
690.3968733922567 935.1202273617022 529.6815885789499
729.9878932817314 1194.502375927035 683.424007991187
729.8143822822316 1396.0471067468789 805.1103695103219
665.4945380755374 1449.7185405440125 842.4566312609095
589.613993190852 1433.2812657514862 838.0981976212012
518.247325534116 1383.9397376389436 813.3801040810349
474.60335557755377 1375.841264789014 812.4891522240289
444.2661491863688 1388.9151093101052 823.0512207276512
431.32095757615906 1445.0585359339243 858.8622982144722
417.26151336987635 1490.2835233812332 888.0390756819833
394.7108401445198 1494.2333717895347 892.0650007372965
380.61817107764836 1521.6181947219932 910.3175711669742
366.4709870150658 1541.7835858722108 924.1248457095228
360.3401498929893 1590.0275128883804 954.669062083342
349.1584133137563 1609.4231639960233 967.8218405503621
336.92466128077785 1619.0340026687954 974.9637515786038
327.3416507219829 1634.770473039449 985.7655164062058
325.77023743277283 1685.965336647753 1017.9430136585823
308.1835671764279 1648.4854075590436 996.5277115329058
289.1013627698737 1590.5366814899835 962.0620179168327
277.46980647863364 1570.2366038786683 950.8537712586254
269.95460367793345 1568.3221591315469 950.6983283506288
262.213676164891 1560.8340933486545 947.1002581724483
255.45160649767334 1557.3839106464536 945.9992710650455
250.24928459245976 1555.741141282638 945.6536487932442
245.776082589335 1550.9128906106193 943.5460310460237
246.41788375573813 1577.3895786855044 960.3294096252113
245.294627963179 1588.4780899080456 967.674916532955
239.821421105087 1566.8639192961382 955.0088526626371
235.99285669122423 1551.5883926085603 946.1084168050729
233.20436484846493 1539.3402734293638 938.9613158734817
230.4881703204837 1524.3576399623416 930.0575396305626
226.5495473182874 1498.704653220814 914.559123810054
220.5639733236239 1459.1447127481097 890.1290927577015
212.9258028138164 1405.3989740111451 857.2721409517661
203.28616691223263 1337.9957544909669 816.026767182123
191.36474559372093 1255.6455613557955 765.6311698149893
178.0349705046564 1164.5148452329017 709.871038217642
155.89875358926665 1016.6306861874998 619.533986059414
134.23254482525965 873.0394648119154 531.930150181344
114.47591144482476 742.7784590303182 452.4142285113325
92.04027973842642 595.9744618446388 362.8763922719894
72.20586350507547 466.72828462025774 284.087387513438
52.64859324361478 339.82248856312657 206.7776428433448
34.198065490630675 220.47607908654774 134.1179474929827
15.22988951020995 98.09767408736032 59.6583564742609

VECTORS L float
25.80021484731959 -68.29749783278565 -38.64771773730332
84.04660621930314 -118.66502190784813 -67.46962139854612
136.4912398691574 -129.17220078134153 -74.33561720983072
466.03922123994283 -331.5117330678199 -183.3635574567994
837.4226055777248 -470.2611859482497 -261.29509588366216
1153.3864338344563 -532.5168989475386 -301.22651465745247
1500.4476141158154 -588.8463402636936 -339.0727896911834
1822.6788549618173 -624.1284197515447 -365.80195278108334
2082.3543089188092 -635.7888595979848 -377.66574225179545
2269.53672381185 -628.2553143956251 -377.0854988990985
2508.0520756535498 -637.1973436363228 -386.0328855112425
2770.718129825535 -650.9936986155574 -397.01209562236625
3121.2698547491 -682.7564859516617 -418.7470044534101
3455.368044099762 -707.5717592514472 -436.1402279637653
3723.3794872444437 -718.4007793753478 -444.13784466088117
4011.436300884333 -731.6699075720733 -454.24071493508484
4314.3888685866605 -746.7258628279337 -465.0980552886192
4681.305472345665 -771.4616052546212 -482.06981496154157
4982.1354439081515 -785.0659317628963 -491.8789706121519
5245.060360184504 -791.9517521173296 -497.44759158075414
5539.389833250284 -804.0008837924398 -506.120470419891
5932.411304097086 -830.0452741366579 -523.7773351630012
5969.353800718024 -807.1827578734232 -510.80140026696813
5981.838207687784 -786.2375213180662 -497.6996812825871
6082.798699704602 -776.5582543405314 -492.623362502805
6199.9335362205575 -770.2139760937833 -489.9103540313335
6394.842442512864 -774.9386308439741 -493.3633013404663
6548.21479854524 -774.1356326816374 -493.79066693974875
6681.463783442418 -774.2078897905128 -494.4352156636229
6760.0169298397595 -771.1336982763474 -493.3403044433637
6979.802921460303 -784.4382561270744 -502.5187500918329
7073.51015947756 -785.2966990961575 -503.95792433961407
7049.062451457555 -775.3627516798126 -498.03544047544915
7027.205466671507 -767.8347908020555 -493.60806382374926
7055.853178455677 -767.8774983806717 -493.55707502934416
7002.2432350890695 -760.413196676586 -488.9940096536134
6852.968120032368 -743.7937782872252 -478.71112695297137
6679.630407712446 -725.1850008327175 -466.3772555090103
6431.987029119311 -699.9872705050591 -450.0025040430152
6108.887144370108 -666.7998070519156 -428.5116062492015
5726.946503783066 -627.2000556926016 -402.79798794933447
5278.498993361861 -579.9885356841434 -372.3946160512484
4608.669788148047 -508.10643664653315 -325.937373697485
3960.8519969732765 -437.94852322198165 -280.7302779324283
3374.1049103473356 -374.1010330236728 -239.55821736225784
2749.8810937833796 -305.75664276355013 -195.31905630189715
2170.675468889555 -241.90658045604388 -154.28651609455892
1602.4057655931274 -178.95357641661016 -113.89993311131143
1069.2986311502752 -119.67560187801162 -75.92076484219173