# vtk DataFile Version 4.0
[MyVLM domain - lattices] 
ASCII
DATASET UNSTRUCTURED_GRID
POINTS 152 float
0.0 1.7708707379400632 -1.4999999999999847
0.0 1.8250854161503407 -3.7363636363636
0.0 1.9422959226345604 -5.931651205936864
0.0 2.0669177328625588 -8.085862708719777
0.0 2.198453178611705 -10.198998144712336
0.0 2.3006338360205514 -12.271057513914542
0.0 2.3424976972091525 -14.3020408163264
0.0 2.316199461221036 -16.291948051947898
0.0 2.2701442065185216 -18.24077922077905
0.0 2.2239145876624025 -20.14853432281985
0.0 2.177327645875593 -22.015213358070298
0.0 2.1299869354697822 -23.84081632653039
0.0 2.0814823879797073 -25.62534322820013
0.0 2.0284979470469917 -27.36879406307952
0.0 1.9732322230064614 -29.071168831168567
0.0 1.9205004555720355 -30.73246753246725
0.0 1.871018097648454 -32.352690166975584
0.0 1.8236150669333695 -33.93183673469357
0.0 1.7774482500801783 -35.4699072356212
0.0 1.7325173951111716 -36.96690166975848
0.0 1.6888222567780162 -38.4228200371054
0.0 1.6463625965617534 -39.837662337661975
0.0 1.6051381826728013 -41.21142857142819
0.0 1.5651487900509493 -42.54411873840406
0.0 1.5263942003653654 -43.83573283858958
0.0 1.4888742020145915 -45.08627087198474
0.0 1.4525885901265436 -46.29573283858955
0.0 1.417537166558514 -47.46411873840401
0.0 1.3837200369463065 -48.591428571428125
0.0 1.351141096735454 -49.67766233766188
0.0 1.3198009719930581 -50.722820037105286
0.0 1.2896988719442994 -51.72690166975834
0.0 1.260834036892844 -52.68990723562103
0.0 1.2332057382208443 -53.61183673469338
0.0 1.2068132783889405 -54.492690166975386
0.0 1.1816559909362574 -55.33246753246702
0.0 1.1573177425490748 -56.1311688311683
0.0 1.1324787175379203 -56.888794063079246
0.0 1.1051191396350872 -57.60534322819983
0.0 1.074185300539755 -58.28081632653007
0.0 1.0402800877948237 -58.915213358069956
0.0 1.0030899866468785 -59.508534322819486
0.0 0.950732655758921 -60.06077922077866
0.0 0.8834743712477818 -60.5719480519475
0.0 0.8102837433755242 -61.04204081632598
0.0 0.7372769059977127 -61.47105751391409
0.0 0.6660134938685396 -61.858998144711855
0.0 0.5950320477904593 -62.20586270871927
0.0 0.5256391271196116 -62.51165120593634
0.0 0.46040904861369336 -62.77636363636306
0.0 0.4015703252868329 -62.99999999999942
-0.8152906147965383 -1.675907687402357 -1.4999999999999878
-0.840508508576773 -1.7279610531190055 -3.7363636363636035
-0.8937965186568912 -1.8370990402078555 -5.931651205936867
-0.9506477078523391 -1.954493725696866 -8.08586270871978
-1.020681877210228 -2.0791374181879885 -10.19899814471234
-1.048954977401727 -2.1800955487444575 -12.271057513914545
-0.9930987765444168 -2.235584355515695 -14.302040816326402
-0.9074282632528687 -2.2262284358623434 -16.291948051947905
-0.838943182597301 -2.192824928090113 -18.240779220779057
-0.780438039247949 -2.154802731659053 -20.148534322819856
-0.7250391551380654 -2.1161539742595004 -22.015213358070305
-0.6716005320170477 -2.076576702730483 -23.840816326530398
-0.6190912009117757 -2.0353439212166884 -25.625343228200137
-0.5668551203523576 -1.9889259921580604 -27.368794063079527
-0.5160737545272154 -1.9394054938862708 -29.071168831168567
-0.46824322159258064 -1.8917833829559383 -30.73246753246725
-0.4244759216876314 -1.8467747481983938 -32.352690166975584
-0.3845740908079094 -1.8032162463559367 -33.93183673469357
-0.34771109645469384 -1.7603561333213102 -35.4699072356212
-0.3130568676883623 -1.7183186269394357 -36.96690166975848
-0.28047282351476527 -1.6771452288501698 -38.4228200371054
-0.25028172479700606 -1.6368386054108925 -39.837662337661975
-0.22269967179244904 -1.597417959826531 -41.21142857142819
-0.19756508903558764 -1.5589313947719625 -42.54411873840406
-0.17527331282135344 -1.5213899416980627 -43.83573283858958
-0.15618952887338375 -1.4848131303489949 -45.08627087198474
-0.13996799493970205 -1.4492579273522286 -46.29573283858955
-0.12575834684109707 -1.4147933480971173 -47.46411873840401
-0.11252036551224441 -1.3814803417740735 -48.591428571428125
-0.10008619772204906 -1.3493287439342874 -49.67766233766188
-0.0884564051429673 -1.3183429909102398 -50.722820037105286
-0.07764813403823374 -1.2885282568379508 -51.72690166975834
-0.06766754153321136 -1.2598902937855256 -52.68990723562103
-0.05846867713071129 -1.232436165695674 -53.61183673469338
-0.05000632361003568 -1.2061723158718152 -54.492690166975386
-0.0422455662862189 -1.1811044227935328 -55.33246753246702
-0.03513713503927796 -1.1569320487309416 -56.1311688311683
-0.028610254341892315 -1.1326852496039763 -56.888794063079246
-0.02259956362415257 -1.1053612382193339 -57.60534322819983
-0.017476911002663225 -1.0734053937071277 -58.28081632653007
-0.013355710955940858 -1.0396293298799113 -58.915213358069956
-0.010110762084772787 -1.0039547489864966 -59.508534322819486
-0.007505342360435571 -0.9518676351673786 -60.06077922077866
-0.005475063785670375 -0.8832400767210021 -60.5719480519475
-0.003985447751437076 -0.8090019568816377 -61.04204081632598
-0.0029419419370193198 -0.7363401214857985 -61.47105751391409
-0.00222865752783443 -0.6664023126038301 -61.858998144711855
-0.0017402354220029323 -0.5962370372027601 -62.20586270871927
-0.0014049497009942318 -0.526835210155646 -62.51165120593634
-0.0011720086804816246 -0.4610462649073638 -62.77636363636306
-0.0010052173229800666 -0.4013368373017927 -62.99999999999942
-0.6209246712649916 -0.8269562584342106 -2.618181818181795
-0.6503643852126241 -0.8659748676494602 -4.834007421150234
-0.6916665849409614 -0.92069558027713 -7.0087569573283215
-0.7392485943984627 -0.9794403150225375 -9.142430426716057
-0.7761138204794831 -1.0348264857706355 -11.235027829313442
-0.765770157729804 -1.0754885224438444 -13.286549165120475
-0.7126976399239822 -1.090842651962991 -15.296994434137153
-0.6548892921938138 -1.083852053014726 -17.26636363636348
-0.6072679581919687 -1.068603023133322 -19.194656771799455
-0.5645539478947554 -1.051453485527208 -21.081873840445077
-0.5237398826831674 -1.033859681203072 -22.928014842300346
-0.4840093998483088 -1.015536568549003 -24.733079777365266
-0.44472987047405005 -0.9953536756371935 -26.497068645639825
-0.40609832807983987 -0.9729080360099427 -28.21998144712405
-0.3691188660449235 -0.9499792439935165 -29.901818181817905
-0.33476967873007946 -0.9280194800303138 -31.542578849721412
-0.3033937546858278 -0.9069174773851457 -33.14226345083458
-0.27460694522347623 -0.8862067277522743 -34.700871985157384
-0.24778798655364606 -0.8657573294488612 -36.21840445268984
-0.22257363420117282 -0.8456314894349537 -37.69486085343194
-0.19903295561691423 -0.8258458311804274 -39.13024118738369
-0.17736802372104568 -0.8064086145597146 -40.524545454545084
-0.15759928531051376 -0.7873451363839664 -41.877773654916126
-0.1398144006963529 -0.7686776273742205 -43.18992578849682
-0.12429856563552642 -0.7504176017201521 -44.46100185528716
-0.11105907142990716 -0.7325937976203166 -45.69100185528714
-0.09964737816779967 -0.7152535087078722 -46.87992578849678
-0.08935451713250306 -0.6984454832635939 -48.02777365491606
-0.07972746121286005 -0.6821957654304154 -49.134545454545
-0.07070347607438114 -0.6665091419756338 -50.20024118738358
-0.062289202192950394 -0.6513892374134015 -51.22486085343181
-0.054493378339291916 -0.6368403428791608 -52.20840445268968
-0.047301081998971 -0.6228674504162388 -53.15087198515721
-0.040678125277780114 -0.6094758035115853 -54.052263450834374
-0.03459445871109547 -0.5966701183338555 -54.9125788497212
-0.029018512997061326 -0.5843919601360114 -55.731818181817665
-0.023905271017938854 -0.57238192936472 -56.50998144712378
-0.01920368173726683 -0.5595677007871152 -57.247068645639544
-0.015028677985055923 -0.5446244319505676 -57.94307977736496
-0.01156223323447653 -0.5280798478033173 -58.59801484230002
-0.008799927390267616 -0.5109227702696901 -59.21187384044473
-0.006606039166953134 -0.4892055637569784 -59.78465677179908
-0.00486765230478973 -0.45888951358230495 -60.316363636363086
-0.003547691826415294 -0.4228709982730767 -60.80699443413673
-0.0025977711331711486 -0.38605819821613396 -61.25654916512004
-0.001938974799320156 -0.35061711280032926 -61.665027829312976
-0.0014883348561890108 -0.31585906347009657 -62.03243042671558
-0.0011794444211239365 -0.2810681958956434 -62.358756957327806
-0.0009663593930534462 -0.24719953118196555 -62.644007421149695
-0.0008164597512981341 -0.2156462415908679 -62.88818181818124

CELLS 100 350
4 0 51 52 1
4 1 52 53 2
4 2 53 54 3
4 3 54 55 4
4 4 55 56 5
4 5 56 57 6
4 6 57 58 7
4 7 58 59 8
4 8 59 60 9
4 9 60 61 10
4 10 61 62 11
4 11 62 63 12
4 12 63 64 13
4 13 64 65 14
4 14 65 66 15
4 15 66 67 16
4 16 67 68 17
4 17 68 69 18
4 18 69 70 19
4 19 70 71 20
4 20 71 72 21
4 21 72 73 22
4 22 73 74 23
4 23 74 75 24
4 24 75 76 25
4 25 76 77 26
4 26 77 78 27
4 27 78 79 28
4 28 79 80 29
4 29 80 81 30
4 30 81 82 31
4 31 82 83 32
4 32 83 84 33
4 33 84 85 34
4 34 85 86 35
4 35 86 87 36
4 36 87 88 37
4 37 88 89 38
4 38 89 90 39
4 39 90 91 40
4 40 91 92 41
4 41 92 93 42
4 42 93 94 43
4 43 94 95 44
4 44 95 96 45
4 45 96 97 46
4 46 97 98 47
4 47 98 99 48
4 48 99 100 49
4 49 100 101 50
1 102
1 103
1 104
1 105
1 106
1 107
1 108
1 109
1 110
1 111
1 112
1 113
1 114
1 115
1 116
1 117
1 118
1 119
1 120
1 121
1 122
1 123
1 124
1 125
1 126
1 127
1 128
1 129
1 130
1 131
1 132
1 133
1 134
1 135
1 136
1 137
1 138
1 139
1 140
1 141
1 142
1 143
1 144
1 145
1 146
1 147
1 148
1 149
1 150
1 151

CELL_TYPES 100
9
9
9
9
9
9
9
9
9
9
9
9
9
9
9
9
9
9
9
9
9
9
9
9
9
9
9
9
9
9
9
9
9
9
9
9
9
9
9
9
9
9
9
9
9
9
9
9
9
9
1
1
1
1
1
1
1
1
1
1
1
1
1
1
1
1
1
1
1
1
1
1
1
1
1
1
1
1
1
1
1
1
1
1
1
1
1
1
1
1
1
1
1
1
1
1
1
1
1
1

CELL_DATA 100

VECTORS S float
4.6278044120914795e-18 1.409622202929805e-16 8.769088556386054e-16
1.217091779238595e-17 2.8954547722561393e-16 1.752557818236628e-15
-2.530362264557386e-17 -5.897868409657643e-16 -3.503324948165788e-15
0.0 -0.0 -0.0
0.0 -0.0 -0.0
-2.25149594474317e-17 1.1240627629162502e-15 7.015915757459672e-15
0.0 -0.0 -0.0
0.0 -0.0 -0.0
3.80053960783125e-17 -2.280920234046752e-15 -1.402655874448056e-14
0.0 -0.0 -0.0
4.47138123713625e-17 -2.285104951838374e-15 -1.4025857826551857e-14
4.6515997245537466e-17 -2.287321007097381e-15 -1.4025490743965798e-14
-4.5879342311934944e-17 2.290047572399611e-15 1.402504791217038e-14
0.0 -0.0 -0.0
0.0 -0.0 -0.0
-3.73380994229117e-17 2.298627960447622e-15 1.4023669530560071e-14
0.0 -0.0 -0.0
-3.238335665170809e-17 2.307843657713264e-15 1.4022168188491522e-14
-1.5395262237998568e-17 1.1550305604501838e-15 7.010903317295961e-15
0.0 -0.0 -0.0
2.756899436576104e-17 -2.3143706015988207e-15 -1.4021102681514881e-14
2.5756120624555268e-17 -2.316492702877984e-15 -1.4020755682784806e-14
0.0 -0.0 -0.0
0.0 -0.0 -0.0
2.3212049394180798e-17 -2.322045877641435e-15 -1.4019841506931181e-14
2.283006740017792e-17 -2.323746806133279e-15 -1.4019560310708285e-14
0.0 -0.0 -0.0
0.0 -0.0 -0.0
-1.9880848607450918e-17 2.3290112036440547e-15 1.4018691212154514e-14
-9.69250881027588e-18 1.1647147718043088e-15 7.0093111993803325e-15
0.0 -0.0 -0.0
0.0 -0.0 -0.0
0.0 -0.0 -0.0
1.7334061146451278e-17 -2.338053468471065e-15 -1.4017189348991244e-14
0.0 -0.0 -0.0
-1.675755698642675e-17 2.341694841340837e-15 1.4016582186499696e-14
0.0 -0.0 -0.0
0.0 -0.0 -0.0
-1.598674124360392e-17 2.3465416329138985e-15 1.4015772491221638e-14
0.0 -0.0 -0.0
0.0 -0.0 -0.0
0.0 -0.0 -0.0
-1.425920435182452e-17 2.3526079613560276e-15 1.401475737185038e-14
1.398801263309079e-17 -2.353903228493603e-15 -1.4014540151677079e-14
6.84113759648326e-18 -1.1775563263430744e-15 -7.0071686315708525e-15
0.0 -0.0 -0.0
6.651070947838259e-18 -1.1786051870331824e-15 -7.006992472559e-15
6.56483831498004e-18 -1.1790532480569395e-15 -7.0069171734286265e-15
6.696108827822799e-18 -1.1794196346033105e-15 -7.006855387531806e-15
6.63134897105398e-18 -1.1797596322969962e-15 -7.006798210977538e-15
4.6278044120914795e-18 1.409622202929805e-16 8.769088556386054e-16
1.217091779238595e-17 2.8954547722561393e-16 1.752557818236628e-15
-2.530362264557386e-17 -5.897868409657643e-16 -3.503324948165788e-15
0.0 -0.0 -0.0
0.0 -0.0 -0.0
-2.25149594474317e-17 1.1240627629162502e-15 7.015915757459672e-15
0.0 -0.0 -0.0
0.0 -0.0 -0.0
3.80053960783125e-17 -2.280920234046752e-15 -1.402655874448056e-14
0.0 -0.0 -0.0
4.47138123713625e-17 -2.285104951838374e-15 -1.4025857826551857e-14
4.6515997245537466e-17 -2.287321007097381e-15 -1.4025490743965798e-14
-4.5879342311934944e-17 2.290047572399611e-15 1.402504791217038e-14
0.0 -0.0 -0.0
0.0 -0.0 -0.0
-3.73380994229117e-17 2.298627960447622e-15 1.4023669530560071e-14
0.0 -0.0 -0.0
-3.238335665170809e-17 2.307843657713264e-15 1.4022168188491522e-14
-1.5395262237998568e-17 1.1550305604501838e-15 7.010903317295961e-15
0.0 -0.0 -0.0
2.756899436576104e-17 -2.3143706015988207e-15 -1.4021102681514881e-14
2.5756120624555268e-17 -2.316492702877984e-15 -1.4020755682784806e-14
0.0 -0.0 -0.0
0.0 -0.0 -0.0
2.3212049394180798e-17 -2.322045877641435e-15 -1.4019841506931181e-14
2.283006740017792e-17 -2.323746806133279e-15 -1.4019560310708285e-14
0.0 -0.0 -0.0
0.0 -0.0 -0.0
-1.9880848607450918e-17 2.3290112036440547e-15 1.4018691212154514e-14
-9.69250881027588e-18 1.1647147718043088e-15 7.0093111993803325e-15
0.0 -0.0 -0.0
0.0 -0.0 -0.0
0.0 -0.0 -0.0
1.7334061146451278e-17 -2.338053468471065e-15 -1.4017189348991244e-14
0.0 -0.0 -0.0
-1.675755698642675e-17 2.341694841340837e-15 1.4016582186499696e-14
0.0 -0.0 -0.0
0.0 -0.0 -0.0
-1.598674124360392e-17 2.3465416329138985e-15 1.4015772491221638e-14
0.0 -0.0 -0.0
0.0 -0.0 -0.0
0.0 -0.0 -0.0
-1.425920435182452e-17 2.3526079613560276e-15 1.401475737185038e-14
1.398801263309079e-17 -2.353903228493603e-15 -1.4014540151677079e-14
6.84113759648326e-18 -1.1775563263430744e-15 -7.0071686315708525e-15
0.0 -0.0 -0.0
6.651070947838259e-18 -1.1786051870331824e-15 -7.006992472559e-15
6.56483831498004e-18 -1.1790532480569395e-15 -7.0069171734286265e-15
6.696108827822799e-18 -1.1794196346033105e-15 -7.006855387531806e-15
6.63134897105398e-18 -1.1797596322969962e-15 -7.006798210977538e-15

SCALARS Gamma float
LOOKUP_TABLE default
-0.0
-0.0
-0.0
50.055985986214914
54.48484772344248
53.9015520674227
52.293588103995205
48.34804989126527
45.12691682200134
46.99482540527451
52.17887442959117
53.949076710490246
50.62867060756778
45.43856405894593
43.8765379084379
42.44677339660864
42.39171234324312
37.3104463279038
33.408296524195855
35.18041540588276
35.88693166561639
35.27447236514603
36.33300831963254
37.88103987982185
35.4281634575575
37.61838195961213
39.03536693913609
38.16325224266917
37.38863423913428
36.31901597792353
37.87470453653778
37.71670105098771
37.63342122162702
39.683761919409385
39.793793599031225
41.82386959471485
42.062358129049116
42.19233070961458
42.0632802753996
41.562518729133586
40.78903734077028
39.50659565946848
37.32707943859676
34.52511165341151
30.52195053165156
27.655187101913448
25.273795266798025
22.43995489222431
19.701570864740734
17.169577828977022
-0.0
-0.0
-0.0
50.055985986214914
54.48484772344248
53.9015520674227
52.293588103995205
48.34804989126527
45.12691682200134
46.99482540527451
52.17887442959117
53.949076710490246
50.62867060756778
45.43856405894593
43.8765379084379
42.44677339660864
42.39171234324312
37.3104463279038
33.408296524195855
35.18041540588276
35.88693166561639
35.27447236514603
36.33300831963254
37.88103987982185
35.4281634575575
37.61838195961213
39.03536693913609
38.16325224266917
37.38863423913428
36.31901597792353
37.87470453653778
37.71670105098771
37.63342122162702
39.683761919409385
39.793793599031225
41.82386959471485
42.062358129049116
42.19233070961458
42.0632802753996
41.562518729133586
40.78903734077028
39.50659565946848
37.32707943859676
34.52511165341151
30.52195053165156
27.655187101913448
25.273795266798025
22.43995489222431
19.701570864740734
17.169577828977022

VECTORS Ftot float
114.76390564581978 38.878961442270295 -6.855409884196315
138.2396018891517 86.3807529590267 -15.231257360588906
141.64077522439933 128.25799650294712 -22.61534527508141
1232.3457614342312 -20.555774832345104 3.6245377123104463
1288.9041606230123 -216.8456544507737 38.23573952905584
1370.3532243886573 -272.96089948504294 48.13037125766417
1464.5927569831897 -271.4982797648864 47.87247193848431
1472.905536989973 -279.33170706863416 49.2537165235534
1485.2719266757433 -293.4813118016058 51.74867360433648
1652.942848191581 -367.98619600951594 64.88589488475101
1959.4013755403018 -465.9430700912808 82.15833473122781
2154.8273428556195 -539.6133070117404 95.14838517548966
2149.0142263850676 -538.9291858185927 95.02775615106327
2045.0551592562242 -497.45348847625485 87.71447166591076
2089.4110825963367 -475.9626623514104 83.92505918238636
2129.3095735898632 -456.5980050170281 80.51054762216069
2228.2374443354174 -464.45069730652585 81.8951891440005
2051.6682451330494 -403.5393913466734 71.15488247309024
1914.5133175835379 -363.07125758822036 64.01925863255593
2096.113434553844 -380.88034287022134 67.1594808695107
2217.5648617860134 -387.1130787458862 68.25848036802002
2256.673400453775 -373.1947847889678 65.80430961798373
2398.437951802875 -391.3623036913973 69.00773337301308
2576.1067637998863 -412.237171487842 72.68853578424851
2478.8037842640088 -383.5095987935825 67.62308962798683
2701.486515604234 -415.93705525427555 73.34092511775602
2875.6172511708755 -425.39295464797067 75.00825530772927
2879.300571436893 -411.97298053586144 72.6419517913553
2884.7423732407656 -401.44341715564104 70.78530567234262
2861.497592942864 -389.4507714139098 68.67067865799694
3043.1315780613327 -409.193258345066 72.15181177024402
3086.5812393396873 -412.7825134869989 72.78469429241338
3134.3997883167235 -411.133239358266 72.49388276493332
3359.751383361157 -436.06039049809016 76.88921206308207
3421.787275731115 -436.6804866478389 76.9985517449162
3647.198291562909 -470.83931479411 83.0216747764875
3718.2164576452324 -474.3129103125501 83.63416338645649
3777.4238143275 -476.5554948105659 84.0295915399752
3808.988193346665 -487.8598656427388 86.02285711762107
3807.2959203112136 -470.1306981548087 82.89672654399972
3774.9327824391303 -461.6044822877762 81.39332464329726
3691.0309599332536 -447.3355343405476 78.87732413387621
3517.891732813581 -423.05420382739453 74.59587043690763
3279.8909065123803 -391.33241135828047 69.00246254816825
2920.9168685124914 -344.5444625193415 60.75248479585606
2663.9631194254243 -312.18677271326186 55.04695104964898
2448.7473253256144 -286.1516831830255 50.45626232030787
2185.4482538670604 -254.13228032437692 44.810377690154404
1926.4400255117052 -230.03044737784873 40.56057425715329
1685.3088374182155 -200.5434058557466 35.36121325553592
114.76390564581978 38.878961442270295 -6.855409884196315
138.2396018891517 86.3807529590267 -15.231257360588906
141.64077522439933 128.25799650294712 -22.61534527508141
1232.3457614342312 -20.555774832345104 3.6245377123104463
1288.9041606230123 -216.8456544507737 38.23573952905584
1370.3532243886573 -272.96089948504294 48.13037125766417
1464.5927569831897 -271.4982797648864 47.87247193848431
1472.905536989973 -279.33170706863416 49.2537165235534
1485.2719266757433 -293.4813118016058 51.74867360433648
1652.942848191581 -367.98619600951594 64.88589488475101
1959.4013755403018 -465.9430700912808 82.15833473122781
2154.8273428556195 -539.6133070117404 95.14838517548966
2149.0142263850676 -538.9291858185927 95.02775615106327
2045.0551592562242 -497.45348847625485 87.71447166591076
2089.4110825963367 -475.9626623514104 83.92505918238636
2129.3095735898632 -456.5980050170281 80.51054762216069
2228.2374443354174 -464.45069730652585 81.8951891440005
2051.6682451330494 -403.5393913466734 71.15488247309024
1914.5133175835379 -363.07125758822036 64.01925863255593
2096.113434553844 -380.88034287022134 67.1594808695107
2217.5648617860134 -387.1130787458862 68.25848036802002
2256.673400453775 -373.1947847889678 65.80430961798373
2398.437951802875 -391.3623036913973 69.00773337301308
2576.1067637998863 -412.237171487842 72.68853578424851
2478.8037842640088 -383.5095987935825 67.62308962798683
2701.486515604234 -415.93705525427555 73.34092511775602
2875.6172511708755 -425.39295464797067 75.00825530772927
2879.300571436893 -411.97298053586144 72.6419517913553
2884.7423732407656 -401.44341715564104 70.78530567234262
2861.497592942864 -389.4507714139098 68.67067865799694
3043.1315780613327 -409.193258345066 72.15181177024402
3086.5812393396873 -412.7825134869989 72.78469429241338
3134.3997883167235 -411.133239358266 72.49388276493332
3359.751383361157 -436.06039049809016 76.88921206308207
3421.787275731115 -436.6804866478389 76.9985517449162
3647.198291562909 -470.83931479411 83.0216747764875
3718.2164576452324 -474.3129103125501 83.63416338645649
3777.4238143275 -476.5554948105659 84.0295915399752
3808.988193346665 -487.8598656427388 86.02285711762107
3807.2959203112136 -470.1306981548087 82.89672654399972
3774.9327824391303 -461.6044822877762 81.39332464329726
3691.0309599332536 -447.3355343405476 78.87732413387621
3517.891732813581 -423.05420382739453 74.59587043690763
3279.8909065123803 -391.33241135828047 69.00246254816825
2920.9168685124914 -344.5444625193415 60.75248479585606
2663.9631194254243 -312.18677271326186 55.04695104964898
2448.7473253256144 -286.1516831830255 50.45626232030787
2185.4482538670604 -254.13228032437692 44.810377690154404
1926.4400255117052 -230.03044737784873 40.56057425715329
1685.3088374182155 -200.5434058557466 35.36121325553592

VECTORS D float
90.46783841373214 -30.811828266547153 4.47553498489527
58.87258108789481 -36.927373567197044 5.692035123607745
11.860379135855167 -10.76910276938411 1.7273203696025607
516.1232662685597 -610.6404916752069 98.41846055927913
509.77006826448866 -740.2358764371353 119.6788597279685
460.9347632742573 -790.3639802309527 128.10824387041356
404.11871171756445 -796.3849127645443 129.3807851044443
348.21033392918997 -773.2091200310699 126.44264532003496
308.62706040562665 -759.6406395472443 124.36473056551732
316.0811851607258 -851.8123622513341 139.58889510270643
344.1481811098003 -1005.3198186093708 164.8847080501289
350.3629918785413 -1100.218306139809 180.5890413554016
319.60162339414427 -1071.3673977065578 175.9812469807952
276.2096085519833 -982.5654260876 161.50661579124622
253.67374492919583 -952.7590304442161 156.71083528082787
234.2417473668777 -924.79848002318 152.20793537393615
226.62173792496205 -936.7153911393656 154.56417848882745
191.21471961735605 -824.356505773873 136.11861463577682
165.8248032980477 -743.4125125858645 122.83967534760299
168.85009866133333 -785.043606384889 129.81080309980888
166.90024097484599 -802.7710184511255 132.83626537999777
158.16500628176266 -785.2444979219309 130.02771802307834
159.97111386143172 -818.0636369196254 135.556851227056
163.5053607260551 -859.5731379240633 142.53366534079484
149.11574621476385 -804.4310816576574 133.4813348746637
156.48561052795807 -864.7933723271904 143.5946184709085
158.1627130516196 -893.9585663345318 148.53700331451495
151.17081612193212 -872.5708847477501 145.07985643596652
145.24870935625668 -854.9633030362041 142.24628739579143
138.9785138239572 -832.390376888523 138.5078206294115
143.3400324989283 -873.0696383102566 145.44364376784924
141.66849004287658 -876.5245468495744 146.139646809905
139.5138926874527 -875.8806464329856 146.15040300635275
145.83055284440522 -928.0464429375237 154.9775769197747
144.6199473657876 -932.0262182668054 155.76287552873032
152.27500858058582 -992.9292917367173 166.06681475116898
151.89311294084376 -1001.2729707451477 167.5857492090274
151.2215699552792 -1006.954030357923 168.6571913868065
151.49068108975527 -1017.9769060086853 170.6040130939113
146.94976052028824 -996.0431068391648 167.0410738460069
143.31801435948228 -979.2124618711191 164.3245387570535
138.0259512276177 -950.0077059567122 159.52141479756114
129.76129139039375 -899.1598261698695 151.07081786533212
119.43402533415811 -832.7028269604249 139.98122636783978
104.91997252336901 -735.6030119202588 123.72069203906474
94.68352456623508 -667.1805131062006 112.2647492790706
86.33494273048424 -611.0904243483509 102.86989268726998
76.42048428887178 -543.0627265703214 91.45270936193278
67.843715845781 -483.7786696183148 81.49623748062596
58.99559178114482 -421.9222655033614 71.09639269824446
90.46783841373214 -30.811828266547153 4.47553498489527
58.87258108789481 -36.927373567197044 5.692035123607745
11.860379135855167 -10.76910276938411 1.7273203696025607
516.1232662685597 -610.6404916752069 98.41846055927913
509.77006826448866 -740.2358764371353 119.6788597279685
460.9347632742573 -790.3639802309527 128.10824387041356
404.11871171756445 -796.3849127645443 129.3807851044443
348.21033392918997 -773.2091200310699 126.44264532003496
308.62706040562665 -759.6406395472443 124.36473056551732
316.0811851607258 -851.8123622513341 139.58889510270643
344.1481811098003 -1005.3198186093708 164.8847080501289
350.3629918785413 -1100.218306139809 180.5890413554016
319.60162339414427 -1071.3673977065578 175.9812469807952
276.2096085519833 -982.5654260876 161.50661579124622
253.67374492919583 -952.7590304442161 156.71083528082787
234.2417473668777 -924.79848002318 152.20793537393615
226.62173792496205 -936.7153911393656 154.56417848882745
191.21471961735605 -824.356505773873 136.11861463577682
165.8248032980477 -743.4125125858645 122.83967534760299
168.85009866133333 -785.043606384889 129.81080309980888
166.90024097484599 -802.7710184511255 132.83626537999777
158.16500628176266 -785.2444979219309 130.02771802307834
159.97111386143172 -818.0636369196254 135.556851227056
163.5053607260551 -859.5731379240633 142.53366534079484
149.11574621476385 -804.4310816576574 133.4813348746637
156.48561052795807 -864.7933723271904 143.5946184709085
158.1627130516196 -893.9585663345318 148.53700331451495
151.17081612193212 -872.5708847477501 145.07985643596652
145.24870935625668 -854.9633030362041 142.24628739579143
138.9785138239572 -832.390376888523 138.5078206294115
143.3400324989283 -873.0696383102566 145.44364376784924
141.66849004287658 -876.5245468495744 146.139646809905
139.5138926874527 -875.8806464329856 146.15040300635275
145.83055284440522 -928.0464429375237 154.9775769197747
144.6199473657876 -932.0262182668054 155.76287552873032
152.27500858058582 -992.9292917367173 166.06681475116898
151.89311294084376 -1001.2729707451477 167.5857492090274
151.2215699552792 -1006.954030357923 168.6571913868065
151.49068108975527 -1017.9769060086853 170.6040130939113
146.94976052028824 -996.0431068391648 167.0410738460069
143.31801435948228 -979.2124618711191 164.3245387570535
138.0259512276177 -950.0077059567122 159.52141479756114
129.76129139039375 -899.1598261698695 151.07081786533212
119.43402533415811 -832.7028269604249 139.98122636783978
104.91997252336901 -735.6030119202588 123.72069203906474
94.68352456623508 -667.1805131062006 112.2647492790706
86.33494273048424 -611.0904243483509 102.86989268726998
76.42048428887178 -543.0627265703214 91.45270936193278
67.843715845781 -483.7786696183148 81.49623748062596
58.99559178114482 -421.9222655033614 71.09639269824446

VECTORS L float
24.296067232087612 69.69078970881746 -11.330944869091587
79.36702080125688 123.30812652622377 -20.923292484196654
129.78039608854414 139.0270992723312 -24.34266564468396
716.2224951656716 590.0847168428618 -94.79392284696868
779.1340923585236 523.3902219863618 -81.44312019891267
909.4184611144002 517.40308074591 -79.97787261274938
1060.4740452656256 524.8866329996578 -81.50831316595996
1124.6952030607831 493.8774129624359 -77.18892879648158
1176.6448662701164 466.15932774563845 -72.61605696118082
1336.8616630308557 483.8261662418183 -74.70300021795546
1615.2531944305015 539.3767485180903 -82.72637331890111
1804.464350977078 560.6049991280685 -85.44065617991198
1829.4126029909232 532.4382118879647 -80.95349082973188
1768.845550704241 485.11193761134547 -73.79214412533553
1835.737337667141 476.79636809280595 -72.78577609844153
1895.0678262229853 468.20047500615203 -71.69738775177544
2001.6157064104555 472.26469383284 -72.66898934482698
1860.4535255156934 420.81711442719956 -64.96373216268655
1748.68851428549 380.3412549976441 -58.820416715047024
1927.263335892511 404.1632635146677 -62.651322230298184
2050.6646208111683 415.65793970523947 -64.57778501197774
2098.5083941720122 412.0497131329631 -64.2234084050946
2238.4668379414434 426.7013332282282 -66.54911785404295
2412.601403073831 447.3359664362213 -69.84512955654631
2329.688038049246 420.921482864075 -65.85824524667693
2545.0009050762756 448.8563170729148 -70.2536933531525
2717.4545381192556 468.5656116865612 -73.52874800678569
2728.129755314961 460.59790421188876 -72.43790464461124
2739.493663884509 453.5198858805633 -71.46098172344881
2722.5190791189075 442.93960547461313 -69.83714197141458
2899.791545562405 463.87637996519044 -73.2918319976052
2944.9127492968114 463.7420333625758 -73.35495251749168
2994.885895629271 464.74740707471915 -73.65652024141937
3213.920830516752 491.98605243943354 -78.08836485669262
3277.1673283653276 495.3457316189669 -78.76432378381416
3494.923282982323 522.0899769426073 -83.04513997468148
3566.3233447043876 526.9600604325977 -83.95158582257089
3626.2022443722217 530.3985355473571 -84.62759984683127
3657.49751225691 530.1170403659467 -84.58115597629023
3660.346159790926 525.912408684356 -84.14434730200713
3631.614768079649 517.6079795833433 -82.93121411375625
3553.0050087056356 502.67217161616503 -80.64409066368496
3388.130441423186 476.10562234247476 -76.47494742842446
3160.456881178222 441.37041560214436 -70.97876381967156
2815.9968959891225 391.05854940091734 -62.968207243208695
2569.2795948591893 354.99374039293855 -57.2177982294216
2362.41238259513 324.9387411653256 -52.41363036696215
2109.027769578189 288.93044624594444 -46.64233167177838
1858.5963096659248 253.748222240466 -40.93566322347269
1626.313245637071 221.3788596476148 -35.73517944270854
24.296067232087612 69.69078970881746 -11.330944869091587
79.36702080125688 123.30812652622377 -20.923292484196654
129.78039608854414 139.0270992723312 -24.34266564468396
716.2224951656716 590.0847168428618 -94.79392284696868
779.1340923585236 523.3902219863618 -81.44312019891267