# vtk DataFile Version 4.0
[MyVLM domain - lattices] 
ASCII
DATASET UNSTRUCTURED_GRID
POINTS 62 float
0.0 0.41359390279412556 2.283634346659819
0.0 5.135618272828232 5.286666405000328
0.0 9.595747256430368 8.213649507138568
0.0 13.992106767371558 10.72141950412711
0.0 18.20541919909487 13.016571270727788
0.0 22.19214204641351 15.174522638212931
0.0 25.95504899736925 17.190469437969874
0.0 29.481116545525012 19.086969044840327
0.0 32.77357499832561 20.858426402205783
0.0 35.83271142594001 22.504344289948282
0.0 38.65852543115355 24.0247233960638
0.0 41.251017312348054 25.419563203739823
0.0 43.61019709047443 26.688846356180292
0.0 45.736064760295804 27.83257286245571
0.0 47.62892324660142 28.850218041440225
0.0 49.291044948147935 29.737845983032244
0.0 50.73767867341356 30.469044976192652
0.0 51.96841468949384 31.044524699129493
0.0 52.996526332357284 31.441295059559344
0.0 53.80051142793658 31.696598915440003
0.0 54.3588076406983 31.84778332744523
-0.8152938918039478 2.1369849706879003 -0.7013665442425744
-0.9232602711185554 7.092109561215197 1.8979240889482232
-1.045017403566863 11.851969378773688 4.305758158079066
-0.8624275731409438 16.24071143510024 6.82672197348451
-0.7172432011617597 20.34486216345112 9.310947356567004
-0.5835709082011334 24.21672615461815 11.667840098605977
-0.458823694439046 27.851079084829262 13.906448993809887
-0.35706975050238215 31.26143691532428 16.00336371059819
-0.27205245991127286 34.4451894027858 17.963105323016745
-0.20240159072431146 37.40242668466677 19.785517708417416
-0.1506132401889805 40.13335708678188 21.47024003590462
-0.11426271706148827 42.638317297411476 23.01668914427044
-0.08424963388989035 44.91765070218717 24.424270272154406
-0.059335794404298196 46.97142986360689 25.692857737623328
-0.038970351202568594 48.79932257509441 26.823026939345866
-0.02333805368457717 50.39905312724991 27.81871952162575
-0.011931771028020786 51.75574085302986 28.70570955583291
-0.005641151376299379 52.86973333133218 29.483395017656505
-0.0026418300562744777 53.72741053689357 30.175366482852937
-0.0014569859069231085 54.35036100767981 30.744231506804358
-0.001005086180947595 54.76027047095504 31.15242930809017
-0.6519578110959388 4.154561971416456 1.3949966732221364
-0.7381041280070318 8.945450293653156 4.013920331652596
-0.7152918662654275 13.483237058177963 6.54156367574455
-0.5923765403635137 17.744280845265067 9.018874845626181
-0.4878052910110849 21.760290774964528 11.390932034307458
-0.39089797599006726 25.543825845265626 13.6359824191788
-0.30596004185303555 29.096714192919357 15.750859574504304
-0.23592082890512064 32.421821312272606 17.730600318486363
-0.17792026898834412 35.518641835827914 19.57607997330707
-0.1323805615924845 38.387323521429934 21.28704261487227
-0.0993284839689258 41.02807073701021 22.8631342675411
-0.07444213160676699 43.4411398002023 24.30391097614933
-0.05384453561032071 45.62668794351905 25.60910040599615
-0.036864804602575046 47.58465566537514 26.778805616850438
-0.023365651832679663 49.31438691272279 27.81416292592341
-0.013226184267224234 50.8116381953001 28.72252227395011
-0.006589845901620062 52.0728144894992 29.510110424473805
-0.0031061180372151964 53.094546578316056 30.18276303252714
-0.0015370559861990949 53.878794049251745 30.73708599299641
-0.0009232770329515139 54.43640168806741 31.1542955859461

CELLS 40 140
4 0 21 22 1
4 1 22 23 2
4 2 23 24 3
4 3 24 25 4
4 4 25 26 5
4 5 26 27 6
4 6 27 28 7
4 7 28 29 8
4 8 29 30 9
4 9 30 31 10
4 10 31 32 11
4 11 32 33 12
4 12 33 34 13
4 13 34 35 14
4 14 35 36 15
4 15 36 37 16
4 16 37 38 17
4 17 38 39 18
4 18 39 40 19
4 19 40 41 20
1 42
1 43
1 44
1 45
1 46
1 47
1 48
1 49
1 50
1 51
1 52
1 53
1 54
1 55
1 56
1 57
1 58
1 59
1 60
1 61

CELL_TYPES 40
9
9
9
9
9
9
9
9
9
9
9
9
9
9
9
9
9
9
9
9
1
1
1
1
1
1
1
1
1
1
1
1
1
1
1
1
1
1
1
1

CELL_DATA 40

VECTORS S float
-0.0 0.0 0.0
2.8338383354493267e-17 1.3314743153729911e-14 4.966407496652917e-15
0.0 0.0 0.0
0.0 0.0 0.0
-2.5214227281453524e-16 -5.3081856858673334e-14 -2.0332908412099782e-14
2.3146332298658805e-16 5.3057393761285975e-14 2.0396903190808836e-14
0.0 0.0 0.0
0.0 0.0 0.0
0.0 0.0 0.0
0.0 0.0 0.0
0.0 0.0 0.0
1.709032523401244e-16 5.295234721906363e-14 2.0668671555165988e-14
0.0 0.0 0.0
0.0 0.0 0.0
-1.6964395108337038e-16 -5.293125237205682e-14 -2.072264488526392e-14
8.373157911357204e-17 2.646684832662276e-14 1.0358209093493012e-14
0.0 0.0 0.0
0.0 0.0 0.0
-7.543488617370597e-17 -2.6478254546819008e-14 -1.0329080921268954e-14
7.93003583916476e-18 3.310258577928081e-15 1.2899223795722499e-15
-0.0 0.0 0.0
2.8338383354493267e-17 1.3314743153729911e-14 4.966407496652917e-15
0.0 0.0 0.0
0.0 0.0 0.0
-2.5214227281453524e-16 -5.3081856858673334e-14 -2.0332908412099782e-14
2.3146332298658805e-16 5.3057393761285975e-14 2.0396903190808836e-14
0.0 0.0 0.0
0.0 0.0 0.0
0.0 0.0 0.0
0.0 0.0 0.0
0.0 0.0 0.0
1.709032523401244e-16 5.295234721906363e-14 2.0668671555165988e-14
0.0 0.0 0.0
0.0 0.0 0.0
-1.6964395108337038e-16 -5.293125237205682e-14 -2.072264488526392e-14
8.373157911357204e-17 2.646684832662276e-14 1.0358209093493012e-14
0.0 0.0 0.0
0.0 0.0 0.0
-7.543488617370597e-17 -2.6478254546819008e-14 -1.0329080921268954e-14
7.93003583916476e-18 3.310258577928081e-15 1.2899223795722499e-15

SCALARS Gamma float
LOOKUP_TABLE default
0.0
56.299885807991494
81.28825937647764
82.54219954346452
81.60301268317696
87.9434095592322
90.20164753994507
94.73633656618333
99.5992625970289
91.44733664155211
91.13417917317682
89.92223679047288
90.29616559855836
86.2534112371839
79.91376493827732
70.56183713391238
57.05858963200581
40.40576949385511
23.296287129573397
9.51119256672921
0.0
56.299885807991494
81.28825937647764
82.54219954346452
81.60301268317696
87.9434095592322
90.20164753994507
94.73633656618333
99.5992625970289
91.44733664155211
91.13417917317682
89.92223679047288
90.29616559855836
86.2534112371839
79.91376493827732
70.56183713391238
57.05858963200581
40.40576949385511
23.296287129573397
9.51119256672921

VECTORS Ftot float
132.98320579742207 -27.05620917986486 74.33632377771929
1179.730264514003 101.20090636888749 -278.04720507685875
2031.0511636401147 292.3825036684147 -803.3143266725746
2671.2408393482638 299.3447902654181 -822.4430518856128
3215.217217616844 291.3696023664206 -800.5314032172096
4047.8767787063125 314.1297291575789 -863.0643376398408
4720.229723604214 316.38262332532196 -869.254113494136
5517.922545564732 329.98989080637784 -906.6397736388161
6350.555478308272 346.18349712010144 -951.1313413253092
6300.267791127179 315.8478199883412 -867.7847534019323
6710.2016988185005 314.76420758797786 -864.807552800493
7009.340802884603 312.41687655720057 -858.3583137974473
7390.031326077113 320.0393467635996 -879.3008785699943
7360.233401561977 310.66012294107435 -853.5316729055953
7062.574405208276 299.2504696441884 -822.1839081085953
6424.077359187819 270.0160034470555 -741.8628723621634
5322.198728225778 226.7221130056086 -622.9138859739464
3846.2315971960134 158.61708317943018 -435.7968543752384
2252.8288628845135 89.41194412314869 -245.65729750788847
931.8586376760612 31.610321751432863 -86.84864523375674
132.98320579742207 -27.05620917986486 74.33632377771929
1179.730264514003 101.20090636888749 -278.04720507685875
2031.0511636401147 292.3825036684147 -803.3143266725746
2671.2408393482638 299.3447902654181 -822.4430518856128
3215.217217616844 291.3696023664206 -800.5314032172096
4047.8767787063125 314.1297291575789 -863.0643376398408
4720.229723604214 316.38262332532196 -869.254113494136
5517.922545564732 329.98989080637784 -906.6397736388161
6350.555478308272 346.18349712010144 -951.1313413253092
6300.267791127179 315.8478199883412 -867.7847534019323
6710.2016988185005 314.76420758797786 -864.807552800493
7009.340802884603 312.41687655720057 -858.3583137974473
7390.031326077113 320.0393467635996 -879.3008785699943
7360.233401561977 310.66012294107435 -853.5316729055953
7062.574405208276 299.2504696441884 -822.1839081085953
6424.077359187819 270.0160034470555 -741.8628723621634
5322.198728225778 226.7221130056086 -622.9138859739464
3846.2315971960134 158.61708317943018 -435.7968543752384
2252.8288628845135 89.41194412314869 -245.65729750788847
931.8586376760612 31.610321751432863 -86.84864523375674

VECTORS D float
63.46618607366146 13.090419058826676 -35.41224993022325
534.6358268875559 262.35691304583463 -706.4192032555867
663.1372605711252 518.2986287396153 -1377.029470408365
539.4654209317405 566.2416521471764 -1491.9593048706613
444.415521906159 575.6739682030767 -1508.3872162103726
413.9503845527 633.1148302788828 -1651.5858737299181
370.89856553378644 651.141652816681 -1693.2317676305256
349.2184580576903 687.6481709936509 -1781.6883331362192
335.35370552552513 727.0110510070277 -1877.8912644159216
285.1509625390717 669.6851885719203 -1724.8297505159758
266.6662968689995 670.4124250692149 -1723.4559698743244
252.36385907239077 668.3234660186273 -1714.3059212578619
249.62194892776927 684.777566145012 -1753.397318817565
239.49673519461356 668.7978735265137 -1710.510552865568
228.9194518539901 641.8448839003344 -1641.3198470587643
208.8133295984647 582.6412249731654 -1490.4276463899432
175.9913806679823 487.1767682735644 -1247.3020724822088
126.40374788469305 347.3243540208432 -890.3099643176838
73.22966605087336 200.0729992924413 -513.4152704539358
28.366534337648485 77.21323079336669 -198.32255897602587
63.46618607366146 13.090419058826676 -35.41224993022325
534.6358268875559 262.35691304583463 -706.4192032555867
663.1372605711252 518.2986287396153 -1377.029470408365
539.4654209317405 566.2416521471764 -1491.9593048706613
444.415521906159 575.6739682030767 -1508.3872162103726
413.9503845527 633.1148302788828 -1651.5858737299181
370.89856553378644 651.141652816681 -1693.2317676305256
349.2184580576903 687.6481709936509 -1781.6883331362192
335.35370552552513 727.0110510070277 -1877.8912644159216
285.1509625390717 669.6851885719203 -1724.8297505159758
266.6662968689995 670.4124250692149 -1723.4559698743244
252.36385907239077 668.3234660186273 -1714.3059212578619
249.62194892776927 684.777566145012 -1753.397318817565
239.49673519461356 668.7978735265137 -1710.510552865568
228.9194518539901 641.8448839003344 -1641.3198470587643
208.8133295984647 582.6412249731654 -1490.4276463899432
175.9913806679823 487.1767682735644 -1247.3020724822088
126.40374788469305 347.3243540208432 -890.3099643176838
73.22966605087336 200.0729992924413 -513.4152704539358
28.366534337648485 77.21323079336669 -198.32255897602587

VECTORS L float
69.5170197237606 -40.14662823869153 109.7485737079425
645.0944376264471 -161.15600667694713 428.37199817872795
1367.9139030689896 -225.91612507120067 573.7151437357905
2131.775418416523 -266.8968618817584 669.5162529850487
2770.801695710685 -284.30436583665613 707.8558129931631
3633.9263941536124 -318.9851011213039 788.5215360900773
4349.3311580704285 -334.7590294913591 823.9776541363894
5168.7040875070425 -357.6582801872732 875.0485594974031
6015.201772782747 -380.82755388692624 926.7599230906123
6015.116828588108 -353.8373685835791 857.0449971140434
6443.535401949501 -355.648217481237 858.6484170738314
6756.976943812214 -355.90658946142685 855.9476074604153
7140.409377149346 -364.7382193814124 874.0964402475715
7120.736666367364 -358.13775058543956 856.9788799599731
6833.654953354287 -342.594414256146 819.1359389501689
6215.264029589355 -312.62522152610995 748.56477402778
5146.207347557796 -260.4546552679558 624.3881865082623
3719.8278493113207 -188.70727084141296 454.51310994244545
2179.59919683364 -110.66105516929267 267.75797294604735
903.4921033384127 -45.60290904193383 111.47391374226913
69.5170197237606 -40.14662823869153 109.7485737079425
645.0944376264471 -161.15600667694713 428.37199817872795
1367.9139030689896 -225.91612507120067 573.7151437357905
2131.775418416523 -266.8968618817584 669.5162529850487
2770.801695710685 -284.30436583665613 707.8558129931631
3633.9263941536124 -318.9851011213039 788.5215360900773
4349.3311580704285 -334.7590294913591 823.9776541363894
5168.7040875070425 -357.6582801872732 875.0485594974031
6015.201772782747 -380.82755388692624 926.7599230906123
6015.116828588108 -353.8373685835791 857.0449971140434
6443.535401949501 -355.648217481237 858.6484170738314
6756.976943812214 -355.90658946142685 855.9476074604153
7140.409377149346 -364.7382193814124 874.0964402475715
7120.736666367364 -358.13775058543956 856.9788799599731
6833.654953354287 -342.594414256146 819.1359389501689
6215.264029589355 -312.62522152610995 748.56477402778
5146.207347557796 -260.4546552679558 624.3881865082623
3719.8278493113207 -188.70727084141296 454.51310994244545
2179.59919683364 -110.66105516929267 267.75797294604735
903.4921033384127 -45.60290904193383 111.47391374226913

SCALARS mu float
LOOKUP_TABLE default
-2.9134778190788277
-5.071708691823839
-0.4370540523980737
-0.17385063235737713
-0.18603470824934792
-0.15134145382637193
-0.19957069458901872
-0.21288328442940785
-0.21453052737095896
-0.22198083304927219
-0.2210037710236783
-0.2251684010410537
-0.2103411012994938
-0.2479650062825947
-0.20826140090483136
-0.24799770647112931
-0.2004390830629874
-0.28235139836955897
-0.2999264616234903
-0.335048017046193
-2.9134778190788277
-5.071708691823839
-0.4370540523980737
-0.17385063235737713
-0.18603470824934792
-0.15134145382637193
-0.19957069458901872
-0.21288328442940785
-0.21453052737095896
-0.22198083304927219
-0.2210037710236783
-0.2251684010410537
-0.2103411012994938
-0.2479650062825947
-0.20826140090483136
-0.24799770647112931
-0.2004390830629874
-0.28235139836955897
-0.2999264616234903
-0.335048017046193