# vtk DataFile Version 4.0
[MyVLM domain - lattices] 
ASCII
DATASET UNSTRUCTURED_GRID
POINTS 62 float
0.0 -1.4999999999999987 -1.7708884057650514
0.0 -7.090909090909081 -2.0105782716499543
0.0 -12.416985645932998 -2.3153555027483885
0.0 -17.47822966507174 -2.2889682715182964
0.0 -22.274641148325326 -2.1699717910735545
0.0 -26.806220095693735 -2.0454510717877317
0.0 -31.072966507176986 -1.9098587375773128
0.0 -35.07488038277506 -1.7892418013164437
0.0 -38.81196172248798 -1.677139648115476
0.0 -42.284210526315725 -1.5729781376365015
0.0 -45.4916267942583 -1.47675806430884
0.0 -48.43421052631572 -1.3884788313688257
0.0 -51.111961722487955 -1.3081203969146764
0.0 -53.524880382775045 -1.2356827714201213
0.0 -55.672966507176945 -1.1705601053066657
0.0 -57.55622009569369 -1.1082076010609836
0.0 -59.17464114832527 -1.0181276417266827
0.0 -60.52822966507168 -0.9011396931126827
0.0 -61.61698564593293 -0.7306970832819117
0.0 -62.440909090909 -0.549804160369037
0.0 -62.9999999999999 -0.40158559544091854
-0.8152938918039478 -1.4999999999999973 1.6758937300225527
-0.9232602711185554 -7.090909090909079 1.902404305124037
-1.045017403566863 -12.416985645932996 2.1970887419383227
-0.8624275731409438 -17.47822966507174 2.208241063939143
-0.7172432011617597 -22.274641148325326 2.1089141376390117
-0.5835709082011334 -26.806220095693735 2.0037171446216138
-0.458823694439046 -31.072966507176986 1.8822014373427642
-0.35706975050238215 -35.07488038277506 1.7713989382821513
-0.27205245991127286 -38.81196172248798 1.666089160804965
-0.20240159072431146 -42.284210526315725 1.566452379817069
-0.1506132401889805 -45.4916267942583 1.4729052469478583
-0.11426271706148827 -48.43421052631572 1.386121138758064
-0.08424963388989035 -51.111961722487955 1.3067868265108409
-0.059335794404298196 -53.524880382775045 1.2350474352020981
-0.038970351202568594 -55.672966507176945 1.1702385516793612
-0.02333805368457717 -57.55622009569369 1.1078087571430062
-0.011931771028020786 -59.17464114832527 1.0179967175059432
-0.005641151376299379 -60.52822966507168 0.9014975905640437
-0.0026418300562744777 -61.61698564593293 0.7310713257906851
-0.0014569859069231085 -62.440909090909 0.5498949991174215
-0.001005086180947595 -62.9999999999999 0.40134006507257125
-0.6519578110959388 -4.29545454545454 0.8691784285030953
-0.7381041280070318 -9.75394736842104 0.9965681708485918
-0.7152918662654275 -14.947607655502367 1.0764582054207144
-0.5923765403635137 -19.876435406698537 1.0615656927678263
-0.4878052910110849 -24.540430622009534 1.015308872990074
-0.39089797599006726 -28.939593301435362 0.9628057420660109
-0.30596004185303555 -33.07392344497603 0.9077125734976236
-0.23592082890512064 -36.94342105263152 0.8557603559786789
-0.17792026898834412 -40.54808612440185 0.8059383545142657
-0.1323805615924845 -43.88791866028701 0.7585420847936802
-0.0993284839689258 -46.96291866028701 0.7139802826800126
-0.07444213160676699 -49.773086124401836 0.6727655834404015
-0.05384453561032071 -52.3184210526315 0.6352124521005025
-0.036864804602575046 -54.59892344497599 0.6012018854896989
-0.023365651832679663 -56.61459330143532 0.5694217775124315
-0.013226184267224234 -58.36543062200948 0.5313851476448976
-0.006589845901620062 -59.85143540669848 0.4799019486713243
-0.0031061180372151964 -61.0726076555023 0.4082337465836987
-0.0015370559861990949 -62.028947368420965 0.3202997163841713
-0.0009232770329515139 -62.72045454545445 0.23778942959500282

CELLS 40 140
4 0 21 22 1
4 1 22 23 2
4 2 23 24 3
4 3 24 25 4
4 4 25 26 5
4 5 26 27 6
4 6 27 28 7
4 7 28 29 8
4 8 29 30 9
4 9 30 31 10
4 10 31 32 11
4 11 32 33 12
4 12 33 34 13
4 13 34 35 14
4 14 35 36 15
4 15 36 37 16
4 16 37 38 17
4 17 38 39 18
4 18 39 40 19
4 19 40 41 20
1 42
1 43
1 44
1 45
1 46
1 47
1 48
1 49
1 50
1 51
1 52
1 53
1 54
1 55
1 56
1 57
1 58
1 59
1 60
1 61

CELL_TYPES 40
9
9
9
9
9
9
9
9
9
9
9
9
9
9
9
9
9
9
9
9
1
1
1
1
1
1
1
1
1
1
1
1
1
1
1
1
1
1
1
1

CELL_DATA 40

VECTORS S float
1.5768154997218e-19 3.4987941322600363e-15 -6.166150166314963e-16
-8.048479687099899e-19 1.3995482286254348e-14 -2.464724460044057e-15
7.70148034328466e-18 -2.7993319156147586e-14 4.916054338143262e-15
1.2508617513926849e-17 -2.7995324539600906e-14 4.904611544579571e-15
0.0 -0.0 0.0
0.0 -0.0 0.0
-8.794893420828969e-18 2.7996223041436073e-14 -4.899488239635837e-15
-8.610444632281499e-18 2.799685621551256e-14 -4.895869162311763e-15
8.82610865521147e-18 -2.7997774599448328e-14 4.890614125506945e-15
-1.8851051694616378e-17 5.599799850903992e-14 -9.767193834703841e-15
0.0 -0.0 0.0
1.157508733655943e-17 -2.8002552708920343e-14 4.863175377035773e-15
0.0 -0.0 0.0
0.0 -0.0 0.0
1.3470227230928459e-17 -2.8006252987633464e-14 4.841815681329304e-15
1.333280474370949e-17 -2.8006528915329176e-14 4.840219757145807e-15
-6.55961300094193e-18 1.400319737705784e-14 -2.420498280771287e-15
0.0 -0.0 0.0
2.83467649356654e-18 -7.0014028642307865e-15 1.2113826115207723e-15
0.0 -0.0 0.0
1.5768154997218e-19 3.4987941322600363e-15 -6.166150166314963e-16
-8.048479687099899e-19 1.3995482286254348e-14 -2.464724460044057e-15
7.70148034328466e-18 -2.7993319156147586e-14 4.916054338143262e-15
1.2508617513926849e-17 -2.7995324539600906e-14 4.904611544579571e-15
0.0 -0.0 0.0
0.0 -0.0 0.0
-8.794893420828969e-18 2.7996223041436073e-14 -4.899488239635837e-15
-8.610444632281499e-18 2.799685621551256e-14 -4.895869162311763e-15
8.82610865521147e-18 -2.7997774599448328e-14 4.890614125506945e-15
-1.8851051694616378e-17 5.599799850903992e-14 -9.767193834703841e-15
0.0 -0.0 0.0
1.157508733655943e-17 -2.8002552708920343e-14 4.863175377035773e-15
0.0 -0.0 0.0
0.0 -0.0 0.0
1.3470227230928459e-17 -2.8006252987633464e-14 4.841815681329304e-15
1.333280474370949e-17 -2.8006528915329176e-14 4.840219757145807e-15
-6.55961300094193e-18 1.400319737705784e-14 -2.420498280771287e-15
0.0 -0.0 0.0
2.83467649356654e-18 -7.0014028642307865e-15 1.2113826115207723e-15
0.0 -0.0 0.0

SCALARS Gamma float
LOOKUP_TABLE default
0.0
71.23970807451481
85.66427290500623
101.77946656229244
102.75343604482896
104.88865467437678
106.11288009887149
108.82483353741223
110.62269060412822
103.61878622999974
100.56516784626324
98.5400256015631
96.404896880334
90.24270526161273
81.83188367033071
71.31494864942219
57.1470094940266
40.231486665954435
23.220994632218932
9.460184697487374
0.0
71.23970807451481
85.66427290500623
101.77946656229244
102.75343604482896
104.88865467437678
106.11288009887149
108.82483353741223
110.62269060412822
103.61878622999974
100.56516784626324
98.5400256015631
96.404896880334
90.24270526161273
81.83188367033071
71.31494864942219
57.1470094940266
40.231486665954435
23.220994632218932
9.460184697487374

VECTORS Ftot float
149.72332509767224 -13.140722808133768 -74.52474235840467
1545.5679608737494 71.75818702092995 406.96090146052666
2157.1110039507457 147.03081779933368 833.8532039088834
3177.946546023271 220.97760618341215 1253.2262804906247
3939.934244346276 225.45826061079035 1278.6373344846043
4736.446330908427 228.36202021815282 1295.1053735543792
5470.958768753269 229.296016174328 1300.4023278402321
6264.08953651652 233.48928771594862 1324.1835524989453
6986.496318615323 235.60569348806757 1336.1862860772974
7079.882034922203 220.42195830209636 1250.0750447632092
7349.7857096303105 213.98819240934057 1213.587345223947
7630.808990507013 209.24952356334836 1186.7130187484825
7846.057775942548 204.1711738890457 1157.9122665669483
7660.743558608571 194.16486911773154 1101.1636922358407
7201.34224852158 177.35333728894656 1005.8207574153282
6469.083340315541 155.05004952121612 879.3325269804968
5313.884707966156 126.35332784541338 716.5853310578875
3818.8839887588024 87.03647667212033 493.6083877941759
2240.275529648922 48.36206957557983 274.2749259430721
925.6317435731478 16.398848115946535 93.00248918263954
149.72332509767224 -13.140722808133768 -74.52474235840467
1545.5679608737494 71.75818702092995 406.96090146052666
2157.1110039507457 147.03081779933368 833.8532039088834
3177.946546023271 220.97760618341215 1253.2262804906247
3939.934244346276 225.45826061079035 1278.6373344846043
4736.446330908427 228.36202021815282 1295.1053735543792
5470.958768753269 229.296016174328 1300.4023278402321
6264.08953651652 233.48928771594862 1324.1835524989453
6986.496318615323 235.60569348806757 1336.1862860772974
7079.882034922203 220.42195830209636 1250.0750447632092
7349.7857096303105 213.98819240934057 1213.587345223947
7630.808990507013 209.24952356334836 1186.7130187484825
7846.057775942548 204.1711738890457 1157.9122665669483
7660.743558608571 194.16486911773154 1101.1636922358407
7201.34224852158 177.35333728894656 1005.8207574153282
6469.083340315541 155.05004952121612 879.3325269804968
5313.884707966156 126.35332784541338 716.5853310578875
3818.8839887588024 87.03647667212033 493.6083877941759
2240.275529648922 48.36206957557983 274.2749259430721
925.6317435731478 16.398848115946535 93.00248918263954

VECTORS D float
88.79258197132697 7.785270197844564 44.19785101425098
871.3559288008435 173.56657898950147 985.2811996033854
889.8909424869425 271.20344525618134 1542.9103504512188
949.0866776657134 384.1636161178602 2190.3698691816717
818.4245048739233 409.8567144797708 2338.692515697483
721.8580621501834 428.2727099020496 2445.237613943163
641.4523635788813 438.06698249660786 2502.0122193012608
587.6073027491892 451.227033548119 2579.292542346125
541.4923963920431 458.89489853448566 2626.103048346188
467.2018915860132 430.30969830710706 2466.1816899374626
422.9817626190066 417.8543802331139 2399.2567613202095
391.510214830579 409.2074992991681 2355.317650514656
368.1877189380635 401.18852789819755 2313.7209648514163
340.32570465379683 380.9969441118306 2200.81949086706
307.89309928208615 350.1297618555963 2024.3800970809584
269.5409933024339 309.05784962743246 1787.531207006183
219.0193800838851 252.36538138816854 1459.4042856400326
153.48752879286388 177.52707212636975 1026.188838565887
87.41319511234177 101.45050609123105 586.146828460745
33.018446527394815 38.434554458825275 221.96673296785062
88.79258197132697 7.785270197844564 44.19785101425098
871.3559288008435 173.56657898950147 985.2811996033854
889.8909424869425 271.20344525618134 1542.9103504512188
949.0866776657134 384.1636161178602 2190.3698691816717
818.4245048739233 409.8567144797708 2338.692515697483
721.8580621501834 428.2727099020496 2445.237613943163
641.4523635788813 438.06698249660786 2502.0122193012608
587.6073027491892 451.227033548119 2579.292542346125
541.4923963920431 458.89489853448566 2626.103048346188
467.2018915860132 430.30969830710706 2466.1816899374626
422.9817626190066 417.8543802331139 2399.2567613202095
391.510214830579 409.2074992991681 2355.317650514656
368.1877189380635 401.18852789819755 2313.7209648514163
340.32570465379683 380.9969441118306 2200.81949086706
307.89309928208615 350.1297618555963 2024.3800970809584
269.5409933024339 309.05784962743246 1787.531207006183
219.0193800838851 252.36538138816854 1459.4042856400326
153.48752879286388 177.52707212636975 1026.188838565887
87.41319511234177 101.45050609123105 586.146828460745
33.018446527394815 38.434554458825275 221.96673296785062

VECTORS L float
60.930743126345305 -20.925993005978334 -118.72259337265564
674.2120320729058 -101.80839196857153 -578.3202981428591
1267.2200614638034 -124.17262745684762 -709.0571465423354
2228.8598683575574 -163.1860099344481 -937.143588691047
3121.5097394723534 -184.39845386898048 -1060.0551812128792
4014.5882687582443 -199.91068968389683 -1150.1322403887843
4829.5064051743875 -208.7709663222798 -1201.6098914610284
5676.4822337673295 -217.7377458321703 -1255.1089898471796
6445.003922223279 -223.28920504641803 -1289.9167622688908
6612.68014333619 -209.88774000501073 -1216.1066451742538
6926.803947011304 -203.86618782377343 -1185.6694160962627
7239.298775676433 -199.95797573581982 -1168.604631766174
7477.870057004486 -197.01735400915186 -1155.8086982844682
7320.417853954775 -186.83207499409906 -1099.655798631219
6893.449149239495 -172.7764245666498 -1018.5593396656302
6199.54234701311 -154.0078001062164 -908.1986800256863
5094.865327882272 -126.01205354275524 -742.8189545821451
3665.3964599659394 -90.4905954542494 -532.5804507717111
2152.86233453658 -53.08843651565124 -311.87190251767305
892.6132970457529 -22.035706342878733 -128.964243785211
60.930743126345305 -20.925993005978334 -118.72259337265564
674.2120320729058 -101.80839196857153 -578.3202981428591
1267.2200614638034 -124.17262745684762 -709.0571465423354
2228.8598683575574 -163.1860099344481 -937.143588691047
3121.5097394723534 -184.39845386898048 -1060.0551812128792
4014.5882687582443 -199.91068968389683 -1150.1322403887843
4829.5064051743875 -208.7709663222798 -1201.6098914610284
5676.4822337673295 -217.7377458321703 -1255.1089898471796
6445.003922223279 -223.28920504641803 -1289.9167622688908
6612.68014333619 -209.88774000501073 -1216.1066451742538
6926.803947011304 -203.86618782377343 -1185.6694160962627
7239.298775676433 -199.95797573581982 -1168.604631766174
7477.870057004486 -197.01735400915186 -1155.8086982844682
7320.417853954775 -186.83207499409906 -1099.655798631219
6893.449149239495 -172.7764245666498 -1018.5593396656302
6199.54234701311 -154.0078001062164 -908.1986800256863
5094.865327882272 -126.01205354275524 -742.8189545821451
3665.3964599659394 -90.4905954542494 -532.5804507717111
2152.86233453658 -53.08843651565124 -311.87190251767305
892.6132970457529 -22.035706342878733 -128.964243785211

SCALARS mu float
LOOKUP_TABLE default
-3.0336451568003096
-8.068891471804477
-2.636528728242857
-0.5134065497120525
-0.3309876574159082
-0.32221283364769704
-0.3021862604196641
-0.29218990438887404
-0.2919372395622243
-0.2410860937153742
-0.20521338331707104
-0.2085981263590194
-0.2568875676770331
-0.23518673481750152
-0.2822834583509523
-0.3453861649980897
-0.31679439703498796
-0.3854963272773451
-0.3994475740944403
-0.43412783353394174
-3.0336451568003096
-8.068891471804477
-2.636528728242857
-0.5134065497120525
-0.3309876574159082
-0.32221283364769704
-0.3021862604196641
-0.29218990438887404
-0.2919372395622243
-0.2410860937153742
-0.20521338331707104
-0.2085981263590194
-0.2568875676770331
-0.23518673481750152
-0.2822834583509523
-0.3453861649980897
-0.31679439703498796
-0.3854963272773451
-0.3994475740944403
-0.43412783353394174