# vtk DataFile Version 4.0
[MyVLM domain - lattices] 
ASCII
DATASET UNSTRUCTURED_GRID
POINTS 62 float
0.0 -1.7708884057650112 1.4999999999999696
0.0 -2.0105782716499063 7.09090909090895
0.0 -2.315355502748332 12.416985645932767
0.0 -2.2889682715182387 17.478229665071424
0.0 -2.1699717910734977 22.274641148324918
0.0 -2.0454510717876766 26.806220095693252
0.0 -1.9098587375772589 31.07296650717642
0.0 -1.7892418013163907 35.07488038277443
0.0 -1.6771396481154244 38.81196172248727
0.0 -1.5729781376364513 42.28421052631496
0.0 -1.4767580643087905 45.49162679425748
0.0 -1.388478831368777 48.434210526314835
0.0 -1.3081203969146287 51.111961722487024
0.0 -1.2356827714200742 53.524880382774064
0.0 -1.1705601053066192 55.672966507175936
0.0 -1.1082076010609379 57.55622009569264
0.0 -1.0181276417266385 59.174641148324184
0.0 -0.9011396931126405 60.52822966507058
0.0 -0.7306970832818731 61.616985645931805
0.0 -0.5498041603690021 62.44090909090786
0.0 -0.40158559544088684 62.99999999999876
-0.8152938918039478 1.6758937300225156 1.4999999999999718
-0.9232602711185554 1.9024043051239965 7.090909090908952
-1.045017403566863 2.197088741938278 12.41698564593277
-0.8624275731409438 2.2082410639390995 17.478229665071424
-0.7172432011617597 2.108914137638972 22.274641148324918
-0.5835709082011334 2.0037171446215782 26.806220095693252
-0.458823694439046 1.8822014373427327 31.07296650717642
-0.35706975050238215 1.7713989382821242 35.07488038277443
-0.27205245991127286 1.6660891608049415 38.81196172248727
-0.20240159072431146 1.566452379817049 42.28421052631496
-0.1506132401889805 1.4729052469478414 45.49162679425748
-0.11426271706148827 1.3861211387580503 48.434210526314835
-0.08424963388989035 1.30678682651083 51.111961722487024
-0.059335794404298196 1.2350474352020897 53.524880382774064
-0.038970351202568594 1.1702385516793552 55.672966507175936
-0.02333805368457717 1.1078087571430022 57.55622009569264
-0.011931771028020786 1.0179967175059417 59.174641148324184
-0.005641151376299379 0.9014975905640453 60.52822966507058
-0.0026418300562744777 0.7310713257906909 61.616985645931805
-0.0014569859069231085 0.5498949991174317 62.44090909090786
-0.001005086180947595 0.40134006507258496 62.99999999999876
-0.6519578110959388 0.8691784285030774 4.295454545454462
-0.7381041280070318 0.9965681708485731 9.753947368420862
-0.7152918662654275 1.0764582054206955 14.947607655502097
-0.5923765403635137 1.0615656927678097 19.876435406698175
-0.4878052910110849 1.0153088729900601 24.540430622009087
-0.39089797599006726 0.9628057420659999 28.939593301434833
-0.30596004185303555 0.9077125734976151 33.07392344497543
-0.23592082890512064 0.855760355978673 36.943421052630846
-0.17792026898834412 0.8059383545142623 40.54808612440111
-0.1323805615924845 0.7585420847936791 43.88791866028621
-0.0993284839689258 0.7139802826800135 46.96291866028616
-0.07444213160676699 0.6727655834404044 49.773086124400926
-0.05384453561032071 0.635212452100507 52.31842105263054
-0.036864804602575046 0.601201885489705 54.598923444975
-0.023365651832679663 0.5694217775124392 56.61459330143428
-0.013226184267224234 0.5313851476449069 58.36543062200841
-0.006589845901620062 0.47990194867133507 59.851435406697384
-0.0031061180372151964 0.40823374658371164 61.07260765550119
-0.0015370559861990949 0.3202997163841865 62.028947368419836
-0.0009232770329515139 0.23778942959502014 62.72045454545331

CELLS 40 140
4 0 21 22 1
4 1 22 23 2
4 2 23 24 3
4 3 24 25 4
4 4 25 26 5
4 5 26 27 6
4 6 27 28 7
4 7 28 29 8
4 8 29 30 9
4 9 30 31 10
4 10 31 32 11
4 11 32 33 12
4 12 33 34 13
4 13 34 35 14
4 14 35 36 15
4 15 36 37 16
4 16 37 38 17
4 17 38 39 18
4 18 39 40 19
4 19 40 41 20
1 42
1 43
1 44
1 45
1 46
1 47
1 48
1 49
1 50
1 51
1 52
1 53
1 54
1 55
1 56
1 57
1 58
1 59
1 60
1 61

CELL_TYPES 40
9
9
9
9
9
9
9
9
9
9
9
9
9
9
9
9
9
9
9
9
1
1
1
1
1
1
1
1
1
1
1
1
1
1
1
1
1
1
1
1

CELL_DATA 40

VECTORS S float
-0.0 0.0 0.0
1.274073722280206e-17 1.1835499389928267e-15 7.006150522909843e-15
-1.455211246272965e-16 -4.59305366470171e-15 -2.8047749438801208e-14
0.0 0.0 0.0
-1.2278307784142002e-16 -4.474395019448623e-15 -2.8067031914187952e-14
1.1371597954722358e-16 4.436016334583031e-15 2.8073161466098257e-14
-1.0368671970599471e-16 -4.4084606184201015e-15 -2.8077540686219502e-14
0.0 0.0 0.0
-1.8521945729331354e-16 -8.709164858536024e-15 -5.617197173862376e-14
0.0 0.0 0.0
-8.849076040855313e-17 -4.302136648987544e-15 -2.8094080454520604e-14
8.586951432629994e-17 4.280398050763591e-15 2.8097408882312348e-14
-8.521257594396771e-17 -4.262032997175014e-15 -2.8100202499167307e-14
1.689979192774847e-16 8.49911742573044e-15 5.620418765957026e-14
8.556691481607278e-17 4.244548265391711e-15 2.8102847814272576e-14
-1.2715978349259695e-16 -6.368979252702579e-15 -4.215394951006747e-14
0.0 0.0 0.0
0.0 0.0 0.0
0.0 0.0 0.0
-4.0727720011718e-18 -2.6769305845213964e-16 -1.756065904192896e-15
-0.0 0.0 0.0
1.274073722280206e-17 1.1835499389928267e-15 7.006150522909843e-15
-1.455211246272965e-16 -4.59305366470171e-15 -2.8047749438801208e-14
0.0 0.0 0.0
-1.2278307784142002e-16 -4.474395019448623e-15 -2.8067031914187952e-14
1.1371597954722358e-16 4.436016334583031e-15 2.8073161466098257e-14
-1.0368671970599471e-16 -4.4084606184201015e-15 -2.8077540686219502e-14
0.0 0.0 0.0
-1.8521945729331354e-16 -8.709164858536024e-15 -5.617197173862376e-14
0.0 0.0 0.0
-8.849076040855313e-17 -4.302136648987544e-15 -2.8094080454520604e-14
8.586951432629994e-17 4.280398050763591e-15 2.8097408882312348e-14
-8.521257594396771e-17 -4.262032997175014e-15 -2.8100202499167307e-14
1.689979192774847e-16 8.49911742573044e-15 5.620418765957026e-14
8.556691481607278e-17 4.244548265391711e-15 2.8102847814272576e-14
-1.2715978349259695e-16 -6.368979252702579e-15 -4.215394951006747e-14
0.0 0.0 0.0
0.0 0.0 0.0
0.0 0.0 0.0
-4.0727720011718e-18 -2.6769305845213964e-16 -1.756065904192896e-15

SCALARS Gamma float
LOOKUP_TABLE default
0.0
55.62840510858797
80.7191408735947
81.24799319970434
80.42478907177922
86.86020798060945
89.22571253846701
93.72485709236578
98.59988779273161
90.50053707970633
90.4337012806865
89.2101897010748
89.70103817916156
85.82238577817202
79.67860838639423
70.4422160752737
57.01832551263698
40.40159336452927
23.292423237813292
9.512528049197737
0.0
55.62840510858797
80.7191408735947
81.24799319970434
80.42478907177922
86.86020798060945
89.22571253846701
93.72485709236578
98.59988779273161
90.50053707970633
90.4337012806865
89.2101897010748
89.70103817916156
85.82238577817202
79.67860838639423
70.4422160752737
57.01832551263698
40.40159336452927
23.292423237813292
9.512528049197737

VECTORS Ftot float
131.47120813591275 -77.3263211977635 13.634716746094561
1160.6127343950554 285.335457782549 -50.31233975986435
2012.563263711353 830.7879881821945 -146.49033756502567
2626.1293151571444 839.6443671911411 -148.05195613568307
3165.1596516832155 818.8884150504961 -144.39212176299375
3996.417753762604 884.0888489992118 -155.88871742205245
4666.959151033382 892.2028207877281 -157.3194295690752
5456.179229039661 928.5260171037164 -163.7241891051542
6284.769567438751 973.7277154719943 -171.69446810132737
6233.338893466847 886.7555975900941 -156.35893714939127
6653.922209579724 903.6274523754948 -159.33390036265263
6950.886657143478 885.6504485186578 -156.16406955039213
7339.308661993448 902.7275426210881 -159.17522199274802
7321.811563388101 876.8234821278838 -154.60763721789192
7041.87772020647 847.7784033581722 -149.48620617398913
6413.403138755721 766.5451853274043 -135.16259810539142
5318.734673832221 644.8635462252926 -113.70684207485905
3845.6258410108776 451.7667973836416 -79.65867536699008
2252.30966457966 254.91524292769148 -44.94843512200456
931.8554086740614 90.47314853994804 -15.952857117237446
131.47120813591275 -77.3263211977635 13.634716746094561
1160.6127343950554 285.335457782549 -50.31233975986435
2012.563263711353 830.7879881821945 -146.49033756502567
2626.1293151571444 839.6443671911411 -148.05195613568307
3165.1596516832155 818.8884150504961 -144.39212176299375
3996.417753762604 884.0888489992118 -155.88871742205245
4666.959151033382 892.2028207877281 -157.3194295690752
5456.179229039661 928.5260171037164 -163.7241891051542
6284.769567438751 973.7277154719943 -171.69446810132737
6233.338893466847 886.7555975900941 -156.35893714939127
6653.922209579724 903.6274523754948 -159.33390036265263
6950.886657143478 885.6504485186578 -156.16406955039213
7339.308661993448 902.7275426210881 -159.17522199274802
7321.811563388101 876.8234821278838 -154.60763721789192
7041.87772020647 847.7784033581722 -149.48620617398913
6413.403138755721 766.5451853274043 -135.16259810539142
5318.734673832221 644.8635462252926 -113.70684207485905
3845.6258410108776 451.7667973836416 -79.65867536699008
2252.30966457966 254.91524292769148 -44.94843512200456
931.8554086740614 90.47314853994804 -15.952857117237446

VECTORS D float
62.3403447095484 36.689710523136846 -6.33190139388271
522.3531532263548 729.6698892885669 -124.21313449795885
649.6994786469673 1433.3305618881427 -238.09073178518784
522.0742380848912 1537.5238656752636 -249.94190229081366
430.894279275894 1558.0635052924886 -250.2686474072212
401.37491596105787 1709.6665971067705 -271.78099276081406
360.24181594348374 1756.54585437101 -277.1259635092875
337.81472074741947 1845.6907311733912 -289.1248935761566
323.900383832373 1945.6629124780418 -302.7326830603041
274.6601796615451 1785.1154021320342 -275.78481172530115
260.4867284458022 1807.0747260173998 -277.54363014506214
244.73212895876014 1786.494266441265 -272.9049371401752
241.54917866227137 1824.451932797825 -277.45199940484616
232.0320209253569 1782.295048656148 -270.2138126532048
222.3840584953287 1715.2416462268943 -259.7407465695536
203.2578386637113 1560.2364658344782 -236.3470094442283
171.62759171537445 1307.5945594412367 -198.39647821218017
123.48288271428362 934.2452835275258 -142.0744765509074
71.60535559437302 538.9651427001415 -82.15841296676062
27.796463170452096 208.54437163575741 -31.854777881356274
62.3403447095484 36.689710523136846 -6.33190139388271
522.3531532263548 729.6698892885669 -124.21313449795885
649.6994786469673 1433.3305618881427 -238.09073178518784
522.0742380848912 1537.5238656752636 -249.94190229081366
430.894279275894 1558.0635052924886 -250.2686474072212
401.37491596105787 1709.6665971067705 -271.78099276081406
360.24181594348374 1756.54585437101 -277.1259635092875
337.81472074741947 1845.6907311733912 -289.1248935761566
323.900383832373 1945.6629124780418 -302.7326830603041
274.6601796615451 1785.1154021320342 -275.78481172530115
260.4867284458022 1807.0747260173998 -277.54363014506214
244.73212895876014 1786.494266441265 -272.9049371401752
241.54917866227137 1824.451932797825 -277.45199940484616
232.0320209253569 1782.295048656148 -270.2138126532048
222.3840584953287 1715.2416462268943 -259.7407465695536
203.2578386637113 1560.2364658344782 -236.3470094442283
171.62759171537445 1307.5945594412367 -198.39647821218017
123.48288271428362 934.2452835275258 -142.0744765509074
71.60535559437302 538.9651427001415 -82.15841296676062
27.796463170452096 208.54437163575741 -31.854777881356274

VECTORS L float
69.13086342636439 -114.01603172090034 19.96661813997727
638.2595811687008 -444.334431506018 73.90079473809452
1362.863785064386 -602.542573705948 91.60039422016212
2104.0550770722534 -697.8794984841223 101.88994615513057
2734.265372407322 -739.1750902419924 105.8765256442274
3595.042837801547 -825.5777481075588 115.89227533876162
4306.717335089899 -864.3430335832819 119.80653394021223
5118.364508292241 -917.1647140696753 125.4007044710024
5960.869183606379 -971.9351970060478 131.03821495897677
5958.678713805302 -898.3598045419408 119.42587457590993
6393.435481133922 -903.4472736419045 118.2097297824095
6706.1545281847175 -900.8438179226072 116.74086758978305
7097.759483331178 -921.7243901767373 118.27677741209817
7089.779542462743 -905.4715665282645 115.60617543531293
6819.493661711141 -867.4632428687222 110.25454039556448
6210.14530009201 -793.6912805070737 101.18441133883685
5147.107082116848 -662.7310132159444 84.68963613732114
3722.142958296594 -482.47848614388397 62.41580118391728
2180.7043089852864 -284.0498997724501 37.20997784475607
904.0589455036094 -118.0712230958094 15.901920764118831
69.13086342636439 -114.01603172090034 19.96661813997727
638.2595811687008 -444.334431506018 73.90079473809452
1362.863785064386 -602.542573705948 91.60039422016212
2104.0550770722534 -697.8794984841223 101.88994615513057
2734.265372407322 -739.1750902419924 105.8765256442274
3595.042837801547 -825.5777481075588 115.89227533876162
4306.717335089899 -864.3430335832819 119.80653394021223
5118.364508292241 -917.1647140696753 125.4007044710024
5960.869183606379 -971.9351970060478 131.03821495897677
5958.678713805302 -898.3598045419408 119.42587457590993
6393.435481133922 -903.4472736419045 118.2097297824095
6706.1545281847175 -900.8438179226072 116.74086758978305
7097.759483331178 -921.7243901767373 118.27677741209817
7089.779542462743 -905.4715665282645 115.60617543531293
6819.493661711141 -867.4632428687222 110.25454039556448
6210.14530009201 -793.6912805070737 101.18441133883685
5147.107082116848 -662.7310132159444 84.68963613732114
3722.142958296594 -482.47848614388397 62.41580118391728
2180.7043089852864 -284.0498997724501 37.20997784475607
904.0589455036094 -118.0712230958094 15.901920764118831

SCALARS mu float
LOOKUP_TABLE default
-2.8983776605283387
-4.990481163464326
-0.40823294384337294
-0.17288341934964235
-0.1843114297063294
-0.1514701519548089
-0.1970471302576122
-0.21113467168739605
-0.21299602565862097
-0.22175593152209125
-0.14281692334713078
-0.19747539213386026
-0.2092307161496235
-0.2510774556433239
-0.2054879616944346
-0.24266645481269505
-0.19401203411650123
-0.27504423410642154
-0.29216422126714553
-0.32602520080188874
-2.8983776605283387
-4.990481163464326
-0.40823294384337294
-0.17288341934964235
-0.1843114297063294
-0.1514701519548089
-0.1970471302576122
-0.21113467168739605
-0.21299602565862097
-0.22175593152209125
-0.14281692334713078
-0.19747539213386026
-0.2092307161496235
-0.2510774556433239
-0.2054879616944346
-0.24266645481269505
-0.19401203411650123
-0.27504423410642154
-0.29216422126714553
-0.32602520080188874