# vtk DataFile Version 4.0
[MyVLM domain - lattices] 
ASCII
DATASET UNSTRUCTURED_GRID
POINTS 152 float
0.0 -1.483494965805445 1.7847201060452942
0.0 -1.1485455311788537 3.9965226337647852
0.0 -0.8827676607877364 6.178812243226279
0.0 -0.6314212839272901 8.32193678303863
0.0 -0.3940162930734419 10.425809834021894
0.0 -0.1348352632179024 12.48413345046568
0.0 0.1766134310483225 14.49153113612473
0.0 0.5480559029318806 16.446640568784694
0.0 0.9318224558779167 18.357867202110395
0.0 1.3086279398503993 20.228611528380178
0.0 1.678652534071485 22.058841777135825
0.0 2.0422866613286703 23.84848910630601
0.0 2.3999341602258126 25.597482308249024
0.0 2.7548607087740664 27.3052455558212
0.0 3.104901098469842 28.972160633700575
0.0 3.4453132439102605 30.5990636994885
0.0 3.775392561527816 32.186078990278084
0.0 4.096291357445526 33.73300332340982
0.0 4.408839936223792 35.23969029378749
0.0 4.713038546012217 36.70613985765563
0.0 5.008887428333258 38.13235197242731
0.0 5.296386818082237 39.51832659668415
0.0 5.5755369435273305 40.86406369017631
0.0 5.846338026309578 42.16956321382249
0.0 6.108790281442878 43.43482512970996
0.0 6.3628939173139845 44.659849401094476
0.0 6.608649135682515 45.844635992400406
0.0 6.846056131680948 46.98918486922062
0.0 7.075114801278318 48.09349604989858
0.0 7.295821308209669 49.15757021087131
0.0 7.50817503591926 50.18140746085421
0.0 7.712176763168265 51.165007662530684
0.0 7.90782723811153 52.10837068398084
0.0 8.095127178297554 53.011496398681544
0.0 8.274077270668506 53.8743846855063
0.0 8.444678171560225 54.697035428725435
0.0 8.607339692286352 55.47937636754735
0.0 8.763361597570423 56.22117831838271
0.0 8.914732978740226 56.922090550763336
0.0 9.062491535899824 57.581930090162984
0.0 9.206043540722773 58.20080162690483
0.0 9.34569774496892 58.77865071972327
0.0 9.493155970510879 59.31341402169871
0.0 9.648155986564353 59.8051377711936
0.0 9.801865436209518 60.25537935103615
0.0 9.94826110340695 60.66520081672474
0.0 10.085807047758857 61.034872995992274
0.0 10.215942525613691 61.364142109112365
0.0 10.337380827187756 61.6532350377362
0.0 10.447586745379365 61.902598807277506
0.0 10.544365623294512 62.1126203949601
-0.8152906147965383 1.9109191503870129 1.1861933136628866
-0.840508508576773 2.350522178570284 3.379542589210237
-0.8937965186568912 2.8392098003147965 5.522527195245113
-0.9506477078523391 3.328895898514201 7.623626011610869
-1.020681877210228 3.818588090867054 9.683014022082425
-1.048954977401727 4.277821774048341 11.706062958182565
-0.9930987765444168 4.685144130497839 13.696555530459372
-0.9074282632528687 5.021474113478575 15.657856242272734
-0.838943182597301 5.326989061094727 17.58288074490184
-0.780438039247949 5.620822704167042 19.468255245361377
-0.7250391551380654 5.906906520995982 21.3132865179529
-0.6716005320170477 6.184943145767573 23.118026996292556
-0.6190912009117757 6.454216627327096 24.882602921885788
-0.5668551203523576 6.7112509512400855 26.607627209862734
-0.5160737545272154 6.958097056793828 28.292738224291245
-0.46824322159258064 7.1996799247757854 29.93706755817902
-0.4244759216876314 7.436703780211149 31.540491037653624
-0.3845740908079094 7.6680229536403175 33.103210675151765
-0.34771109645469384 7.892897121638186 34.62535700966774
-0.3130568676883623 8.111448614901494 36.10690847099914
-0.28047282351476527 8.323718304566935 37.54785785246183
-0.25028172479700606 8.52970881648393 38.94820469104772
-0.22269967179244904 8.729439062117573 40.30794565215526
-0.19756508903558764 8.922956413355024 41.62707238284263
-0.17527331282135344 9.110271734054631 42.90558296751847
-0.15618952887338375 9.291404257259863 44.1434740148783
-0.13996799493970205 9.466410084147114 45.340735632771086
-0.12575834684109707 9.635357181606896 46.49735583680023
-0.11252036551224441 9.798305572874467 47.61332404324988
-0.10008619772204906 9.955264944076896 48.688638544194504
-0.0884564051429673 10.106239664148804 49.723298569273034
-0.07764813403823374 10.251234828619456 50.7173032200062
-0.06766754153321136 10.39025610217012 51.67065149755785
-0.05846867713071129 10.523310441426347 52.5833421752872
-0.05000632361003568 10.650404191803291 53.45537413432636
-0.0422455662862189 10.771542945511678 54.286746388617686
-0.03513713503927796 10.886430829145818 55.0775111086255
-0.028610254341892315 10.994112634255673 55.827836723371725
-0.02259956362415257 11.091631192732635 56.5382446613804
-0.017476911002663225 11.177455501891044 57.209004879732554
-0.013355710955940858 11.254354460811978 57.83962914681334
-0.010110762084772787 11.322250961263025 58.43013105888452
-0.007505342360435571 11.3668514878984 58.98303094835078
-0.005475063785670375 11.38803007228271 59.49835102684598
-0.003985447751437076 11.396550548164587 59.97419334006437
-0.0029419419370193198 11.39949057704353 60.409309905323276
-0.00222865752783443 11.397980464208873 60.803501419303736
-0.0017402354220029323 11.389113556438785 61.157280403392335
-0.0014049497009942318 11.373865714382825 61.470474787027136
-0.0011720086804816246 11.355043082189205 61.742589771283065
-0.0010052173229800666 11.33507482196083 61.97319702934086
-0.6209246712649916 1.2690354362359493 2.434806306053682
-0.6503643852126241 1.6922353430860813 4.610193028794639
-0.6916665849409614 2.1237660189714953 6.742401080854105
-0.7392485943984627 2.5521267988928797 8.83345833976755
-0.7761138204794831 2.970047254806856 10.884646778160318
-0.765770157729804 3.3663344851836206 12.897940006564529
-0.7126976399239822 3.7305655082386817 14.87517587788822
-0.6548892921938138 4.065658485316213 16.81583984155235
-0.6072679581919687 4.385485711439203 18.717485837660025
-0.5645539478947554 4.69630851867637 20.579009824432354
-0.5237398826831674 4.999561024461353 22.400158928272273
-0.4840093998483088 5.294962517604811 24.180982646136258
-0.44472987047405005 5.581399700587678 25.92167728241447
-0.40609832807983987 5.858475728918206 27.62231281149797
-0.3691188660449235 6.127943160886117 29.282580210074983
-0.33476967873007946 6.39123211504986 30.90222730965806
-0.3033937546858278 6.648233015065968 32.48127343151301
-0.27460694522347623 6.898486439938104 34.01979958395698
-0.24778798655364606 7.141864461481881 35.51782832418047
-0.22257363420117282 7.378428341593846 36.97534885005823
-0.19903295561691423 7.608194451196012 38.392358274955015
-0.17736802372104568 7.831170924676759 39.76885516455867
-0.15759928531051376 8.047382674531837 41.10483512612406
-0.1398144006963529 8.256851593747678 42.400294299326966
-0.12429856563552642 8.459589021587544 43.65523068474934
-0.11105907142990716 8.65562325965218 44.86963929205538
-0.09964737816779967 8.845000883078187 46.043511908791864
-0.08935451713250306 9.02776989955042 47.176840069908685
-0.07972746121286005 9.203955957542759 48.26961925288788
-0.07070347607438114 9.373563771100752 49.321848626516015
-0.062289202192950394 9.536596909674039 50.333527561402825
-0.054493378339291916 9.693059599206066 51.304655312400456
-0.047301081998971 9.84295675589981 52.235231012649685
-0.040678125277780114 9.986293543581871 53.12525375162856
-0.03459445871109547 10.123074606771704 53.97472271038298
-0.029018512997061326 10.253242398477383 54.783648036000294
-0.023905271017938854 10.376541460007655 55.55207477274021
-0.01920368173726683 10.491915757159447 56.280189127925304
-0.015028677985055923 10.598060574813886 56.96822115803315
-0.01156223323447653 10.695495620591457 57.61607922458817
-0.008799927390267616 10.785194693989586 58.2235916204652
-0.006606039166953134 10.863270132870507 58.79144384539099
-0.00486765230478973 10.925744579702322 59.32033721481032
-0.003547691826415294 10.97547041051447 59.809768777870104
-0.0025977711331711486 11.017281239405103 60.258886237990474
-0.001938974799320156 11.053310159365376 60.667313473324754
-0.0014883348561890108 11.08287895441444 61.0351700716491
-0.0011794444211239365 11.105282645658285 61.36258033976337
-0.0009663593930534462 11.121461745285401 61.649378439993036
-0.0008164597512981341 11.132788260140497 61.89532245051368

CELLS 100 350
4 0 51 52 1
4 1 52 53 2
4 2 53 54 3
4 3 54 55 4
4 4 55 56 5
4 5 56 57 6
4 6 57 58 7
4 7 58 59 8
4 8 59 60 9
4 9 60 61 10
4 10 61 62 11
4 11 62 63 12
4 12 63 64 13
4 13 64 65 14
4 14 65 66 15
4 15 66 67 16
4 16 67 68 17
4 17 68 69 18
4 18 69 70 19
4 19 70 71 20
4 20 71 72 21
4 21 72 73 22
4 22 73 74 23
4 23 74 75 24
4 24 75 76 25
4 25 76 77 26
4 26 77 78 27
4 27 78 79 28
4 28 79 80 29
4 29 80 81 30
4 30 81 82 31
4 31 82 83 32
4 32 83 84 33
4 33 84 85 34
4 34 85 86 35
4 35 86 87 36
4 36 87 88 37
4 37 88 89 38
4 38 89 90 39
4 39 90 91 40
4 40 91 92 41
4 41 92 93 42
4 42 93 94 43
4 43 94 95 44
4 44 95 96 45
4 45 96 97 46
4 46 97 98 47
4 47 98 99 48
4 48 99 100 49
4 49 100 101 50
1 102
1 103
1 104
1 105
1 106
1 107
1 108
1 109
1 110
1 111
1 112
1 113
1 114
1 115
1 116
1 117
1 118
1 119
1 120
1 121
1 122
1 123
1 124
1 125
1 126
1 127
1 128
1 129
1 130
1 131
1 132
1 133
1 134
1 135
1 136
1 137
1 138
1 139
1 140
1 141
1 142
1 143
1 144
1 145
1 146
1 147
1 148
1 149
1 150
1 151

CELL_TYPES 100
9
9
9
9
9
9
9
9
9
9
9
9
9
9
9
9
9
9
9
9
9
9
9
9
9
9
9
9
9
9
9
9
9
9
9
9
9
9
9
9
9
9
9
9
9
9
9
9
9
9
1
1
1
1
1
1
1
1
1
1
1
1
1
1
1
1
1
1
1
1
1
1
1
1
1
1
1
1
1
1
1
1
1
1
1
1
1
1
1
1
1
1
1
1
1
1
1
1
1
1

CELL_DATA 100

VECTORS S float
4.04700481402856e-18 -5.954624924696699e-16 -1.6735745166253849e-15
-9.57607967149357e-18 1.1996175398718375e-15 3.3440395542317014e-15
-2.2615628620498088e-17 2.4049834833167697e-15 6.686003358693473e-15
1.73371825883066e-18 2.383879114219362e-15 6.693595095100576e-15
-1.7242119498365268e-17 -4.764560391508657e-15 -1.3388317994489117e-14
0.0 0.0 0.0
-3.3619124413682006e-17 -9.552147461557528e-15 -2.676843132448089e-14
3.0623342211337855e-17 9.563115493609805e-15 2.6764518512633628e-14
1.536488572918767e-17 4.7844515951536255e-15 1.3381224853895008e-14
0.0 0.0 0.0
-7.626532507142151e-17 -1.915115992586586e-14 -5.35201039318812e-14
7.71715910925628e-17 1.9159252325976164e-14 5.351720622977595e-14
0.0 0.0 0.0
-3.816630899995247e-17 -9.587588097825376e-15 -2.6755751993648217e-14
0.0 0.0 0.0
0.0 0.0 0.0
0.0 0.0 0.0
2.719436033846825e-17 9.603109584977263e-15 2.675019838640453e-14
0.0 0.0 0.0
0.0 0.0 0.0
-2.18557310384227e-17 -9.616195074712216e-15 -2.6745502080881134e-14
-1.9821963110640718e-17 -9.620206152571276e-15 -2.674406116539005e-14
1.860598038484368e-17 9.623876292192395e-15 2.674274155497875e-14
-1.7771156840332418e-17 -9.627311824317416e-15 -2.6741505532966136e-14
1.6603783262504308e-17 9.630656632524053e-15 2.6740301869782955e-14
-1.572213950972358e-17 -9.63380055987636e-15 -2.6739169892372715e-14
1.476784326725116e-17 9.636816219570471e-15 2.6738083738505736e-14
1.3747035768464049e-17 9.639707396365533e-15 2.6737042081684714e-14
0.0 0.0 0.0
0.0 0.0 0.0
1.15821262507514e-17 9.647818681634845e-15 2.6734117293955398e-14
0.0 0.0 0.0
1.04136901983063e-17 9.65272056447015e-15 2.673234827331164e-14
9.9729038806483e-18 9.654986071284635e-15 2.6731530286364153e-14
1.8921814180383588e-17 1.9314304155923028e-14 5.346149609506552e-14
9.1784485630717e-18 9.659172443695166e-15 2.6730018151983324e-14
0.0 0.0 0.0
0.0 0.0 0.0
0.0 0.0 0.0
0.0 0.0 0.0
-7.418970631595499e-18 -9.66770275891217e-15 -2.6726934640368183e-14
-7.153020914527179e-18 -9.669083571981337e-15 -2.672643520297177e-14
0.0 0.0 0.0
-6.690220271694739e-18 -9.671549885910816e-15 -2.6725542931652616e-14
0.0 0.0 0.0
0.0 0.0 0.0
-9.25145209571538e-18 -1.4511706017187463e-14 -4.008672883275175e-14
-3.01541856760974e-18 -4.837620351273705e-15 -1.336210357618786e-14
0.0 0.0 0.0
0.0 0.0 0.0
4.04700481402856e-18 -5.954624924696699e-16 -1.6735745166253849e-15
-9.57607967149357e-18 1.1996175398718375e-15 3.3440395542317014e-15
-2.2615628620498088e-17 2.4049834833167697e-15 6.686003358693473e-15
1.73371825883066e-18 2.383879114219362e-15 6.693595095100576e-15
-1.7242119498365268e-17 -4.764560391508657e-15 -1.3388317994489117e-14
0.0 0.0 0.0
-3.3619124413682006e-17 -9.552147461557528e-15 -2.676843132448089e-14
3.0623342211337855e-17 9.563115493609805e-15 2.6764518512633628e-14
1.536488572918767e-17 4.7844515951536255e-15 1.3381224853895008e-14
0.0 0.0 0.0
-7.626532507142151e-17 -1.915115992586586e-14 -5.35201039318812e-14
7.71715910925628e-17 1.9159252325976164e-14 5.351720622977595e-14
0.0 0.0 0.0
-3.816630899995247e-17 -9.587588097825376e-15 -2.6755751993648217e-14
0.0 0.0 0.0
0.0 0.0 0.0
0.0 0.0 0.0
2.719436033846825e-17 9.603109584977263e-15 2.675019838640453e-14
0.0 0.0 0.0
0.0 0.0 0.0
-2.18557310384227e-17 -9.616195074712216e-15 -2.6745502080881134e-14
-1.9821963110640718e-17 -9.620206152571276e-15 -2.674406116539005e-14
1.860598038484368e-17 9.623876292192395e-15 2.674274155497875e-14
-1.7771156840332418e-17 -9.627311824317416e-15 -2.6741505532966136e-14
1.6603783262504308e-17 9.630656632524053e-15 2.6740301869782955e-14
-1.572213950972358e-17 -9.63380055987636e-15 -2.6739169892372715e-14
1.476784326725116e-17 9.636816219570471e-15 2.6738083738505736e-14
1.3747035768464049e-17 9.639707396365533e-15 2.6737042081684714e-14
0.0 0.0 0.0
0.0 0.0 0.0
1.15821262507514e-17 9.647818681634845e-15 2.6734117293955398e-14
0.0 0.0 0.0
1.04136901983063e-17 9.65272056447015e-15 2.673234827331164e-14
9.9729038806483e-18 9.654986071284635e-15 2.6731530286364153e-14
1.8921814180383588e-17 1.9314304155923028e-14 5.346149609506552e-14
9.1784485630717e-18 9.659172443695166e-15 2.6730018151983324e-14
0.0 0.0 0.0
0.0 0.0 0.0
0.0 0.0 0.0
0.0 0.0 0.0
-7.418970631595499e-18 -9.66770275891217e-15 -2.6726934640368183e-14
-7.153020914527179e-18 -9.669083571981337e-15 -2.672643520297177e-14
0.0 0.0 0.0
-6.690220271694739e-18 -9.671549885910816e-15 -2.6725542931652616e-14
0.0 0.0 0.0
0.0 0.0 0.0
-9.25145209571538e-18 -1.4511706017187463e-14 -4.008672883275175e-14
-3.01541856760974e-18 -4.837620351273705e-15 -1.336210357618786e-14
0.0 0.0 0.0
0.0 0.0 0.0

SCALARS Gamma float
LOOKUP_TABLE default
-0.0
-0.0
-0.0
58.48442953090389
62.620034601372154
62.368812123196385
60.159395757538235
53.945620082850844
49.49396886655437
52.15647864689814
60.757596474803144
63.2919212064225
61.59478888356897
55.569767737739035
54.298696081357825
52.50782516363163
52.47907697312747
48.30583001075999
45.003263899135206
45.990835427182155
46.27936159996307
45.515226418550924
45.95326199015825
46.757158502985305
42.42219390100682
44.79761794514186
46.032403885925895
44.78527400360321
43.88960951959703
42.415920765945756
43.85718588628169
43.48285090386251
42.68134634872971
44.777975772109485
44.685526407201316
46.319879533860004
46.33644819458533
46.25005521099885
45.8814633098197
45.163474227438584
44.18030020161991
42.67406631021127
40.225318854029354
37.13099129604969
33.047176299579874
29.91431210823297
27.272134363982897
24.187108358185647
21.215277983750607
18.473959817347477
-0.0
-0.0
-0.0
58.48442953090389
62.620034601372154
62.368812123196385
60.159395757538235
53.945620082850844
49.49396886655437
52.15647864689814
60.757596474803144
63.2919212064225
61.59478888356897
55.569767737739035
54.298696081357825
52.50782516363163
52.47907697312747
48.30583001075999
45.003263899135206
45.990835427182155
46.27936159996307
45.515226418550924
45.95326199015825
46.757158502985305
42.42219390100682
44.79761794514186
46.032403885925895
44.78527400360321
43.88960951959703
42.415920765945756
43.85718588628169
43.48285090386251
42.68134634872971
44.777975772109485
44.685526407201316
46.319879533860004
46.33644819458533
46.25005521099885
45.8814633098197
45.163474227438584
44.18030020161991
42.67406631021127
40.225318854029354
37.13099129604969
33.047176299579874
29.91431210823297
27.272134363982897
24.187108358185647
21.215277983750607
18.473959817347477

VECTORS Ftot float
134.98506739842412 -39.96580254358998 14.546362514427223
160.04555293498214 -87.5110464039489 31.85141606052576
161.6027124385077 -128.13456185272491 46.63716649513345
1521.2890284377208 50.34307014263958 -18.323379033496373
1553.4947923646503 247.12453349910183 -89.94597435059401
1640.686588042445 312.8309740589321 -113.86116291395372
1732.1898616201895 305.26973067666455 -111.10909538876602
1686.5383664231886 289.54810041525826 -105.38688993947537
1664.0030142404119 297.5840488278596 -108.311735965761
1860.893018906271 390.3903955484154 -142.09048372303207
2301.2310519070697 534.1537279096674 -194.4160574814468
2546.6826629321663 615.280601227376 -223.94382456817775
2621.930799781919 659.6670852123573 -240.09918354244434
2499.285440865715 632.9307413623453 -230.36795020793375
2584.6761094893996 609.1876358557068 -221.72616653447545
2632.2746840693844 584.851934485088 -212.86869560557895
2757.4629835776504 590.0952729663069 -214.7771147409252
2653.525900791635 541.8855342263431 -197.23020483782815
2575.2145242735164 509.5878286432732 -185.4748013704974
2736.6104160101645 516.0902020484216 -187.84147174205557
2853.4697760235163 526.8550630781915 -191.75956073290405
2906.1039827571103 506.0319942487132 -184.1805834928976
3028.4320323610996 513.7131812918308 -186.97630694042357
3172.970058849232 532.9606531026034 -193.98181376442264
2961.597321106303 482.0135252174596 -175.43857569287667
3210.9825181916694 512.7240779604489 -186.61630276918703
3383.5077726392547 525.6908087335054 -191.33580680632318
3371.81072737679 505.03775830491924 -183.818711203519
3379.2170622182716 491.9709745739627 -179.06279086785693
3335.034301954621 475.14538988672473 -172.93877886757713
3516.865673253106 493.1075686827974 -179.47647729191513
3552.063774051178 490.7336233712982 -178.61243186075362
3548.640856641351 479.56353887451024 -174.54685358968442
3784.250274967837 506.60887044570893 -184.3905492574607
3835.736178207835 503.70976147202964 -183.3353598851474
4032.818326065499 530.616373530123 -193.12856577924148
4089.629255662615 530.7671482938108 -193.18344330530235
4134.354039672642 529.8009578563672 -192.83177874544023
4148.4952902569 537.5604951550273 -195.65601935383089
4131.037635799278 516.8302202995168 -188.11081635826795
4083.039789364376 503.97632497833416 -183.43238106698385
3981.4532399570976 486.467511360287 -177.05969407269998
3785.885117749632 458.4003719551789 -166.84409076824065
3522.725880322127 422.72407109707916 -153.8589791871666
3158.205822334132 375.6991689158507 -136.74331452391962
2877.639490834525 339.8067739184359 -123.67955110833549
2638.799086378189 310.31781537714124 -112.94644795979416
2352.4571753068744 275.07942551258515 -100.1207229456279
2071.6701503500103 248.1610111364664 -90.32322135907727
1810.9228264094484 216.09041583545618 -78.65047927431202
134.98506739842412 -39.96580254358998 14.546362514427223
160.04555293498214 -87.5110464039489 31.85141606052576
161.6027124385077 -128.13456185272491 46.63716649513345
1521.2890284377208 50.34307014263958 -18.323379033496373
1553.4947923646503 247.12453349910183 -89.94597435059401
1640.686588042445 312.8309740589321 -113.86116291395372
1732.1898616201895 305.26973067666455 -111.10909538876602
1686.5383664231886 289.54810041525826 -105.38688993947537
1664.0030142404119 297.5840488278596 -108.311735965761
1860.893018906271 390.3903955484154 -142.09048372303207
2301.2310519070697 534.1537279096674 -194.4160574814468
2546.6826629321663 615.280601227376 -223.94382456817775
2621.930799781919 659.6670852123573 -240.09918354244434
2499.285440865715 632.9307413623453 -230.36795020793375
2584.6761094893996 609.1876358557068 -221.72616653447545
2632.2746840693844 584.851934485088 -212.86869560557895
2757.4629835776504 590.0952729663069 -214.7771147409252
2653.525900791635 541.8855342263431 -197.23020483782815
2575.2145242735164 509.5878286432732 -185.4748013704974
2736.6104160101645 516.0902020484216 -187.84147174205557
2853.4697760235163 526.8550630781915 -191.75956073290405
2906.1039827571103 506.0319942487132 -184.1805834928976
3028.4320323610996 513.7131812918308 -186.97630694042357
3172.970058849232 532.9606531026034 -193.98181376442264
2961.597321106303 482.0135252174596 -175.43857569287667
3210.9825181916694 512.7240779604489 -186.61630276918703
3383.5077726392547 525.6908087335054 -191.33580680632318
3371.81072737679 505.03775830491924 -183.818711203519
3379.2170622182716 491.9709745739627 -179.06279086785693
3335.034301954621 475.14538988672473 -172.93877886757713
3516.865673253106 493.1075686827974 -179.47647729191513
3552.063774051178 490.7336233712982 -178.61243186075362
3548.640856641351 479.56353887451024 -174.54685358968442
3784.250274967837 506.60887044570893 -184.3905492574607
3835.736178207835 503.70976147202964 -183.3353598851474
4032.818326065499 530.616373530123 -193.12856577924148
4089.629255662615 530.7671482938108 -193.18344330530235
4134.354039672642 529.8009578563672 -192.83177874544023
4148.4952902569 537.5604951550273 -195.65601935383089
4131.037635799278 516.8302202995168 -188.11081635826795
4083.039789364376 503.97632497833416 -183.43238106698385
3981.4532399570976 486.467511360287 -177.05969407269998
3785.885117749632 458.4003719551789 -166.84409076824065
3522.725880322127 422.72407109707916 -153.8589791871666
3158.205822334132 375.6991689158507 -136.74331452391962
2877.639490834525 339.8067739184359 -123.67955110833549
2638.799086378189 310.31781537714124 -112.94644795979416
2352.4571753068744 275.07942551258515 -100.1207229456279
2071.6701503500103 248.1610111364664 -90.32322135907727
1810.9228264094484 216.09041583545618 -78.65047927431202

VECTORS D float
110.60240614284326 32.9190585050154 -11.445236508304033
79.07931377915114 43.3854557725955 -15.337343676488567
27.187813893351745 21.616373413084556 -7.683536601707541
714.6377649644614 740.8658128607539 -264.0395024122555
675.1933586866087 859.6117249853027 -306.7834020081559
611.7108167590724 920.1381087166178 -328.7214243638837
532.4427579238145 920.9115921352382 -329.29025536113505
439.5731651843714 857.0475363650679 -306.73093444076454
380.97040145019616 823.9537472438544 -295.04177906919796
396.2077619454067 938.8903495418049 -336.34842781588947
455.70277339966486 1171.3596238829157 -419.79832170036957
464.2435123269683 1283.6811667363224 -460.22951355785784
444.79621611406264 1313.8374437949813 -471.21852198049265
391.87518955228325 1229.2005002330352 -441.02757860255343
363.28553590571 1203.9572385289755 -432.1301370033427
335.4372183637868 1169.3771177204555 -419.87121052864296
323.3354328185005 1181.1731338043858 -424.2587172242254
286.40845245623746 1092.3805876257175 -392.44715252157533
258.67845862001803 1027.0364417663304 -369.142215889248
254.74171819625454 1049.9991763802018 -377.5624424919059
250.09842479073043 1067.5715537299548 -384.04373078225746
236.3730147790527 1042.571314686385 -375.2024156378061
232.73835558716868 1058.5207466584982 -381.0904361801311
232.7838537689312 1089.6210453977876 -392.4333429851748
205.830935763461 989.8045718640691 -356.61099054185286
213.14615613793845 1051.2545549085014 -378.8796688165956
214.1545695578226 1081.6077243056252 -389.9463238984542
203.034857247927 1048.5433783491924 -378.1436426751728
194.8563016049039 1027.055696041229 -370.5061638912681
184.96553343644638 994.167169348022 -358.7499288090708
188.42943976804636 1031.510467160841 -372.33353394419373
184.2662898692174 1026.183225310231 -370.5138760965324
177.9177541100296 1006.8826375703591 -363.6421844675892
184.72775478295543 1061.2682023447642 -383.381417894592
181.73159363576102 1058.8494256399022 -382.60018981150216
187.53860586695032 1107.146220536192 -400.1432964682952
185.54901620227847 1108.9288698639946 -400.87445826286216
183.32041575866631 1108.218286600554 -400.69945668282094
182.00751018771865 1112.0607970915007 -402.1660139040696
175.6750613253208 1084.0370582209873 -392.1019660507447
170.20318219213016 1059.9357578893153 -383.4486341634988
163.1122042700038 1024.4029745687108 -370.6519272872651
152.66338422395143 966.2655592924158 -349.6672779133609
139.96274835960995 892.2046054481002 -322.90972549059416
123.76952692853122 794.1022249058594 -287.4392966448363
111.40998055085672 718.9918800729598 -260.2805007362566
101.17232670773967 656.3428254120978 -237.62453054093788
89.33655589731536 582.2423552575135 -210.81537335907697
79.08690529732405 517.5174464895691 -187.39437363595545
68.65501743196533 450.79788580165746 -163.24565775459672
110.60240614284326 32.9190585050154 -11.445236508304033
79.07931377915114 43.3854557725955 -15.337343676488567
27.187813893351745 21.616373413084556 -7.683536601707541
714.6377649644614 740.8658128607539 -264.0395024122555
675.1933586866087 859.6117249853027 -306.7834020081559
611.7108167590724 920.1381087166178 -328.7214243638837
532.4427579238145 920.9115921352382 -329.29025536113505
439.5731651843714 857.0475363650679 -306.73093444076454
380.97040145019616 823.9537472438544 -295.04177906919796
396.2077619454067 938.8903495418049 -336.34842781588947
455.70277339966486 1171.3596238829157 -419.79832170036957
464.2435123269683 1283.6811667363224 -460.22951355785784
444.79621611406264 1313.8374437949813 -471.21852198049265
391.87518955228325 1229.2005002330352 -441.02757860255343
363.28553590571 1203.9572385289755 -432.1301370033427
335.4372183637868 1169.3771177204555 -419.87121052864296
323.3354328185005 1181.1731338043858 -424.2587172242254
286.40845245623746 1092.3805876257175 -392.44715252157533
258.67845862001803 1027.0364417663304 -369.142215889248
254.74171819625454 1049.9991763802018 -377.5624424919059
250.09842479073043 1067.5715537299548 -384.04373078225746
236.3730147790527 1042.571314686385 -375.2024156378061
232.73835558716868 1058.5207466584982 -381.0904361801311
232.7838537689312 1089.6210453977876 -392.4333429851748
205.830935763461 989.8045718640691 -356.61099054185286
213.14615613793845 1051.2545549085014 -378.8796688165956
214.1545695578226 1081.6077243056252 -389.9463238984542
203.034857247927 1048.5433783491924 -378.1436426751728
194.8563016049039 1027.055696041229 -370.5061638912681
184.96553343644638 994.167169348022 -358.7499288090708
188.42943976804636 1031.510467160841 -372.33353394419373
184.2662898692174 1026.183225310231 -370.5138760965324
177.9177541100296 1006.8826375703591 -363.6421844675892
184.72775478295543 1061.2682023447642 -383.381417894592
181.73159363576102 1058.8494256399022 -382.60018981150216
187.53860586695032 1107.146220536192 -400.1432964682952
185.54901620227847 1108.9288698639946 -400.87445826286216
183.32041575866631 1108.218286600554 -400.69945668282094
182.00751018771865 1112.0607970915007 -402.1660139040696
175.6750613253208 1084.0370582209873 -392.1019660507447
170.20318219213016 1059.9357578893153 -383.4486341634988
163.1122042700038 1024.4029745687108 -370.6519272872651
152.66338422395143 966.2655592924158 -349.6672779133609
139.96274835960995 892.2046054481002 -322.90972549059416
123.76952692853122 794.1022249058594 -287.4392966448363
111.40998055085672 718.9918800729598 -260.2805007362566
101.17232670773967 656.3428254120978 -237.62453054093788
89.33655589731536 582.2423552575135 -210.81537335907697
79.08690529732405 517.5174464895691 -187.39437363595545
68.65501743196533 450.79788580165746 -163.24565775459672

VECTORS L float
24.382661255580857 -72.88486104860539 25.99159902273126
80.96623915583102 -130.8965021765444 47.18875973701434
134.41489854515598 -149.7509352658095 54.320703096840994
806.6512634732594 -690.5227427181144 245.71612337875922
878.3014336780417 -612.4871914862007 216.83742765756188
1028.975771283373 -607.3071346576855 214.86026144993
1199.7471036963748 -615.6418614585733 218.18115997236907
1246.9652012388174 -567.4994359498099 201.34404450128926
1283.0326127902156 -526.3696984159948 186.7300431034369
1464.6852569608643 -548.4999539933896 194.2579440928575
1845.5282785074048 -637.2058959732485 225.38226421892276
2082.4391506051984 -668.4005655089464 236.28568898968024
2177.1345836678565 -654.1703585826241 231.1193384380484
2107.410251313432 -596.2697588706898 210.6596283946196
2221.39057358369 -594.7696026732687 210.40397046886733
2296.837465705598 -584.5251832353675 207.002514923064
2434.12755075915 -591.077860838079 209.48160248330018
2367.117448335398 -550.4950533993742 195.21694768374718
2316.536065653499 -517.4486131230573 183.66741451875066
2481.8686978139103 -533.9089743317802 189.72097074985044
2603.371351232786 -540.7164906517633 192.28417004935332
2669.730967978058 -536.5393204376718 191.02183214490856
2795.693676773931 -544.8075653666677 194.11412923970767
2940.186205080301 -556.6603922951846 198.45152922075224
2755.7663853428426 -507.79104664660946 181.1724148489762
2997.8363620537316 -538.5304769480525 192.26336604740862
3169.3532030814317 -555.9169155721197 198.61051709213103
3168.7758701288635 -543.5056200442733 194.32493147165388
3184.3607606133687 -535.0847214672666 191.4433730234112
3150.0687685181747 -519.0217794612975 185.81114994149382
3328.4362334850593 -538.4028984780435 192.85705665227863
3367.7974841819614 -535.4496019389329 191.90144423577888
3370.723102531322 -527.319098695849 189.09533087790476
3599.522520184882 -554.6593318990557 198.99086863713148
3654.0045845720756 -555.1396641678724 199.26482992635476
3845.2797201985486 -576.529847006069 207.01473068905375
3904.0802394603375 -578.1617215701839 207.6910149575599
3951.033623913977 -578.417328744187 207.86767793738073
3966.4877800691816 -574.5003019364736 206.50999455023882
3955.362574473958 -567.2068379214707 203.99114969247677
3912.8366071722457 -555.959432910981 200.01625309651496
3818.3410356870945 -537.9354632084239 193.59223321456523
3633.2217335256814 -507.865187337237 182.8231871451203
3382.763131962518 -469.480534351021 169.05074630342762
3034.4362954056014 -418.40305599000897 150.69598212091674
2766.229510283669 -379.1851061545239 136.60094962792112
2537.6267596704497 -346.02501003495667 124.67808258114371
2263.1206194095594 -307.1629297449285 110.69465041344911
1992.5832450526866 -269.35643535310265 97.07115227687817
1742.267808977483 -234.7074699662013 84.59517848028467
24.382661255580857 -72.88486104860539 25.99159902273126
80.96623915583102 -130.8965021765444 47.18875973701434
134.41489854515598 -149.7509352658095 54.320703096840994
806.6512634732594 -690.5227427181144 245.71612337875922