# vtk DataFile Version 4.0
[MyVLM domain - lattices] 
ASCII
DATASET UNSTRUCTURED_GRID
POINTS 152 float
0.0 -2.2836190429735783 0.41360273838150535
0.0 -3.4487521526488987 2.3232431187895575
0.0 -4.647903213643334 4.165812669408917
0.0 -5.832934618552052 5.96910365083291
0.0 -7.0034153740629215 7.733364897166311
0.0 -8.127936103755667 9.476730620340447
0.0 -9.179682922253136 11.214681824295837
0.0 -10.151861599624358 12.951141159512064
0.0 -11.086392163488542 14.661906086758739
0.0 -12.000233690172077 16.337185278753612
0.0 -12.893227732725249 17.977070214885757
0.0 -13.765030959110895 19.581759117999244
0.0 -14.615288239620721 21.15145702232676
0.0 -15.441127785207302 22.687821956047898
0.0 -16.244453648273726 24.189754613995174
0.0 -17.029435948738197 25.65484737631126
0.0 -17.79669428699157 27.082742516543707
0.0 -18.545215342035217 28.474025075843855
0.0 -19.274268956292513 29.82911661088512
0.0 -19.983854911544366 31.148017247656334
0.0 -20.673972995399495 32.43072710878168
0.0 -21.344623001294433 33.67724631352063
0.0 -21.995804728493514 34.88757497776796
0.0 -22.627517982088882 36.06171321405378
0.0 -23.239762573000505 37.19966113154351
0.0 -23.83253831797614 38.301418836037875
0.0 -24.40584503959137 39.36698642997289
0.0 -24.959682566249576 40.39636401241995
0.0 -25.494050989434072 41.38955153056111
0.0 -26.008953682699865 42.34654703667348
0.0 -26.504391188237012 43.26735021772349
0.0 -26.98036282121441 44.15196146909856
0.0 -27.436867923715702 45.000381170646875
0.0 -27.873905864739296 45.81260968667737
0.0 -28.29147604019836 46.58864736595975
0.0 -28.689577872920832 47.32849454172445
0.0 -29.06785098088483 48.032359280628825
0.0 -29.425152370172437 48.700901490519065
0.0 -29.75973286323181 49.33513105952559
0.0 -30.070679921909292 49.93557484179704
0.0 -30.35851566211875 50.501931393570025
0.0 -30.622968572118108 51.03435747222189
0.0 -30.85374824247208 51.53879424841019
0.0 -31.05108527506498 52.01510858407493
0.0 -31.222746714206515 52.458816174093116
0.0 -31.374029287180846 52.86685895154137
0.0 -31.506283677308453 53.23845709904105
0.0 -31.618244223807874 53.574341346185044
0.0 -31.711042440275126 53.87385841329408
0.0 -31.786907750417736 54.135721141990494
0.0 -31.847770103116837 54.35881527576825
-0.8152906132198464 0.7013786288234181 2.1369919477239123
-0.840508508580286 -0.3717236494232872 4.09976635343102
-0.8937965186637556 -1.3748511648616155 6.055510150844703
-0.9506477078574832 -2.350290136350924 7.9798093801235
-1.02068187720969 -3.2989132502469194 9.872160195565026
-1.0489549773990687 -4.24751062907551 11.717095312717323
-0.9930987765435385 -5.2149475639873 13.503722850656251
-0.9074282632533693 -6.218003645888898 15.222355108054987
-0.8389431825969345 -7.2213475166133065 16.89339065406208
-0.7804380392478915 -8.208153255649046 18.526543938414203
-0.7250391551382538 -9.174963579005695 20.12381102495388
-0.6716005320172311 -10.122039985792567 21.685040937099963
-0.6190912009116674 -11.050012072889137 23.209870176924603
-0.5668551203522249 -11.961936596084787 24.696533925649963
-0.5160737545271722 -12.856009989639746 26.146073472441387
-0.46824322159258325 -13.727901298136095 27.560989295575265
-0.42447592168765613 -14.576991236479968 28.941638939467243
-0.38457409080794247 -15.404287289485529 30.28744073248867
-0.3477110964547294 -16.21044048664656 31.598018802586047
-0.31305686768839563 -16.995343252153774 32.87343525868183
-0.2804728235147938 -17.758959644532748 34.113710851595954
-0.25028172479702737 -18.501287354650266 35.3188469145071
-0.22269967179246206 -19.22230975204303 36.48885304901773
-0.19756508903559172 -19.921985178572598 37.623753306465275
-0.17527331282134875 -20.60030408072229 38.72355320257519
-0.15618952887337012 -21.25724954523752 39.78826250221954
-0.1399679949396797 -21.892772237571744 40.81790968871206
-0.12575834684106657 -22.50681238864453 41.81252926974743
-0.11252036551220733 -23.09931721490865 42.772151719920856
-0.1000861977220127 -23.67027819852699 43.69678195700787
-0.08845640514293837 -24.219691497522952 44.58642219917471
-0.07764813403821604 -24.747552630963288 45.44107503348938
-0.06766754153320646 -25.25385661741088 46.260743335985964
-0.05846867713071907 -25.73859733931188 47.0454306386358
-0.05000632361005495 -26.201769216601836 47.79514016309061
-0.04224556628624775 -26.643367331573163 48.509874748590185
-0.03513713503931205 -27.06365187093151 49.18948417626999
-0.02861025434192226 -27.463462830888332 49.833483474091224
-0.022599563624171346 -27.84540070144126 50.44037124845372
-0.017476911002667815 -28.210811823759983 51.00937018892075
-0.0133557109559299 -28.557261268843494 51.541886102406494
-0.010110762084749267 -28.884816844531947 52.037879840036176
-0.007505342360414162 -29.206048057287067 52.490094393870564
-0.005475063785658977 -29.521065681894314 52.89846580805742
-0.0039854477514337135 -29.820404161800184 53.26845902422098
-0.0029419419370200197 -30.097839505930484 53.603667465283316
-0.0022286575278371427 -30.352377740497904 53.90466500227813
-0.0017402354220080998 -30.586574933457364 54.16997588868358
-0.0014049497010025483 -30.79957292735779 54.40009558193504
-0.0011720086804935075 -30.988904040447803 54.59644879875596
-0.0010052173229957839 -31.15243210342325 54.760268857069114
-0.6209246706750498 -0.5929257821777605 2.6808900950794827
-0.6503643852165156 -1.6670474761433676 4.619360662628206
-0.6916665849454646 -2.7070327169791257 6.530109364143305
-0.73924859440019 -3.7229950190510626 8.4072971593831
-0.7761138204782846 -4.721327889473234 10.247232755294226
-0.7657701577284777 -5.711874200649654 12.044233366844628
-0.7126976399238405 -6.703799768938262 13.7930071074927
-0.6548892921938638 -7.694538406327441 15.49503556657775
-0.6072679581918097 -8.671891021305958 17.15736189286765
-0.5645539478948045 -9.630351490857693 18.78316504796795
-0.5237398826833068 -10.568658673278865 20.373173152380815
-0.4840093998483369 -11.487059421847091 21.927243685299963
-0.4447298704739596 -12.386532753968723 23.44481141076229
-0.40609832807977386 -13.26742764883183 24.92567484553964
-0.3691188660449083 -14.12820293254243 26.37072378679455
-0.3347696787300898 -14.967600979947244 27.78068432474781
-0.3033937546858495 -15.785718150865407 29.15550082603192
-0.27460694522350193 -16.5829584533405 30.494940036494143
-0.24778798655367185 -17.359434385529735 31.798937005293133
-0.22257363420119602 -18.11509207462543 33.067522835908925
-0.19903295561693296 -18.849917124280374 34.30070584007643
-0.17736802372105853 -19.56390238123348 35.49849014773289
-0.15759928531052017 -20.25702593780366 36.66088840728384
-0.1398144006963527 -20.92926854162176 37.78791173408984
-0.12429856563551955 -21.58062022110701 38.8795658852457
-0.11105907142989367 -22.21105608824941 39.9358652298507
-0.09964737816777985 -22.820535185561216 40.956833414721416
-0.08935451713247772 -23.409015295792894 41.94249481399824
-0.07972746121283251 -23.9764738640551 42.89286244975259
-0.07070347607435665 -24.522906744885834 43.80793871536809
-0.06228920219293291 -25.048310799363765 44.687725423101796
-0.05449337833928344 -25.55268231125657 45.532224718521434
-0.04730108199897208 -26.036016957327906 46.34143909764869
-0.04067812527779026 -26.498310196584846 47.11537118222704
-0.03459445871111351 -26.939557944705523 47.85402333034082
-0.029018512997084925 -27.359810807664964 48.557366324616716
-0.023905271017962866 -27.759293432064595 49.22527046527894
-0.0192036817372851 -28.13893447879913 49.857199589709936
-0.015028677985064689 -28.499881295093104 50.45249127668075
-0.011562233234474143 -28.84167685772981 51.011409388668596
-0.008799927390254687 -29.163464821795397 51.53444833663999
-0.006606039166936287 -29.468663940005907 52.01963430279403
-0.004867652304777427 -29.760771841885152 52.464947929783634
-0.003547691826409759 -30.03728019004437 52.8718374068754
-0.00259777113317015 -30.29393837557242 53.24275682426842
-0.001938974799321436 -30.52887058797181 53.578789181658344
-0.0014883348561919659 -30.742673240372767 53.8795901397639
-0.001179444421128993 -30.935966280816057 54.14480177141687
-0.000966359393061021 -31.107922636763707 54.374901587169695
-0.0008164597513084843 -31.257335785643466 54.57058617315424

CELLS 100 350
4 0 51 52 1
4 1 52 53 2
4 2 53 54 3
4 3 54 55 4
4 4 55 56 5
4 5 56 57 6
4 6 57 58 7
4 7 58 59 8
4 8 59 60 9
4 9 60 61 10
4 10 61 62 11
4 11 62 63 12
4 12 63 64 13
4 13 64 65 14
4 14 65 66 15
4 15 66 67 16
4 16 67 68 17
4 17 68 69 18
4 18 69 70 19
4 19 70 71 20
4 20 71 72 21
4 21 72 73 22
4 22 73 74 23
4 23 74 75 24
4 24 75 76 25
4 25 76 77 26
4 26 77 78 27
4 27 78 79 28
4 28 79 80 29
4 29 80 81 30
4 30 81 82 31
4 31 82 83 32
4 32 83 84 33
4 33 84 85 34
4 34 85 86 35
4 35 86 87 36
4 36 87 88 37
4 37 88 89 38
4 38 89 90 39
4 39 90 91 40
4 40 91 92 41
4 41 92 93 42
4 42 93 94 43
4 43 94 95 44
4 44 95 96 45
4 45 96 97 46
4 46 97 98 47
4 47 98 99 48
4 48 99 100 49
4 49 100 101 50
1 102
1 103
1 104
1 105
1 106
1 107
1 108
1 109
1 110
1 111
1 112
1 113
1 114
1 115
1 116
1 117
1 118
1 119
1 120
1 121
1 122
1 123
1 124
1 125
1 126
1 127
1 128
1 129
1 130
1 131
1 132
1 133
1 134
1 135
1 136
1 137
1 138
1 139
1 140
1 141
1 142
1 143
1 144
1 145
1 146
1 147
1 148
1 149
1 150
1 151

CELL_TYPES 100
9
9
9
9
9
9
9
9
9
9
9
9
9
9
9
9
9
9
9
9
9
9
9
9
9
9
9
9
9
9
9
9
9
9
9
9
9
9
9
9
9
9
9
9
9
9
9
9
9
9
1
1
1
1
1
1
1
1
1
1
1
1
1
1
1
1
1
1
1
1
1
1
1
1
1
1
1
1
1
1
1
1
1
1
1
1
1
1
1
1
1
1
1
1
1
1
1
1
1
1

CELL_DATA 100

VECTORS S float
-7.05970557680395e-18 -6.268381381974879e-16 1.6620673060806904e-15
1.981268725176458e-17 1.2444111283531257e-15 -3.327585143101669e-15
-5.086419069544942e-17 -2.4820975221661015e-15 6.657604874029892e-15
0.0 -0.0 0.0
0.0 -0.0 0.0
0.0 -0.0 0.0
0.0 -0.0 0.0
-7.277053166480152e-17 1.0082784049272181e-14 -2.657302649702852e-14
-3.751837064759402e-17 5.0364158360529596e-15 -1.3288397180803932e-14
-4.1780826716612936e-17 5.0334878793136224e-15 -1.3289493815337766e-14
0.0 -0.0 0.0
0.0 -0.0 0.0
-8.83003504247777e-17 1.0043170112850536e-14 -2.6587976682680778e-14
8.29539808707502e-17 -1.0036276994063745e-14 2.659059664019972e-14
-1.5222364936832041e-16 2.0058048038628426e-14 -5.318670702935003e-14
0.0 -0.0 0.0
-6.685794535562062e-17 1.0018923250808228e-14 -2.659718544989062e-14
0.0 -0.0 0.0
-5.877724968768074e-17 1.0009876452691677e-14 -2.660061062425229e-14
2.808636082208814e-17 -5.002945237439122e-15 1.330105792198876e-14
2.7112889563274217e-17 -5.00116111943739e-15 1.3301730868019632e-14
-5.024525354690801e-17 9.998627671122531e-15 -2.6604858335557338e-14
0.0 -0.0 0.0
0.0 -0.0 0.0
4.597189079032795e-17 -9.990152150984708e-15 2.660804978820787e-14
0.0 -0.0 0.0
0.0 -0.0 0.0
0.0 -0.0 0.0
7.665555813837798e-17 -1.9955087794250954e-14 5.322558466409183e-14
3.721234656517514e-17 -9.974915830725969e-15 2.6613779069450315e-14
7.24463148870975e-17 -1.9944526367035195e-14 5.322954900533502e-14
-3.528193126517005e-17 9.969578194030157e-15 -2.6615781648577613e-14
-3.480621756550058e-17 9.966928845266574e-15 -2.661677450156063e-14
0.0 -0.0 0.0
0.0 -0.0 0.0
3.243370044578228e-17 -9.958750630816416e-15 2.6619838483255403e-14
0.0 -0.0 0.0
0.0 -0.0 0.0
0.0 -0.0 0.0
2.9933279339368276e-17 -9.947390692091984e-15 2.6624088517055113e-14
-2.967699498851502e-17 9.944917418577918e-15 -2.6625012746662676e-14
0.0 -0.0 0.0
2.8058072646453527e-17 -9.940081541468912e-15 2.6626820287819285e-14
1.377924383299592e-17 -4.9689329380502454e-15 1.3313823918250448e-14
1.3561080632525069e-17 -4.967895563844871e-15 1.331421126091972e-14
-2.6935717827909517e-17 9.933179698779686e-15 -2.6629396960599245e-14
1.327911265474351e-17 -4.965726890915694e-15 1.3315020534966622e-14
1.3098153255666559e-17 -4.964949767300722e-15 1.3315310510203688e-14
1.2990340163984359e-17 -4.964270139966709e-15 1.3315564012278128e-14
-1.2852225207532829e-17 4.963677590422321e-15 -1.331578504389529e-14
-7.05970557680395e-18 -6.268381381974879e-16 1.6620673060806904e-15
1.981268725176458e-17 1.2444111283531257e-15 -3.327585143101669e-15
-5.086419069544942e-17 -2.4820975221661015e-15 6.657604874029892e-15
0.0 -0.0 0.0
0.0 -0.0 0.0
0.0 -0.0 0.0
0.0 -0.0 0.0
-7.277053166480152e-17 1.0082784049272181e-14 -2.657302649702852e-14
-3.751837064759402e-17 5.0364158360529596e-15 -1.3288397180803932e-14
-4.1780826716612936e-17 5.0334878793136224e-15 -1.3289493815337766e-14
0.0 -0.0 0.0
0.0 -0.0 0.0
-8.83003504247777e-17 1.0043170112850536e-14 -2.6587976682680778e-14
8.29539808707502e-17 -1.0036276994063745e-14 2.659059664019972e-14
-1.5222364936832041e-16 2.0058048038628426e-14 -5.318670702935003e-14
0.0 -0.0 0.0
-6.685794535562062e-17 1.0018923250808228e-14 -2.659718544989062e-14
0.0 -0.0 0.0
-5.877724968768074e-17 1.0009876452691677e-14 -2.660061062425229e-14
2.808636082208814e-17 -5.002945237439122e-15 1.330105792198876e-14
2.7112889563274217e-17 -5.00116111943739e-15 1.3301730868019632e-14
-5.024525354690801e-17 9.998627671122531e-15 -2.6604858335557338e-14
0.0 -0.0 0.0
0.0 -0.0 0.0
4.597189079032795e-17 -9.990152150984708e-15 2.660804978820787e-14
0.0 -0.0 0.0
0.0 -0.0 0.0
0.0 -0.0 0.0
7.665555813837798e-17 -1.9955087794250954e-14 5.322558466409183e-14
3.721234656517514e-17 -9.974915830725969e-15 2.6613779069450315e-14
7.24463148870975e-17 -1.9944526367035195e-14 5.322954900533502e-14
-3.528193126517005e-17 9.969578194030157e-15 -2.6615781648577613e-14
-3.480621756550058e-17 9.966928845266574e-15 -2.661677450156063e-14
0.0 -0.0 0.0
0.0 -0.0 0.0
3.243370044578228e-17 -9.958750630816416e-15 2.6619838483255403e-14
0.0 -0.0 0.0
0.0 -0.0 0.0
0.0 -0.0 0.0
2.9933279339368276e-17 -9.947390692091984e-15 2.6624088517055113e-14
-2.967699498851502e-17 9.944917418577918e-15 -2.6625012746662676e-14
0.0 -0.0 0.0
2.8058072646453527e-17 -9.940081541468912e-15 2.6626820287819285e-14
1.377924383299592e-17 -4.9689329380502454e-15 1.3313823918250448e-14
1.3561080632525069e-17 -4.967895563844871e-15 1.331421126091972e-14
-2.6935717827909517e-17 9.933179698779686e-15 -2.6629396960599245e-14
1.327911265474351e-17 -4.965726890915694e-15 1.3315020534966622e-14
1.3098153255666559e-17 -4.964949767300722e-15 1.3315310510203688e-14
1.2990340163984359e-17 -4.964270139966709e-15 1.3315564012278128e-14
-1.2852225207532829e-17 4.963677590422321e-15 -1.331578504389529e-14

SCALARS Gamma float
LOOKUP_TABLE default
-0.0
-0.0
-0.0
50.980919049566666
54.53727758814886
54.65153043634964
52.535873025251014
47.8548304259657
44.853703903137884
47.41787014826739
53.951916410382395
54.56418265535561
50.57702369868413
45.65956331198281
44.67063303607732
43.917236064807284
40.29611715170149
38.17078167848058
33.495569891604006
33.82806637517392
33.39050866000196
34.98469979939229
36.65462068026759
34.595319155096774
36.695530623673626
37.86235293292496
37.97915889430861
38.105906053469646
38.31950996958267
38.601230487465
38.9395375000192
39.2438825899985
37.28470005314057
37.6037745596005
37.92572377085601
38.235380350790045
38.49224698435004
40.82909959598542
40.76423827191584
40.357903694041305
39.67121908387337
38.49209758136382
36.44416686277312
33.78393976533865
31.110705389521492
28.498917640214597
25.689932383870502
22.96447298463788
20.19310346650753
17.622164572864854
-0.0
-0.0
-0.0
50.980919049566666
54.53727758814886
54.65153043634964
52.535873025251014
47.8548304259657
44.853703903137884
47.41787014826739
53.951916410382395
54.56418265535561
50.57702369868413
45.65956331198281
44.67063303607732
43.917236064807284
40.29611715170149
38.17078167848058
33.495569891604006
33.82806637517392
33.39050866000196
34.98469979939229
36.65462068026759
34.595319155096774
36.695530623673626
37.86235293292496
37.97915889430861
38.105906053469646
38.31950996958267
38.601230487465
38.9395375000192
39.2438825899985
37.28470005314057
37.6037745596005
37.92572377085601
38.235380350790045
38.49224698435004
40.82909959598542
40.76423827191584
40.357903694041305
39.67121908387337
38.49209758136382
36.44416686277312
33.78393976533865
31.110705389521492
28.498917640214597
25.689932383870502
22.96447298463788
20.19310346650753
17.622164572864854

VECTORS Ftot float
115.02293813580351 -37.087186340679686 -13.498631900691535
138.54809646612796 -82.50908954365076 -30.030852650293745
142.06379521460707 -122.62454619217912 -44.63168480435435
1263.3444215672544 12.9254139811799 4.704465954717713
1292.5311711839393 206.29631790340463 75.08571915555741
1388.4954709406998 269.33228569934863 98.02893512144402
1471.5123711709414 263.9995236988689 96.08796848684352
1461.6283656477667 258.7960805012315 94.19407004720853
1478.0663347232432 277.5024183643616 101.00262022151475
1669.1629597320846 354.8919846356867 129.17011878704884
2026.4909394566507 463.3077726300872 168.63023854152587
2182.635193313582 517.990550005199 188.533141833072
2147.346479083371 518.1518205038703 188.5918394942536
2056.7042906326687 476.4477821410054 173.4128108814749
2128.536050209845 463.09489920441206 168.55275895091384
2201.505431718666 461.64569281699886 168.025290962587
2120.1177582440528 418.9482629272539 152.48469740305168
2099.9447485604596 398.5751477647851 145.0694899046356
1921.8465833220505 344.3445921498989 125.33118187309908
2016.8408944403088 350.1922445784472 127.4595532974251
2063.18174287554 350.21512955857844 127.46788274900467
2238.6076985295003 356.793024752573 129.86204080374142
2420.606381780155 377.9800055502225 137.57347116805545
2353.5846033111297 359.85917982228693 130.9780299827617
2567.1422534155054 386.16152838779936 140.55130195190262
2722.8707251628593 385.9333237949941 140.46824227279865
2800.8299978166965 385.4820914920681 140.3040071457942
2877.1330801285376 387.4815368776199 141.03174575117595
2958.383318494 389.2763091365064 141.68498943069736
3043.1226883502272 392.8016315307522 142.96810184839492
3130.784139955816 397.53186851588174 144.68976731200715
3214.278980516357 401.82692356598176 146.25303950477831
3106.8194105077578 387.2877782445008 140.96122337608853
3185.826130165934 388.25848959303005 141.31453341301756
3262.772496869412 394.1579601829828 143.46176510568924
3336.9330872221435 400.9646327233583 145.93919130478304
3405.3106405629815 403.9230611927738 147.015971207856
3657.487676754475 433.1472185337851 157.6526946014963
3695.0288442202386 433.92064613024746 157.93419922496867
3698.6237185763916 430.7606765487528 156.78406435611794
3672.303267291155 428.7201295977907 156.0413660043451
3597.389678873436 413.6995965168374 150.57433906006727
3436.391295783526 387.67209192230206 141.10110211542954
3211.0303672946834 359.4356698743306 130.82388496778998
2978.414901232362 331.28990446986626 120.57966413992547
2745.9014686202313 307.06297789737357 111.7617839997852
2489.7727524542656 276.77172127873285 100.73666823208085
2237.1992735027547 247.13179887594208 89.94861873150498
1975.987250030677 217.89887847899635 79.30870584634337
1731.0605519348078 189.9455659254104 69.13453212769826
115.02293813580351 -37.087186340679686 -13.498631900691535
138.54809646612796 -82.50908954365076 -30.030852650293745
142.06379521460707 -122.62454619217912 -44.63168480435435
1263.3444215672544 12.9254139811799 4.704465954717713
1292.5311711839393 206.29631790340463 75.08571915555741
1388.4954709406998 269.33228569934863 98.02893512144402
1471.5123711709414 263.9995236988689 96.08796848684352
1461.6283656477667 258.7960805012315 94.19407004720853
1478.0663347232432 277.5024183643616 101.00262022151475
1669.1629597320846 354.8919846356867 129.17011878704884
2026.4909394566507 463.3077726300872 168.63023854152587
2182.635193313582 517.990550005199 188.533141833072
2147.346479083371 518.1518205038703 188.5918394942536
2056.7042906326687 476.4477821410054 173.4128108814749
2128.536050209845 463.09489920441206 168.55275895091384
2201.505431718666 461.64569281699886 168.025290962587
2120.1177582440528 418.9482629272539 152.48469740305168
2099.9447485604596 398.5751477647851 145.0694899046356
1921.8465833220505 344.3445921498989 125.33118187309908
2016.8408944403088 350.1922445784472 127.4595532974251
2063.18174287554 350.21512955857844 127.46788274900467
2238.6076985295003 356.793024752573 129.86204080374142
2420.606381780155 377.9800055502225 137.57347116805545
2353.5846033111297 359.85917982228693 130.9780299827617
2567.1422534155054 386.16152838779936 140.55130195190262
2722.8707251628593 385.9333237949941 140.46824227279865
2800.8299978166965 385.4820914920681 140.3040071457942
2877.1330801285376 387.4815368776199 141.03174575117595
2958.383318494 389.2763091365064 141.68498943069736
3043.1226883502272 392.8016315307522 142.96810184839492
3130.784139955816 397.53186851588174 144.68976731200715
3214.278980516357 401.82692356598176 146.25303950477831
3106.8194105077578 387.2877782445008 140.96122337608853
3185.826130165934 388.25848959303005 141.31453341301756
3262.772496869412 394.1579601829828 143.46176510568924
3336.9330872221435 400.9646327233583 145.93919130478304
3405.3106405629815 403.9230611927738 147.015971207856
3657.487676754475 433.1472185337851 157.6526946014963
3695.0288442202386 433.92064613024746 157.93419922496867
3698.6237185763916 430.7606765487528 156.78406435611794
3672.303267291155 428.7201295977907 156.0413660043451
3597.389678873436 413.6995965168374 150.57433906006727
3436.391295783526 387.67209192230206 141.10110211542954
3211.0303672946834 359.4356698743306 130.82388496778998
2978.414901232362 331.28990446986626 120.57966413992547
2745.9014686202313 307.06297789737357 111.7617839997852
2489.7727524542656 276.77172127873285 100.73666823208085
2237.1992735027547 247.13179887594208 89.94861873150498
1975.987250030677 217.89887847899635 79.30870584634337
1731.0605519348078 189.9455659254104 69.13453212769826

VECTORS D float
90.78617427142413 29.025629165402133 11.332450219039217
59.14172059500158 34.99485072690867 13.439096573083631
12.037546942851565 10.331445904526905 3.9437510726486056
525.8780239692787 588.4845928783594 223.97171732346985
511.0989635866511 702.2295374181579 266.75826567286856
470.01845680696806 762.8140668692548 289.15759656084464
408.1747199958263 761.347170254385 288.21381813952974
344.101096240372 722.9502033056126 273.3715845050761
307.2979056008736 715.9699403574165 270.4910893410672
319.80498884345263 816.1083325555877 308.10125202645713
357.5202827981926 989.2694837245386 373.24768942299903
353.9661750876832 1053.6906721727032 397.1047165743372
320.7446811316002 1019.3228499944645 383.9671982757245
277.64576426740865 936.4535537664049 352.58612520500054
258.63022186919005 921.1119492656927 346.6343212589253
245.06532501739485 917.5506843579542 345.15976538876686
214.98922326755505 842.9656424763568 316.99723841765643
196.5963207855394 804.5244930365672 302.43993431410905
165.50010365786153 704.5322016386984 264.7515410044522
162.31360101708418 716.837148150125 269.2822043930378
156.33936705609983 714.5328242615274 268.33011453016627
157.2412531811707 742.0242884761118 278.57032213033506
161.22051143836194 783.8818588672732 294.201600332514
149.01550166713957 745.0452595438957 279.55143342818667
155.2598047531347 796.7590153281299 298.8797099865983
154.38162343964817 812.448991091912 304.6229551336715
151.50840200106745 815.6106088278267 305.7329940534688
149.34312686832212 821.1298730819084 307.7237271251316
147.55882349603547 827.4583981817502 310.0143264178328
146.40975788772556 836.2124148174394 313.20994218853684
145.75007989041302 846.7750944379488 317.07894312785197
145.10321498482716 856.5061353103322 320.6325284999302
137.02240353602676 820.8305833828531 307.18939240843457
136.24594781050064 827.445740231255 309.57518567261405
136.3614499614985 838.7571712783938 313.7153580731289
136.68821230201593 850.7585948961884 318.110847832126
136.41512866875055 858.4114574391061 320.8785157733965
144.19982179610875 916.707920191242 342.5404927870733
143.09338390794497 918.2725910481018 343.02609268223927
140.8475617710645 911.756573076099 340.49551830677404
138.33590116623338 902.7123056793286 337.02496311458515
133.10029283522556 874.9831896680058 326.5851996985278
124.75763924062139 825.7098621594813 308.1150062934232
115.0920460956167 766.458385970597 285.9354654006868
105.55598890299568 706.9046052873597 263.6578863440186
96.81111694083513 651.6752956552178 242.9871074303339
86.95322307022576 587.9634106554926 219.1893771291852
77.44372943793292 525.7512144688457 195.96343608350324
67.99407438519077 463.2008366670186 172.62286554281835
59.168619201710584 404.27048493400036 150.64135471580664
90.78617427142413 29.025629165402133 11.332450219039217
59.14172059500158 34.99485072690867 13.439096573083631
12.037546942851565 10.331445904526905 3.9437510726486056
525.8780239692787 588.4845928783594 223.97171732346985
511.0989635866511 702.2295374181579 266.75826567286856
470.01845680696806 762.8140668692548 289.15759656084464
408.1747199958263 761.347170254385 288.21381813952974
344.101096240372 722.9502033056126 273.3715845050761
307.2979056008736 715.9699403574165 270.4910893410672
319.80498884345263 816.1083325555877 308.10125202645713
357.5202827981926 989.2694837245386 373.24768942299903
353.9661750876832 1053.6906721727032 397.1047165743372
320.7446811316002 1019.3228499944645 383.9671982757245
277.64576426740865 936.4535537664049 352.58612520500054
258.63022186919005 921.1119492656927 346.6343212589253
245.06532501739485 917.5506843579542 345.15976538876686
214.98922326755505 842.9656424763568 316.99723841765643
196.5963207855394 804.5244930365672 302.43993431410905
165.50010365786153 704.5322016386984 264.7515410044522
162.31360101708418 716.837148150125 269.2822043930378
156.33936705609983 714.5328242615274 268.33011453016627
157.2412531811707 742.0242884761118 278.57032213033506
161.22051143836194 783.8818588672732 294.201600332514
149.01550166713957 745.0452595438957 279.55143342818667
155.2598047531347 796.7590153281299 298.8797099865983
154.38162343964817 812.448991091912 304.6229551336715
151.50840200106745 815.6106088278267 305.7329940534688
149.34312686832212 821.1298730819084 307.7237271251316
147.55882349603547 827.4583981817502 310.0143264178328
146.40975788772556 836.2124148174394 313.20994218853684
145.75007989041302 846.7750944379488 317.07894312785197
145.10321498482716 856.5061353103322 320.6325284999302
137.02240353602676 820.8305833828531 307.18939240843457
136.24594781050064 827.445740231255 309.57518567261405
136.3614499614985 838.7571712783938 313.7153580731289
136.68821230201593 850.7585948961884 318.110847832126
136.41512866875055 858.4114574391061 320.8785157733965
144.19982179610875 916.707920191242 342.5404927870733
143.09338390794497 918.2725910481018 343.02609268223927
140.8475617710645 911.756573076099 340.49551830677404
138.33590116623338 902.7123056793286 337.02496311458515
133.10029283522556 874.9831896680058 326.5851996985278
124.75763924062139 825.7098621594813 308.1150062934232
115.0920460956167 766.458385970597 285.9354654006868
105.55598890299568 706.9046052873597 263.6578863440186
96.81111694083513 651.6752956552178 242.9871074303339
86.95322307022576 587.9634106554926 219.1893771291852
77.44372943793292 525.7512144688457 195.96343608350324
67.99407438519077 463.2008366670186 172.62286554281835
59.168619201710584 404.27048493400036 150.64135471580664

VECTORS L float
24.23676386437938 -66.11281550608179 -24.83108211973075
79.40637587112639 -117.50394027055945 -43.46994922337738
130.0262482717555 -132.955992096706 -48.57543587700297
737.4663975979756 -575.5591788971795 -219.26725136875217
781.4322075972883 -495.933219514753 -191.6725465173111
918.4770141337318 -493.48178116990624 -191.12866143940067
1063.3376511751153 -497.3476465555162 -192.12584965268624
1117.527269407395 -464.15412280438125 -179.17751445786763
1170.76842912237 -438.4675219930547 -169.4884691195524
1349.357970888632 -461.21634791990124 -178.93113323940838
1668.970656658458 -525.9617110944517 -204.61745088147327
1828.669018225899 -535.7001221675046 -208.5715747412653
1826.6017979517712 -501.1710294905945 -195.37535878147102
1779.0585263652601 -460.0057716253997 -179.17331432352563
1869.9058283406548 -458.0170500612807 -178.0815623080116
1956.4401067012716 -455.9049915409554 -177.13447442617982
1905.1285349764976 -424.0173795491034 -164.51254101460484
1903.3484277749203 -405.9493452717823 -157.3704444094735
1756.3464796641892 -360.1876094887995 -139.42035913135305
1854.5272934232253 -366.6449035716778 -141.82265109561268
1906.84237581944 -364.31769470294887 -140.8622317811616
2081.3664453483298 -385.23126372353886 -148.70828132659366
2259.385870341793 -405.9018533170508 -156.62812916445856
2204.5691016439905 -385.1860797216086 -148.57340344542496
2411.8824486623707 -410.5974869403305 -158.32840803469566
2568.4891017232117 -426.5156672969181 -164.15471286087282
2649.32159581563 -430.1285173357587 -165.42898690767467
2727.7899532602155 -433.64833620428846 -166.69198137395557
2810.8244949979644 -438.1820890452438 -168.32933698713546
2896.712930462502 -443.4107832866872 -170.24184034014198
2985.0340600654026 -449.24322592206676 -172.3891758158447
3069.1757655315296 -454.67921174435037 -174.3794889951519
2969.7970069717308 -433.54280513835204 -166.228169032346
3049.580182355434 -439.1872506382248 -168.2606522595965
3126.411046907914 -444.5992110954112 -170.2535929674397
3200.2448749201276 -449.7939621728301 -172.17165652734303
3268.895511894232 -454.4883962463324 -173.8625445655405
3513.287854958366 -483.56070165745695 -184.88779818557697
3551.9354603122947 -484.35194491785415 -185.09189345727052
3557.776156805328 -480.9958965273464 -183.7114539506561
3533.967366124921 -473.9921760815382 -180.98359711024014
3464.2893860382096 -461.28359315116865 -176.01086063846057
3311.6336565429046 -438.03777023717925 -167.01390417799365
3095.9383211990676 -407.0227160962664 -155.1115804328968
2872.8589123293664 -375.6147008174934 -143.0782222040931
2649.090351679397 -344.61231775784427 -131.22532343054874
2402.81952938404 -311.1916893767598 -118.45270889710439
2159.755544064822 -278.61941559290364 -106.01481735199825
1907.9931756454864 -245.30195818802216 -93.31415969647495
1671.8919327330975 -214.32491900858997 -81.50682258810836
24.23676386437938 -66.11281550608179 -24.83108211973075