# vtk DataFile Version 4.0
[MyVLM domain - lattices] 
ASCII
DATASET UNSTRUCTURED_GRID
POINTS 62 float
0.0 1.1697000850057035 2.0044568982172333
0.0 6.634048995703219 3.21135651159698
0.0 11.826286469452668 4.436366979618778
0.0 16.815220914003916 5.289256430373955
0.0 21.559427651326803 6.004955887258534
0.0 26.043784528067842 6.669227343659554
0.0 30.26925483597478 7.276607700601097
0.0 34.23131555872834 7.852748258304425
0.0 37.93108857033073 8.391286553136991
0.0 41.36867356920534 8.891657167242705
0.0 44.544070417400974 9.353860882981719
0.0 47.457279218544556 9.777897112656548
0.0 50.1083034528758 10.163746118846936
0.0 52.497143118575984 10.511407911867487
0.0 54.62390342032034 10.820285846356143
0.0 56.4893735539149 11.08590417048591
0.0 58.09884937496735 11.278228594629736
0.0 59.45218858473333 11.398066135069575
0.0 60.55400096441779 11.419273423465125
0.0 61.396818887335414 11.384201475272643
0.0 61.97315383294295 11.335319800904873
-0.8152938918039478 1.7682275217001495 -1.3899608720503482
-0.9232602711185554 7.313531289402469 -0.6421790674117018
-1.045017403566863 12.60986418936614 -0.007523097583975512
-0.8624275731409438 17.596153119692808 0.8603698098966251
-0.7172432011617597 22.302448395292412 1.7910758504075923
-0.5835709082011334 26.74691520991418 2.6815750908890497
-0.458823694439046 30.92773917495299 3.5421574404510054
-0.35706975050238215 34.84961433448627 4.346201652256636
-0.27205245991127286 38.51163416052334 5.098848902018398
-0.20240159072431146 41.9138299574731 5.799921653611326
-0.1506132401889805 45.05627407613171 6.449009585280486
-0.11426271706148827 47.93908344711181 7.04544955056817
-0.08424963388989035 50.56237732699174 7.5885652118098825
-0.059335794404298196 52.92618091646256 8.07821364878449
-0.038970351202568594 55.03037884139115 8.51504918071576
-0.02333805368457717 56.87418075619713 8.90355408012476
-0.011931771028020786 58.45241865945135 9.273037539560448
-0.005641151376299379 59.76521326403825 9.622814962235882
-0.0026418300562744777 60.80783438482433 9.979712561102124
-0.0014569859069231085 61.587779642362094 10.30120921702938
-0.001005086180947595 62.112580410693134 10.544592385338747
-0.6519578110959388 4.381128189252098 -0.11007580107149206
-0.7381041280070318 9.778815237682718 0.7123271245285909
-0.7152918662654275 14.90744491382918 1.5355204433663348
-0.5923765403635137 19.7588066387858 2.4060686623181433
-0.4878052910110849 24.343912874376805 3.261517006851002
-0.39089797599006726 28.667125314830518 4.077129079785102
-0.30596004185303555 32.72907886537761 4.849304154628556
-0.23592082890512064 36.530768701760984 5.572398309283315
-0.17792026898834412 40.07201931169067 6.247406923408609
-0.1323805615924845 43.35288201092759 6.874038970862481
-0.0993284839689258 46.37342777570951 7.45189192539803
-0.07444213160676699 49.133745624216374 7.980460939829705
-0.05384453561032071 51.633890162726836 8.459436326562193
-0.036864804602575046 53.873840726557184 8.888935280840547
-0.023365651832679663 55.85336947087501 9.270249974920452
-0.013226184267224234 57.57100264697846 9.61173845302141
-0.006589845901620062 59.02549171627118 9.92048152938604
-0.0031061180372151964 60.21566656196735 10.20311526606859
-0.0015370559861990949 61.14220774166405 10.455780029141536
-0.0009232770329515139 61.808881609930495 10.657115760410237

CELLS 40 140
4 0 21 22 1
4 1 22 23 2
4 2 23 24 3
4 3 24 25 4
4 4 25 26 5
4 5 26 27 6
4 6 27 28 7
4 7 28 29 8
4 8 29 30 9
4 9 30 31 10
4 10 31 32 11
4 11 32 33 12
4 12 33 34 13
4 13 34 35 14
4 14 35 36 15
4 15 36 37 16
4 16 37 38 17
4 17 38 39 18
4 18 39 40 19
4 19 40 41 20
1 42
1 43
1 44
1 45
1 46
1 47
1 48
1 49
1 50
1 51
1 52
1 53
1 54
1 55
1 56
1 57
1 58
1 59
1 60
1 61

CELL_TYPES 40
9
9
9
9
9
9
9
9
9
9
9
9
9
9
9
9
9
9
9
9
1
1
1
1
1
1
1
1
1
1
1
1
1
1
1
1
1
1
1
1

CELL_DATA 40

VECTORS S float
1.651427115453e-20 -9.55347595111847e-18 -2.7924804024679996e-20
1.2970003112311799e-18 5.967835010616103e-16 5.1474823590240295e-18
-1.1494216293418499e-17 -2.0107894462504157e-15 -2.725392134209026e-17
1.6003728940681e-18 3.173225393041433e-16 4.86592581806149e-18
3.91140499400577e-18 8.77335502268931e-16 1.468739967159663e-17
-1.0820668584487769e-17 -2.6764365619917385e-15 -4.741576653576532e-17
7.86246931939399e-18 2.1134553403252386e-15 3.984750205666614e-17
-3.16489011528177e-18 -8.961153715903157e-16 -1.798464498339431e-17
2.42511420639528e-18 7.317683238541309e-16 1.517022504374258e-17
-7.326462295830759e-18 -2.3226234492005613e-15 -4.9756653130468155e-17
2.4548474329721e-18 7.973354966495205e-16 1.7772144584633798e-17
1.043736438044247e-17 3.4734929613784274e-15 7.954729898866089e-17
1.1941469966281279e-17 4.006225789429528e-15 9.375737243420333e-17
6.5022799397763596e-18 2.2082945323384703e-15 5.2392536198560777e-17
7.865715845821999e-20 2.6460777335959038e-17 6.3040391511663e-19
7.7788983456073e-19 2.6537202210063186e-16 6.28957396037986e-18
-3.9073009023775996e-19 -1.3327993597492835e-16 -3.1197445324512897e-18
-1.21860450652844e-18 -4.3697913694739087e-16 -1.0054055341489039e-17
1.9679736715066597e-18 7.468431858741033e-16 1.6881615292203378e-17
6.621183188037e-20 2.9956641356758036e-17 6.6577270864442e-19
1.651427115453e-20 -9.55347595111847e-18 -2.7924804024679996e-20
1.2970003112311799e-18 5.967835010616103e-16 5.1474823590240295e-18
-1.1494216293418499e-17 -2.0107894462504157e-15 -2.725392134209026e-17
1.6003728940681e-18 3.173225393041433e-16 4.86592581806149e-18
3.91140499400577e-18 8.77335502268931e-16 1.468739967159663e-17
-1.0820668584487769e-17 -2.6764365619917385e-15 -4.741576653576532e-17
7.86246931939399e-18 2.1134553403252386e-15 3.984750205666614e-17
-3.16489011528177e-18 -8.961153715903157e-16 -1.798464498339431e-17
2.42511420639528e-18 7.317683238541309e-16 1.517022504374258e-17
-7.326462295830759e-18 -2.3226234492005613e-15 -4.9756653130468155e-17
2.4548474329721e-18 7.973354966495205e-16 1.7772144584633798e-17
1.043736438044247e-17 3.4734929613784274e-15 7.954729898866089e-17
1.1941469966281279e-17 4.006225789429528e-15 9.375737243420333e-17
6.5022799397763596e-18 2.2082945323384703e-15 5.2392536198560777e-17
7.865715845821999e-20 2.6460777335959038e-17 6.3040391511663e-19
7.7788983456073e-19 2.6537202210063186e-16 6.28957396037986e-18
-3.9073009023775996e-19 -1.3327993597492835e-16 -3.1197445324512897e-18
-1.21860450652844e-18 -4.3697913694739087e-16 -1.0054055341489039e-17
1.9679736715066597e-18 7.468431858741033e-16 1.6881615292203378e-17
6.621183188037e-20 2.9956641356758036e-17 6.6577270864442e-19

SCALARS Gamma float
LOOKUP_TABLE default
0.0
56.808748925505824
81.49259483132312
83.07565624968406
82.26183030315114
88.57364549007171
90.88589036282792
95.24959769377217
99.85622884444057
91.75830811041753
91.49776965087194
90.25214172996317
90.54309198319629
86.41414900648036
80.04904398958904
70.63285094934483
57.08740621246483
40.408345609514306
23.298857588675713
9.51094621302529
0.0
56.808748925505824
81.49259483132312
83.07565624968406
82.26183030315114
88.57364549007171
90.88589036282792
95.24959769377217
99.85622884444057
91.75830811041753
91.49776965087194
90.25214172996317
90.54309198319629
86.41414900648036
80.04904398958904
70.63285094934483
57.08740621246483
40.408345609514306
23.298857588675713
9.51094621302529

VECTORS Ftot float
134.2686076113453 -8.374860805499172e-14 79.4042526377388
1192.085206676648 3.168008564890759e-13 -300.36720404944407
2036.3417522422533 9.058053221974214e-13 -858.8177918986374
2689.7029606852507 9.330262433695876e-13 -884.6266614665636
3241.6224242781896 9.105087757208483e-13 -863.2772595903132
4078.153501840066 9.815868315739992e-13 -930.6682292438861
4756.877883471263 9.899510023038226e-13 -938.5985189664326
5547.2760464746725 1.0296043761217955e-12 -976.1949230823496
6369.2016532522575 1.0738880423944281e-12 -1018.1814289610925
6323.220466608914 9.820086614973452e-13 -931.0681772619062
6737.732941736201 9.81594907758889e-13 -930.6758864866775
7035.458615485369 9.736248623240238e-13 -923.1192772970808
7410.5647193867235 9.954913772647064e-13 -943.8514938315544
7374.265407343331 9.652700699774831e-13 -915.1978794657886
7075.315245530513 9.31105691906612e-13 -882.8057362343527
6431.359593852771 8.389450107395218e-13 -795.4257763686011
5325.645216380872 7.034996597938378e-13 -667.006485411117
3846.6731410665925 4.917457652382518e-13 -466.2370621237927
2253.236937693081 2.770422349059281e-13 -262.67101176594315
931.9463619185971 9.775396176248232e-14 -92.6830959510539
134.2686076113453 -8.374860805499172e-14 79.4042526377388
1192.085206676648 3.168008564890759e-13 -300.36720404944407
2036.3417522422533 9.058053221974214e-13 -858.8177918986374
2689.7029606852507 9.330262433695876e-13 -884.6266614665636
3241.6224242781896 9.105087757208483e-13 -863.2772595903132
4078.153501840066 9.815868315739992e-13 -930.6682292438861
4756.877883471263 9.899510023038226e-13 -938.5985189664326
5547.2760464746725 1.0296043761217955e-12 -976.1949230823496
6369.2016532522575 1.0738880423944281e-12 -1018.1814289610925
6323.220466608914 9.820086614973452e-13 -931.0681772619062
6737.732941736201 9.81594907758889e-13 -930.6758864866775
7035.458615485369 9.736248623240238e-13 -923.1192772970808
7410.5647193867235 9.954913772647064e-13 -943.8514938315544
7374.265407343331 9.652700699774831e-13 -915.1978794657886
7075.315245530513 9.31105691906612e-13 -882.8057362343527
6431.359593852771 8.389450107395218e-13 -795.4257763686011
5325.645216380872 7.034996597938378e-13 -667.006485411117
3846.6731410665925 4.917457652382518e-13 -466.2370621237927
2253.236937693081 2.770422349059281e-13 -262.67101176594315
931.9463619185971 9.775396176248232e-14 -92.6830959510539

VECTORS D float
64.68639389515526 0.22363559698253221 -38.254472541660476
543.9669417276768 5.395689554829724 -762.6220979681826
668.7497361396563 16.20441228415149 -1477.6007757395844
546.7560765930347 21.952660626726825 -1611.4276938001747
452.1446667040553 25.34752862673637 -1634.5172190553906
421.41177683171185 30.020536841111753 -1790.712790076316
378.5928497986022 33.26884744104855 -1839.2344356394244
355.29591556471763 37.496401698394834 -1930.845702236025
338.23011058205435 40.85494383893842 -2024.795303418904
288.59748981795394 39.029578476512626 -1864.3820870857592
271.21270479826643 40.8112760705006 -1868.4331949137672
256.4265198783338 41.776452919533604 -1857.846012008559
253.12084380203538 43.65455853855435 -1897.5857426281227
242.404268130268 43.15721818518223 -1849.1189086951897
232.57143741236908 41.65038675699694 -1777.2653238227354
211.78158749776682 37.57991321764278 -1611.7785352160045
178.1952967330208 31.011347476431332 -1347.1669320388755
127.86221713770325 21.74717487048772 -960.6944513334976
74.03049020349779 12.32162645679058 -553.7392395185447
28.645403318966117 4.685550468295366 -213.67655615693607
64.68639389515526 0.22363559698253221 -38.254472541660476
543.9669417276768 5.395689554829724 -762.6220979681826
668.7497361396563 16.20441228415149 -1477.6007757395844
546.7560765930347 21.952660626726825 -1611.4276938001747
452.1446667040553 25.34752862673637 -1634.5172190553906
421.41177683171185 30.020536841111753 -1790.712790076316
378.5928497986022 33.26884744104855 -1839.2344356394244
355.29591556471763 37.496401698394834 -1930.845702236025
338.23011058205435 40.85494383893842 -2024.795303418904
288.59748981795394 39.029578476512626 -1864.3820870857592
271.21270479826643 40.8112760705006 -1868.4331949137672
256.4265198783338 41.776452919533604 -1857.846012008559
253.12084380203538 43.65455853855435 -1897.5857426281227
242.404268130268 43.15721818518223 -1849.1189086951897
232.57143741236908 41.65038675699694 -1777.2653238227354
211.78158749776682 37.57991321764278 -1611.7785352160045
178.1952967330208 31.011347476431332 -1347.1669320388755
127.86221713770325 21.74717487048772 -960.6944513334976
74.03049020349779 12.32162645679058 -553.7392395185447
28.645403318966117 4.685550468295366 -213.67655615693607

VECTORS L float
69.58221371619004 -0.22363559698261612 117.65872517939933
648.1182649489716 -5.395689554829409 462.2548939187386
1367.592016102597 -16.20441228415059 618.7829838409468
2142.946884092216 -21.952660626725887 726.8010323336108
2789.477757574134 -25.347528626735457 771.2399594650769
3656.7417250083536 -30.02053684111077 860.0445608324302
4378.2850336726615 -33.26884744104756 900.635916672992
5191.980130909955 -37.49640169839381 954.6507791536759
6030.971542670203 -40.85494383893734 1006.6138744578114
6034.62297679096 -39.02957847651166 933.3139098238534
6466.520236937934 -40.811276070499616 937.7573084270894
6779.032095607035 -41.77645291953262 934.7267347114783
7157.44387558469 -43.654558538553374 953.7342487965685
7131.861139213065 -43.15721818518127 933.9210292294015
6842.7438081181435 -41.650386756996014 894.459587588383
6219.578006355004 -37.57991321764196 816.3527588474041
5147.449919647851 -31.011347476430636 680.1604466277586
3718.810923928889 -21.747174870487235 494.457389209705
2179.2064474895833 -12.321626456790305 291.06822775260156
903.3009585996309 -4.685550468295267 120.99346020588216
69.58221371619004 -0.22363559698261612 117.65872517939933
648.1182649489716 -5.395689554829409 462.2548939187386
1367.592016102597 -16.20441228415059 618.7829838409468
2142.946884092216 -21.952660626725887 726.8010323336108
2789.477757574134 -25.347528626735457 771.2399594650769
3656.7417250083536 -30.02053684111077 860.0445608324302
4378.2850336726615 -33.26884744104756 900.635916672992
5191.980130909955 -37.49640169839381 954.6507791536759
6030.971542670203 -40.85494383893734 1006.6138744578114
6034.62297679096 -39.02957847651166 933.3139098238534
6466.520236937934 -40.811276070499616 937.7573084270894
6779.032095607035 -41.77645291953262 934.7267347114783
7157.44387558469 -43.654558538553374 953.7342487965685
7131.861139213065 -43.15721818518127 933.9210292294015
6842.7438081181435 -41.650386756996014 894.459587588383
6219.578006355004 -37.57991321764196 816.3527588474041
5147.449919647851 -31.011347476430636 680.1604466277586
3718.810923928889 -21.747174870487235 494.457389209705
2179.2064474895833 -12.321626456790305 291.06822775260156
903.3009585996309 -4.685550468295267 120.99346020588216

SCALARS mu float
LOOKUP_TABLE default
-2.925289525018735
-5.139246828333862
-0.45264024665652725
-0.17430423928587263
-0.18698574270478668
-0.15139340066606863
-0.20139754188717285
-0.2138121573819925
-0.2149788636947463
-0.22207884912947967
-0.21996370697478806
-0.223999927921482
-0.2108759099350267
-0.24677684858218907
-0.20999350022529303
-0.2510199948527293
-0.20392658490334428
-0.2862104509408913
-0.30394941455148705
-0.33961046979181947
-2.925289525018735
-5.139246828333862
-0.45264024665652725
-0.17430423928587263
-0.18698574270478668
-0.15139340066606863
-0.20139754188717285
-0.2138121573819925
-0.2149788636947463
-0.22207884912947967
-0.21996370697478806
-0.223999927921482
-0.2108759099350267
-0.24677684858218907
-0.20999350022529303
-0.2510199948527293
-0.20392658490334428
-0.2862104509408913
-0.30394941455148705
-0.33961046979181947