# vtk DataFile Version 4.0
[MyVLM domain - lattices] 
ASCII
DATASET UNSTRUCTURED_GRID
POINTS 152 float
0.0 1.1697031529913124 2.004439498806226
0.0 3.362677120562763 2.446171004289905
0.0 5.504259948315437 2.9428085057213185
0.0 7.604103787640485 3.439611932395663
0.0 9.662295057717843 3.9360911767888656
0.0 11.685131704257909 4.396528813892638
0.0 13.67799022350594 4.790433218297985
0.0 15.642232937676276 5.11007827679826
0.0 17.56945439310412 5.403133685948317
0.0 19.456254097511096 5.688884595784189
0.0 21.30266382135544 5.967150827083717
0.0 23.10875240670847 6.237541957059406
0.0 24.8745910612119 6.499654147107398
0.0 26.6007556120094 6.7502217192165395
0.0 28.286864274422925 6.991409881890421
0.0 29.93208089085113 7.227960720531917
0.0 31.53628122420089 7.460578818708536
0.0 33.09966845713174 7.688111870297265
0.0 34.622388994739886 7.909729570737695
0.0 36.10444288078079 8.125431671880229
0.0 37.54583015784137 8.335217932202404
0.0 38.94655086734003 8.539088116808903
0.0 40.30660504952659 8.737041997431547
0.0 41.62599274348235 8.929079352429298
0.0 42.90471398712006 9.115199966788255
0.0 44.14276881718394 9.295403632121667
0.0 45.34015726924964 9.469690146669913
0.0 46.496879377724284 9.638059315300524
0.0 47.61293512426442 9.800511242044454
0.0 48.68832383243301 9.957049763166665
0.0 49.723045393514646 10.107675495222894
0.0 50.71709994482595 10.252387659451966
0.0 51.670487618286785 10.391185507699046
0.0 52.583208540420316 10.524068322415623
0.0 53.455262832353 10.651035416659532
0.0 54.286650609814544 10.772086134094934
0.0 55.077444133596515 10.886810663408191
0.0 55.8278725872883 10.993909239875762
0.0 56.53828670135805 11.091392772169861
0.0 57.20886945033199 11.17822356018643
0.0 57.83951614388696 11.254995332251903
0.0 58.430281223288574 11.321399336606442
0.0 58.98322803545642 11.365733751377428
0.0 59.49831034202802 11.388260807349159
0.0 59.9739707601752 11.39781286144146
0.0 60.409147234399555 11.400413129693753
0.0 60.803568936968205 11.39759755250383
0.0 61.15748964760752 11.387926873523242
0.0 61.47068248466632 11.372687802535683
0.0 61.742700422730884 11.354415546642844
0.0 61.97315648457739 11.335304762738724
-0.8152906147965383 1.7682299453737211 -1.3899746173862115
-0.840508508576773 3.979657165117312 -1.0528967054592115
-0.8937965186568912 6.160544996296605 -0.7791689553811925
-0.9506477078523391 8.302414559068247 -0.520705250045804
-1.020681877210228 10.405090869657315 -0.2765132071516059
-1.048954977401727 12.463202196541026 -0.01612822337358022
-0.9930987765444168 14.472965829171297 0.2819025188484954
-0.9074282632528687 16.43101726418824 0.6366600662515913
-0.838943182597301 18.344440850312676 1.0079670807315342
-0.780438039247949 20.2166103805299 1.376689831467572
-0.7250391551380654 22.048219080538367 1.7388968401592457
-0.6716005320170477 23.839214516721928 2.0948854726205286
-0.6190912009117757 25.589470447575135 2.4453716800061387
-0.5668551203523576 27.29837395796787 2.7938314767505443
-0.5160737545272154 28.966286683832255 3.1382139235664583
-0.46824322159258064 30.59407703216061 3.473594039666415
-0.4244759216876314 32.18186917682535 3.7992676000252263
-0.3845740908079094 33.729461105389795 4.116380274102494
-0.34771109645469384 35.23672227885964 4.425672385323322
-0.3130568676883623 36.70367426743728 4.7270216029909715
-0.28047282351476527 38.13032427780685 5.0203870559687465
-0.25028172479700606 39.516672772976456 5.305766118407229
-0.22269967179244904 40.862723087547636 5.583139878841323
-0.19756508903558764 42.16848357446222 5.85246096538387
-0.17527331282135344 43.43395614931155 6.11371851417652
-0.15618952887338375 44.65914420340012 6.366893292175806
-0.13996799493970205 45.84405762887896 6.611929198205334
-0.12575834684109707 46.988708410144675 6.84875826537459
-0.11252036551224441 48.09310713091312 7.077320470448319
-0.10008619772204906 49.157255499109816 7.297606127299453
-0.0884564051429673 50.18115428509582 7.509610866993365
-0.07764813403823374 51.16480438735043 7.713329594000792
-0.06766754153321136 52.10820680470977 7.908756643640469
-0.05846867713071129 53.011362763814645 8.095885059286845
-0.05000632361003568 53.87427338353294 8.274708495524761
-0.0422455662862189 54.69693964992228 8.445221360143496
-0.03513713503927796 55.479309392518374 8.607719526548738
-0.028610254341892315 56.221214182299285 8.763158203190523
-0.02259956362415257 56.92213259074097 8.914494558177465
-0.017476911002663225 57.58179466076242 9.063259594195221
-0.013355710955940858 58.20068862397847 9.20668441216271
-0.010110762084772787 58.77880088412732 9.34484612031235
-0.007505342360435571 59.31361110880434 9.492038233989918
-0.005475063785670375 59.805097086375646 9.648386721630812
-0.003985447751437076 60.25515677114698 9.803127749486398
-0.0029419419370193198 60.66503814580103 9.949183656057182
-0.00222865752783443 61.03494051365674 10.085424136053822
-0.0017402354220029323 61.36435135332755 10.214755842698155
-0.0014049497009942318 61.653442735375386 10.33620291534062
-0.0011720086804816246 61.902709458725326 10.446959209833008
-0.0010052173229800666 62.11257985019663 10.54459556407241
-0.6209246712649916 2.722005200628397 -0.3597504331800174
-0.6503643852126241 4.910942944139994 -0.013402184063748601
-0.6916665849409614 7.062155300256311 0.3103497277294993
-0.7392485943984627 9.173614391441877 0.623005967199037
-0.7761138204794831 11.244038245071346 0.931836962388243
-0.765770157729804 13.271453250612602 1.248035614826921
-0.7126976399239822 15.254021555157603 1.5820249062995628
-0.6548892921938138 17.192257709285396 1.9308866754619947
-0.6072679581919687 19.088607772892868 2.280748627291228
-0.5645539478947554 20.94417578775892 2.625349429718545
-0.5237398826831674 22.7592146274806 2.9632549653103055
-0.4840093998483088 24.533674795101444 3.294745945255851
-0.44472987047405005 26.267359986231284 3.620935667074249
-0.40609832807983987 27.960200226479092 3.9422209752572455
-0.3691188660449235 29.61250453915658 4.256849311515119
-0.33476967873007946 31.22452509275124 4.563390557289422
-0.3033937546858278 32.79624256599726 4.86195428892362
-0.27460694522347623 34.32757595057749 5.152999927414051
-0.24778798655364606 35.81850268930143 5.4366554009451
-0.22257363420117282 37.26903358429432 5.7128594476202235
-0.19903295561691423 38.67917152219142 5.981595696517404
-0.17736802372104568 40.048917937304864 6.242856013248264
-0.15759928531051376 41.378277222379815 6.496615485317053
-0.1398144006963529 42.66725323774046 6.7428522197373395
-0.12429856563552642 43.91584798280487 6.981554877245863
-0.11105907142990716 45.124066447908845 7.212695156241876
-0.09964737816779967 46.2919168455056 7.436226481588775
-0.08935451713250306 47.419407640645254 7.652100845601712
-0.07972746121286005 48.50654335584577 7.860292599806804
-0.07070347607438114 49.55332482232056 8.0607970301585
-0.062289202192950394 50.55975266945991 8.253610567207167
-0.054493378339291916 51.52582764241166 8.43872898500935
-0.047301081998971 52.45155060803504 8.616147367362077
-0.040678125277780114 53.336922476852 8.785860550438747
-0.03459445871109547 54.181944067816644 8.947863889719905
-0.029018512997061326 54.98660523384162 9.102214932197478
-0.023905271017938854 55.75086093066722 9.249169136562717
-0.01920368173726683 56.47452495097089 9.3897825370187
-0.015028677985055923 57.15736723827503 9.525359848684294
-0.01156223323447653 57.79947943105521 9.655381363939016
-0.008799927390267616 58.40103323643661 9.778873283285442
-0.006606039166953134 58.961343154692486 9.899723268861333
-0.00486765230478973 59.47970787037804 10.021908678198598
-0.003547691826415294 59.95663033434637 10.142577135267782
-0.0025977711331711486 60.392962843177344 10.256895025970744
-0.001938974799320156 60.78908151871763 10.362729257316325
-0.0014883348561890108 61.14486677319108 10.460758045285376
-0.0011794444211239365 61.46019429979784 10.551686368771906
-0.0009663593930534462 61.73522993621241 10.634573715587425
-0.0008164597512981341 61.97021560425926 10.708048078887227

CELLS 100 350
4 0 51 52 1
4 1 52 53 2
4 2 53 54 3
4 3 54 55 4
4 4 55 56 5
4 5 56 57 6
4 6 57 58 7
4 7 58 59 8
4 8 59 60 9
4 9 60 61 10
4 10 61 62 11
4 11 62 63 12
4 12 63 64 13
4 13 64 65 14
4 14 65 66 15
4 15 66 67 16
4 16 67 68 17
4 17 68 69 18
4 18 69 70 19
4 19 70 71 20
4 20 71 72 21
4 21 72 73 22
4 22 73 74 23
4 23 74 75 24
4 24 75 76 25
4 25 76 77 26
4 26 77 78 27
4 27 78 79 28
4 28 79 80 29
4 29 80 81 30
4 30 81 82 31
4 31 82 83 32
4 32 83 84 33
4 33 84 85 34
4 34 85 86 35
4 35 86 87 36
4 36 87 88 37
4 37 88 89 38
4 38 89 90 39
4 39 90 91 40
4 40 91 92 41
4 41 92 93 42
4 42 93 94 43
4 43 94 95 44
4 44 95 96 45
4 45 96 97 46
4 46 97 98 47
4 47 98 99 48
4 48 99 100 49
4 49 100 101 50
1 102
1 103
1 104
1 105
1 106
1 107
1 108
1 109
1 110
1 111
1 112
1 113
1 114
1 115
1 116
1 117
1 118
1 119
1 120
1 121
1 122
1 123
1 124
1 125
1 126
1 127
1 128
1 129
1 130
1 131
1 132
1 133
1 134
1 135
1 136
1 137
1 138
1 139
1 140
1 141
1 142
1 143
1 144
1 145
1 146
1 147
1 148
1 149
1 150
1 151

CELL_TYPES 100
9
9
9
9
9
9
9
9
9
9
9
9
9
9
9
9
9
9
9
9
9
9
9
9
9
9
9
9
9
9
9
9
9
9
9
9
9
9
9
9
9
9
9
9
9
9
9
9
9
9
1
1
1
1
1
1
1
1
1
1
1
1
1
1
1
1
1
1
1
1
1
1
1
1
1
1
1
1
1
1
1
1
1
1
1
1
1
1
1
1
1
1
1
1
1
1
1
1
1
1

CELL_DATA 100

VECTORS S float
-1.7922236035905e-19 4.135156502382768e-17 5.1868286810622e-19
5.7256749534583e-19 -9.466314822554851e-17 -8.968761278903399e-19
-1.06155990956256e-18 1.368401586323509e-16 1.14689368968631e-18
1.976369323427e-20 8.077335842555987e-17 1.27798932825915e-18
2.6981291905819997e-20 9.41066032628e-18 1.5786646761016e-19
-1.7950734654920898e-18 -5.493274306317656e-16 -8.88226736329864e-18
1.3683620210938899e-18 4.757216503486642e-16 7.26588571545049e-18
8.4819791195919e-19 2.980420400531248e-16 4.3857348378671996e-18
2.59858447581112e-18 9.059589375081085e-16 1.289874973027866e-17
1.4084856822481699e-18 4.471210372596668e-16 6.22656565764868e-18
-5.528797967033499e-19 -1.6809566271435126e-16 -2.29131321154581e-18
-1.85039433589559e-18 -5.439002531434861e-16 -7.27757036101449e-18
-3.89308892552205e-18 -1.1706148300798211e-15 -1.534995924915356e-17
8.288793799027299e-19 2.6281055757755595e-16 3.37813555113321e-18
1.17344357186472e-18 4.1044426835950798e-16 5.10078016714824e-18
-1.10358286548703e-18 -4.180386520985015e-16 -5.0940202463213395e-18
1.39490376256533e-18 5.516856711290324e-16 6.618470428115339e-18
-1.1842925650451299e-18 -5.045675253547434e-16 -5.96037548292277e-18
1.2109131192063299e-18 5.42598440582063e-16 6.32774809289994e-18
-1.53653343584051e-18 -7.268169448968782e-16 -8.37698170306639e-18
7.7630623733515e-19 3.8595772476100727e-16 4.41812038117281e-18
-2.8438877206636598e-18 -1.5191515038512603e-15 -1.7083702582758018e-17
-5.3573068923973e-19 -2.9434930128077467e-16 -3.2602517990198397e-18
-3.4027816083056996e-19 -1.93639305463349e-16 -2.11396942453774e-18
-1.4953362073362e-19 -8.925270551952093e-17 -9.608196025796099e-19
-4.0466009277826996e-19 -2.453971729701234e-16 -2.6091521400978498e-18
7.212692167010399e-19 4.618304704440218e-16 4.84756508804488e-18
2.0313733985039999e-19 1.3606932582947697e-16 1.41107541510085e-18
-1.62942820142156e-18 -1.1339404950946345e-15 -1.162909218140912e-17
-5.5533095786624e-19 -4.0107439167007704e-16 -4.05901142616423e-18
-5.5649930838776e-19 -4.120153538970001e-16 -4.11632211653356e-18
-8.9786413061688e-19 -6.763050198000202e-16 -6.671631083656679e-18
-1.5505113270756798e-18 -1.206105147210214e-15 -1.174482757566549e-17
-1.76815915146982e-18 -1.408387465450242e-15 -1.354100151831127e-17
3.9049284290315998e-19 3.2036657885588253e-16 3.0410041266046397e-18
-1.1298158288033e-18 -9.265177702590713e-16 -8.68867980804783e-18
3.6342940680311997e-19 3.0538650082785007e-16 2.8282535579815198e-18
2.7166237443415e-19 2.33668192531093e-16 2.13753891453081e-18
-2.846521160018e-20 -2.432045755054778e-17 -2.2056417107465e-19
1.04555487229856e-18 9.389829952578027e-16 8.405400967636739e-18
3.3960453501998e-19 3.116116327162882e-16 2.7557696536829698e-18
1.5235857680552999e-18 1.42707157403786e-15 1.2473533306324609e-17
-1.7422852940069998e-20 -1.663100161633488e-17 -1.4374301634304e-19
4.5953623514669995e-19 4.468556275662238e-16 3.82116576262317e-18
-5.274918853552099e-19 -5.243986776263537e-16 -4.4391021630997296e-18
1.3384456122911e-19 1.3518552791509518e-16 1.1337423939995199e-18
-2.894289206061e-20 -2.956376282314666e-17 -2.4583843782921e-19
-3.3047088752229e-19 -3.4184935060516754e-16 -2.82074632071572e-18
-6.559643938048999e-20 -6.648754351504686e-17 -5.4513783312954e-19
-1.8127257651758998e-19 -1.854761101402276e-16 -1.5116873386714699e-18
-1.7922236035905e-19 4.135156502382768e-17 5.1868286810622e-19
5.7256749534583e-19 -9.466314822554851e-17 -8.968761278903399e-19
-1.06155990956256e-18 1.368401586323509e-16 1.14689368968631e-18
1.976369323427e-20 8.077335842555987e-17 1.27798932825915e-18
2.6981291905819997e-20 9.41066032628e-18 1.5786646761016e-19
-1.7950734654920898e-18 -5.493274306317656e-16 -8.88226736329864e-18
1.3683620210938899e-18 4.757216503486642e-16 7.26588571545049e-18
8.4819791195919e-19 2.980420400531248e-16 4.3857348378671996e-18
2.59858447581112e-18 9.059589375081085e-16 1.289874973027866e-17
1.4084856822481699e-18 4.471210372596668e-16 6.22656565764868e-18
-5.528797967033499e-19 -1.6809566271435126e-16 -2.29131321154581e-18
-1.85039433589559e-18 -5.439002531434861e-16 -7.27757036101449e-18
-3.89308892552205e-18 -1.1706148300798211e-15 -1.534995924915356e-17
8.288793799027299e-19 2.6281055757755595e-16 3.37813555113321e-18
1.17344357186472e-18 4.1044426835950798e-16 5.10078016714824e-18
-1.10358286548703e-18 -4.180386520985015e-16 -5.0940202463213395e-18
1.39490376256533e-18 5.516856711290324e-16 6.618470428115339e-18
-1.1842925650451299e-18 -5.045675253547434e-16 -5.96037548292277e-18
1.2109131192063299e-18 5.42598440582063e-16 6.32774809289994e-18
-1.53653343584051e-18 -7.268169448968782e-16 -8.37698170306639e-18
7.7630623733515e-19 3.8595772476100727e-16 4.41812038117281e-18
-2.8438877206636598e-18 -1.5191515038512603e-15 -1.7083702582758018e-17
-5.3573068923973e-19 -2.9434930128077467e-16 -3.2602517990198397e-18
-3.4027816083056996e-19 -1.93639305463349e-16 -2.11396942453774e-18
-1.4953362073362e-19 -8.925270551952093e-17 -9.608196025796099e-19
-4.0466009277826996e-19 -2.453971729701234e-16 -2.6091521400978498e-18
7.212692167010399e-19 4.618304704440218e-16 4.84756508804488e-18
2.0313733985039999e-19 1.3606932582947697e-16 1.41107541510085e-18
-1.62942820142156e-18 -1.1339404950946345e-15 -1.162909218140912e-17
-5.5533095786624e-19 -4.0107439167007704e-16 -4.05901142616423e-18
-5.5649930838776e-19 -4.120153538970001e-16 -4.11632211653356e-18
-8.9786413061688e-19 -6.763050198000202e-16 -6.671631083656679e-18
-1.5505113270756798e-18 -1.206105147210214e-15 -1.174482757566549e-17
-1.76815915146982e-18 -1.408387465450242e-15 -1.354100151831127e-17
3.9049284290315998e-19 3.2036657885588253e-16 3.0410041266046397e-18
-1.1298158288033e-18 -9.265177702590713e-16 -8.68867980804783e-18
3.6342940680311997e-19 3.0538650082785007e-16 2.8282535579815198e-18
2.7166237443415e-19 2.33668192531093e-16 2.13753891453081e-18
-2.846521160018e-20 -2.432045755054778e-17 -2.2056417107465e-19
1.04555487229856e-18 9.389829952578027e-16 8.405400967636739e-18
3.3960453501998e-19 3.116116327162882e-16 2.7557696536829698e-18
1.5235857680552999e-18 1.42707157403786e-15 1.2473533306324609e-17
-1.7422852940069998e-20 -1.663100161633488e-17 -1.4374301634304e-19
4.5953623514669995e-19 4.468556275662238e-16 3.82116576262317e-18
-5.274918853552099e-19 -5.243986776263537e-16 -4.4391021630997296e-18
1.3384456122911e-19 1.3518552791509518e-16 1.1337423939995199e-18
-2.894289206061e-20 -2.956376282314666e-17 -2.4583843782921e-19
-3.3047088752229e-19 -3.4184935060516754e-16 -2.82074632071572e-18
-6.559643938048999e-20 -6.648754351504686e-17 -5.4513783312954e-19
-1.8127257651758998e-19 -1.854761101402276e-16 -1.5116873386714699e-18

SCALARS Gamma float
LOOKUP_TABLE default
-0.0
-0.0
-0.0
49.382480119870735
53.76276577865328
53.167416501596165
51.6316755952645
47.92003790939008
44.78286298854469
46.57556129828139
51.52188308542286
53.235071816861044
49.756471943771224
44.65211031568931
43.16446074285922
41.817755763681994
41.788840203715864
36.65177443525105
32.689722997606395
34.46698344921602
34.933447687038964
34.33970069970354
35.45191184636993
37.06122435575129
34.791601557322345
36.95150089131716
38.37548322554091
37.53648069252706
36.8204605170826
35.699669185585925
37.24722382143939
37.0972115281229
37.07495573047544
39.10404695665544
39.224664123093206
41.28452243189481
41.53854907112952
41.68470456696524
41.57207412477942
41.0913066148998
40.337804144911104
39.078269362395915
36.92903639546419
34.161894335462335
30.16734998228969
27.33384616643911
24.985238250423237
22.184823178564937
19.478299985200156
16.975488905372927
-0.0
-0.0
-0.0
49.382480119870735
53.76276577865328
53.167416501596165
51.6316755952645
47.92003790939008
44.78286298854469
46.57556129828139
51.52188308542286
53.235071816861044
49.756471943771224
44.65211031568931
43.16446074285922
41.817755763681994
41.788840203715864
36.65177443525105
32.689722997606395
34.46698344921602
34.933447687038964
34.33970069970354
35.45191184636993
37.06122435575129
34.791601557322345
36.95150089131716
38.37548322554091
37.53648069252706
36.8204605170826
35.699669185585925
37.24722382143939
37.0972115281229
37.07495573047544
39.10404695665544
39.224664123093206
41.28452243189481
41.53854907112952
41.68470456696524
41.57207412477942
41.0913066148998
40.337804144911104
39.078269362395915
36.92903639546419
34.161894335462335
30.16734998228969
27.33384616643911
24.985238250423237
22.184823178564937
19.478299985200156
16.975488905372927

VECTORS Ftot float
112.91769188131875 -4.1151542283511397e-14 39.01685694605128
136.34454125922443 -9.180489010411829e-14 87.0426250239363
139.9778581645475 -1.3665153820194371e-13 129.56290874229057
1209.8870812939883 1.9734201194337508e-14 -18.710513925320633
1266.5065678612925 2.283043206296659e-13 -216.46131648733476
1347.6656349724797 2.8725948324972855e-13 -272.3582529941309
1442.3947813115965 2.865038265199192e-13 -271.64179502217524
1455.9382421803123 2.969830184554575e-13 -281.57739184239296
1471.6022842031114 3.126896537564542e-13 -296.46926487161676
1636.3231783115812 3.903972788234861e-13 -370.1459030391393
1932.9658104996872 4.919310875304185e-13 -466.41277105136015
2124.4691335733273 5.697208821869811e-13 -540.1673163626282
2110.857203121427 5.646505909489137e-13 -535.3600402088555
2008.9339219903034 5.198927377575534e-13 -492.9239452710631
2055.401061259475 4.987191158600935e-13 -472.84867881054
2097.3498700548826 4.792355211970889e-13 -454.3757715128252
2196.220165094509 4.881983675606875e-13 -462.87368131141085
2015.1193872037225 4.222989480388755e-13 -400.3927126372287
1873.035410338813 3.780451108684933e-13 -358.43448851296597
2053.173702086906 3.9720433205653123e-13 -376.5998488083673
2158.8969125903445 4.0009329284875305e-13 -379.3389483341227
2197.0678219385327 3.857516058135697e-13 -365.7412185683299
2340.450608508597 4.0562872079365373e-13 -384.5872328035945
2520.6241733146926 4.279345065177304e-13 -405.73593349310147
2434.505023755316 3.996147450093835e-13 -378.8852245717936
2653.774018374824 4.3409896070622314e-13 -411.580614248099
2827.2874862776575 4.436878684973034e-13 -420.67210931226737
2832.2624587508826 4.3003803288174465e-13 -407.7303420297622
2841.2352511180966 4.198850819677329e-13 -398.10406288175074
2813.3231894932705 4.05961708765515e-13 -384.9029474364353
2993.36160287378 4.2682347276418874e-13 -404.68253324079694
3036.4389758002753 4.309997230127251e-13 -408.6421456751369
3088.3874241499066 4.3002520185056473e-13 -407.7181765924484
3311.1901734299367 4.560248676875822e-13 -432.36914193462735
3373.3235121257917 4.568650093920626e-13 -433.1657023277297
3600.5842283817756 4.938108997854716e-13 -468.19507037165147
3672.3003966517354 4.977070101098723e-13 -471.8890747937915
3732.335562771259 5.002993980465197e-13 -474.3469858138937
3764.959333680701 5.124760514853367e-13 -485.8919904222465
3764.568107976313 4.938981374057349e-13 -468.27778264830613
3733.5733091144007 4.852763047666529e-13 -460.10319690922825
3651.3995402100954 4.704035687049819e-13 -446.00196562810794
3480.7418679519 4.4497762038908875e-13 -421.8949569205294
3245.7217045873563 4.116887494381389e-13 -390.33290496046993
2887.3054591513455 3.618655252154595e-13 -343.09419884601596
2633.303999892836 3.278847181012399e-13 -310.87610405499527
2421.05932267648 3.0062936775527744e-13 -285.0345912840628
2160.841847085145 2.670090572745126e-13 -253.1582928096937
1904.8277145364789 2.41748327976182e-13 -229.2079325875739
1666.4506247256356 2.107639928843796e-13 -199.83087154046567
112.91769188131875 -4.1151542283511397e-14 39.01685694605128
136.34454125922443 -9.180489010411829e-14 87.0426250239363
139.9778581645475 -1.3665153820194371e-13 129.56290874229057
1209.8870812939883 1.9734201194337508e-14 -18.710513925320633
1266.5065678612925 2.283043206296659e-13 -216.46131648733476
1347.6656349724797 2.8725948324972855e-13 -272.3582529941309
1442.3947813115965 2.865038265199192e-13 -271.64179502217524
1455.9382421803123 2.969830184554575e-13 -281.57739184239296
1471.6022842031114 3.126896537564542e-13 -296.46926487161676
1636.3231783115812 3.903972788234861e-13 -370.1459030391393
1932.9658104996872 4.919310875304185e-13 -466.41277105136015
2124.4691335733273 5.697208821869811e-13 -540.1673163626282
2110.857203121427 5.646505909489137e-13 -535.3600402088555
2008.9339219903034 5.198927377575534e-13 -492.9239452710631
2055.401061259475 4.987191158600935e-13 -472.84867881054
2097.3498700548826 4.792355211970889e-13 -454.3757715128252
2196.220165094509 4.881983675606875e-13 -462.87368131141085
2015.1193872037225 4.222989480388755e-13 -400.3927126372287
1873.035410338813 3.780451108684933e-13 -358.43448851296597
2053.173702086906 3.9720433205653123e-13 -376.5998488083673
2158.8969125903445 4.0009329284875305e-13 -379.3389483341227
2197.0678219385327 3.857516058135697e-13 -365.7412185683299
2340.450608508597 4.0562872079365373e-13 -384.5872328035945
2520.6241733146926 4.279345065177304e-13 -405.73593349310147
2434.505023755316 3.996147450093835e-13 -378.8852245717936
2653.774018374824 4.3409896070622314e-13 -411.580614248099
2827.2874862776575 4.436878684973034e-13 -420.67210931226737
2832.2624587508826 4.3003803288174465e-13 -407.7303420297622
2841.2352511180966 4.198850819677329e-13 -398.10406288175074
2813.3231894932705 4.05961708765515e-13 -384.9029474364353
2993.36160287378 4.2682347276418874e-13 -404.68253324079694
3036.4389758002753 4.309997230127251e-13 -408.6421456751369
3088.3874241499066 4.3002520185056473e-13 -407.7181765924484
3311.1901734299367 4.560248676875822e-13 -432.36914193462735
3373.3235121257917 4.568650093920626e-13 -433.1657023277297
3600.5842283817756 4.938108997854716e-13 -468.19507037165147
3672.3003966517354 4.977070101098723e-13 -471.8890747937915
3732.335562771259 5.002993980465197e-13 -474.3469858138937
3764.959333680701 5.124760514853367e-13 -485.8919904222465
3764.568107976313 4.938981374057349e-13 -468.27778264830613
3733.5733091144007 4.852763047666529e-13 -460.10319690922825
3651.3995402100954 4.704035687049819e-13 -446.00196562810794
3480.7418679519 4.4497762038908875e-13 -421.8949569205294
3245.7217045873563 4.116887494381389e-13 -390.33290496046993
2887.3054591513455 3.618655252154595e-13 -343.09419884601596
2633.303999892836 3.278847181012399e-13 -310.87610405499527
2421.05932267648 3.0062936775527744e-13 -285.0345912840628
2160.841847085145 2.670090572745126e-13 -253.1582928096937
1904.8277145364789 2.41748327976182e-13 -229.2079325875739
1666.4506247256356 2.107639928843796e-13 -199.83087154046567

VECTORS D float
88.82433674640771 0.7699494459204247 -30.69179313198338
57.38165852587078 0.6941428236184983 -36.63256438571217
10.799852296707307 0.16756324082003624 -9.99629724226556
501.7621938186144 9.456335027690674 -605.4327650082873
496.4320419050651 10.920479892499856 -735.8326721364688
449.0143840344668 11.237587174884029 -785.7372909671346
394.28618153735005 10.974163577006717 -792.7696181704316
341.6810565532958 10.411061835074248 -773.5869569395072
303.2538397307343 9.973155415519797 -761.5699358010363
310.0902564289693 10.894244712376901 -852.4448265992978
336.39387906749306 12.55415723460824 -1002.1697374552999
342.4807517696848 13.507167626991047 -1096.5577711965088
310.7793681403476 12.89191555099247 -1061.9806205293535
268.35136046403034 11.659036122097977 -972.888341387137
247.1186055092105 11.042316935704816 -945.3917394538801
228.66996760468498 10.596670357613291 -919.151048626094
221.54566410573668 10.622081839353905 -932.1013511771919
186.14815084328168 9.214236646557136 -817.0053158192992
160.6709788484313 8.194930855478011 -733.4544976958013
163.77601127776762 8.59201784709791 -775.5145838585283
160.23794123965237 8.680447536607252 -786.4610274507603
151.88514235346835 8.367880621810587 -769.3895780664935
154.020558145667 8.620112302760235 -803.5690905344724
157.7847295877548 8.9608947339897 -846.2147604629583
144.4564980859574 8.315675386381775 -794.9438454453992
151.73990962021696 8.84419050003199 -855.3515900910488
153.4085090534169 9.043389368082984 -884.3948505206274
146.73250076200603 8.738979286996422 -863.8190821336357
141.31823978807122 8.493281964500012 -847.9719764242607
134.72648794295895 8.144568807418256 -823.2043270218891
139.02591267599666 8.443469533674078 -863.9282377838268
137.47491369567612 8.3782390611894 -867.8056168628419
135.61151824184495 8.28422135105686 -868.6299685141424
141.76293719057244 8.671580156166668 -920.4344461132077
140.64229590999133 8.606442919119372 -924.7394501956338
148.37231532703964 9.07537541195792 -987.0463834356459
148.07927078172676 9.046542854849223 -995.8472148380254
147.50063853289197 8.994422244981967 -1001.9844541688334
147.8363631252216 9.018070991698329 -1013.4547465750073
143.45149995416892 8.719346479432389 -991.8984853625288
139.98294996767748 8.475563017627477 -975.6341104757997
134.85775026175764 8.131736902926123 -946.8077441011138
126.8186007357088 7.614390498083047 -896.3529901461429
116.75278234036738 6.9797683885982025 -830.2704239178555
102.43209205739377 6.097545608191558 -732.4852710287165
92.44419694834374 5.48031329105258 -664.376848176765
84.31816298860828 4.9790263917342585 -608.6890567109107
74.64322371887256 4.3916557723266 -540.9745906728667
66.2769914870045 3.886495019657553 -481.99010493636774
57.63672777689101 3.369908135202121 -420.3815129865737
88.82433674640771 0.7699494459204247 -30.69179313198338
57.38165852587078 0.6941428236184983 -36.63256438571217
10.799852296707307 0.16756324082003624 -9.99629724226556
501.7621938186144 9.456335027690674 -605.4327650082873
496.4320419050651 10.920479892499856 -735.8326721364688
449.0143840344668 11.237587174884029 -785.7372909671346
394.28618153735005 10.974163577006717 -792.7696181704316
341.6810565532958 10.411061835074248 -773.5869569395072
303.2538397307343 9.973155415519797 -761.5699358010363
310.0902564289693 10.894244712376901 -852.4448265992978
336.39387906749306 12.55415723460824 -1002.1697374552999
342.4807517696848 13.507167626991047 -1096.5577711965088
310.7793681403476 12.89191555099247 -1061.9806205293535
268.35136046403034 11.659036122097977 -972.888341387137
247.1186055092105 11.042316935704816 -945.3917394538801
228.66996760468498 10.596670357613291 -919.151048626094
221.54566410573668 10.622081839353905 -932.1013511771919
186.14815084328168 9.214236646557136 -817.0053158192992
160.6709788484313 8.194930855478011 -733.4544976958013
163.77601127776762 8.59201784709791 -775.5145838585283
160.23794123965237 8.680447536607252 -786.4610274507603
151.88514235346835 8.367880621810587 -769.3895780664935
154.020558145667 8.620112302760235 -803.5690905344724
157.7847295877548 8.9608947339897 -846.2147604629583
144.4564980859574 8.315675386381775 -794.9438454453992
151.73990962021696 8.84419050003199 -855.3515900910488
153.4085090534169 9.043389368082984 -884.3948505206274
146.73250076200603 8.738979286996422 -863.8190821336357
141.31823978807122 8.493281964500012 -847.9719764242607
134.72648794295895 8.144568807418256 -823.2043270218891
139.02591267599666 8.443469533674078 -863.9282377838268
137.47491369567612 8.3782390611894 -867.8056168628419
135.61151824184495 8.28422135105686 -868.6299685141424
141.76293719057244 8.671580156166668 -920.4344461132077
140.64229590999133 8.606442919119372 -924.7394501956338
148.37231532703964 9.07537541195792 -987.0463834356459
148.07927078172676 9.046542854849223 -995.8472148380254
147.50063853289197 8.994422244981967 -1001.9844541688334
147.8363631252216 9.018070991698329 -1013.4547465750073
143.45149995416892 8.719346479432389 -991.8984853625288
139.98294996767748 8.475563017627477 -975.6341104757997
134.85775026175764 8.131736902926123 -946.8077441011138
126.8186007357088 7.614390498083047 -896.3529901461429
116.75278234036738 6.9797683885982025 -830.2704239178555
102.43209205739377 6.097545608191558 -732.4852710287165
92.44419694834374 5.48031329105258 -664.376848176765
84.31816298860828 4.9790263917342585 -608.6890567109107
74.64322371887256 4.3916557723266 -540.9745906728667
66.2769914870045 3.886495019657553 -481.99010493636774
57.63672777689101 3.369908135202121 -420.3815129865737

VECTORS L float
24.093355134911043 -0.7699494459204659 69.70865007803465
78.96288273335365 -0.6941428236185901 123.67518940964847
129.1780058678402 -0.16756324082017315 139.55920598455614
708.1248874753738 -9.456335027690653 586.7222510829667
770.0745259562273 -10.920479892499625 519.3713556491339
898.6512509380128 -11.23758717488374 513.3790379730038
1048.1085997742466 -10.974163577006435 521.1278231482564
1114.2571856270167 -10.411061835073951 492.00956509711443
1168.3484444723772 -9.97315541551948 465.10067092941944
1326.2329218826121 -10.894244712376508 482.2989235601584
1596.5719314321939 -12.554157234607748 535.7569664039396