# vtk DataFile Version 4.0
[MyVLM domain - lattices] 
ASCII
DATASET UNSTRUCTURED_GRID
POINTS 152 float
0.0 2.2873604333827857 0.39238427375119
0.0 4.035362893229193 -1.003591709478407
0.0 5.792392198242098 -2.3249069017315778
0.0 7.522719304763195 -3.614141519148066
0.0 9.226024317825239 -4.871676797704334
0.0 10.878994343947234 -6.125295961960126
0.0 12.461727388092939 -7.398717285999682
0.0 13.969180588013263 -8.697950619025304
0.0 15.432468128389694 -9.985915519662194
0.0 16.864177496938684 -11.247610804202537
0.0 18.264191090025232 -12.483176627200836
0.0 19.632254077272982 -13.692916683673625
0.0 20.96810287175334 -14.877145104290012
0.0 22.269605953526124 -16.038402135596414
0.0 23.538176562073083 -17.175003544363236
0.0 24.776909873819996 -18.283260642965352
0.0 25.98626577302934 -19.362625362680774
0.0 27.16549214529486 -20.413994038555202
0.0 28.314047047803797 -21.438012532882734
0.0 29.43193031858799 -22.43468103868948
0.0 30.51914180000487 -23.40399974384657
0.0 31.57568133873739 -24.345968831070117
0.0 32.60154878579408 -25.260588477921253
0.0 33.59674399650903 -26.147858856806092
0.0 34.56126683054188 -27.00778013497577
0.0 35.49511715187784 -27.840352474526398
0.0 36.39829482882767 -28.64557603239909
0.0 37.270799734027705 -29.423450960379988
0.0 38.11263193537932 -30.17397717754735
0.0 38.923793936826634 -30.897151699816785
0.0 39.70428614079783 -31.59297404759306
0.0 40.45410803899264 -32.26144482664483
0.0 41.17325914308769 -32.90256461893326
0.0 41.86173898473645 -33.516333982612004
0.0 42.519547115569246 -34.1027534520272
0.0 43.146683107193304 -34.6618235377175
0.0 43.74287947427058 -35.193863016295495
0.0 44.30728785562882 -35.69988292523602
0.0 44.8386099641088 -36.181430502925316
0.0 45.336168489070516 -36.639312936751885
0.0 45.800350959156596 -37.07306838806367
0.0 46.23095585096807 -37.48293702309534
0.0 46.620345342719475 -37.878021243399374
0.0 46.968690593399444 -38.258117069636114
0.0 47.28175651456055 -38.61635414775183
0.0 47.56347448126432 -38.94804724739306
0.0 47.81484700740641 -39.252001619023105
0.0 48.03493468512256 -39.52933680533906
0.0 48.2245773545782 -39.77905192380655
0.0 48.38542975468862 -39.99917493337853
0.0 48.51892434600732 -40.1879986940441
-0.8152906147965383 0.07181396823780051 -2.248001185644752
-0.840508508576773 1.751508646142355 -3.7253832134056934
-0.8937965186568912 3.3630439440152773 -5.220091411368867
-0.9506477078523391 4.937805845749725 -6.694721420472496
-1.020681877210228 6.476442082890751 -8.148501304320732
-1.048954977401727 7.998837013061901 -9.557733808279279
-0.9930987765444168 9.518992968473093 -10.905731602632274
-0.9074282632528687 11.049364217873586 -12.177652267854652
-0.838943182597301 12.56372686624981 -13.40474822504065
-0.780438039247949 14.049592257758997 -14.601902874657565
-0.7250391551380654 15.504394302185508 -15.77217436393879
-0.6716005320170477 16.928327091279925 -16.91533138334329
-0.6190912009117757 18.32185792897034 -18.030817021735924
-0.5668551203523576 19.68725562254703 -19.115927419877597
-0.5160737545272154 21.02318151646221 -20.17225792532664
-0.46824322159258064 22.326421057805977 -21.203639493061992
-0.4244759216876314 23.596514596337727 -22.21061991290924
-0.3845740908079094 24.834209914689335 -23.19230801223038
-0.34771109645469384 26.039990224658595 -24.148127921629406
-0.3130568676883623 27.21377568055388 -25.078174797496146
-0.28047282351476527 28.35553960563532 -25.982480431931197
-0.25028172479700606 29.465280286001423 -26.861046867482813
-0.22269967179244904 30.54298537806999 -27.713888814659416
-0.19756508903558764 31.58862396203763 -28.541043122247796
-0.17527331282135344 32.602188947024395 -29.342518240829605
-0.15618952887338375 33.58366777955271 -30.118329131056814
-0.13996799493970205 34.53302384218029 -30.868519431897862
-0.12575834684109707 35.45021277266997 -31.593142012208247
-0.11252036551224441 36.335195393637335 -32.29224356177659
-0.10008619772204906 37.18796538291194 -32.96583161507223
-0.0884564051429673 38.00851988887425 -33.61390957052301
-0.07764813403823374 38.79685558565371 -34.23648139174707
-0.06766754153321136 39.552968775892246 -34.83355148508423
-0.05846867713071129 40.27685491897498 -35.40512526182855
-0.05000632361003568 40.968509873226324 -35.951207657836804
-0.0422455662862189 41.627929988589955 -36.4718030230767
-0.03513713503927796 42.25530838271613 -36.966681208894805
-0.028610254341892315 42.85126852364161 -37.43509919501841
-0.02259956362415257 43.41774056576876 -37.87475671300423
-0.017476911002663225 43.955723800130514 -38.28446285417374
-0.013355710955940858 44.46341095620493 -38.666371439664225
-0.010110762084772787 44.940852362816344 -39.02042248991849
-0.007505342360435571 45.39737744952604 -39.33549762374001
-0.005475063785670375 45.83306843639092 -39.61149885508061
-0.003985447751437076 46.240899729892654 -39.85679896025585
-0.0029419419370193198 46.616251714574815 -40.076903382582316
-0.00222865752783443 46.95838663605547 -40.272691343495154
-0.0017402354220029323 47.26920167748629 -40.441901868157544
-0.0014049497009942318 47.54805989106462 -40.58529404140159
-0.0011720086804816246 47.79312969627747 -40.70505065588379
-0.0010052173229800666 48.00282557016677 -40.80306126428554
-0.6209246712649916 1.4740863962190554 -2.316420079109819
-0.6503643852126241 3.146426607743023 -3.770615310691708
-0.6916665849409614 4.7772076090375375 -5.210435864550466
-0.7392485943984627 6.373935926063733 -6.62693581140401
-0.7761138204794831 7.941356993703803 -8.01445976218306
-0.765770157729804 9.486776459580645 -9.36430118508681
-0.7126976399239822 11.016997441893277 -10.66835243956072
-0.6548892921938138 12.530115246096644 -11.928883452171677
-0.6072679581919687 14.017075374669348 -13.15668495286992
-0.5645539478947554 15.473791033349679 -14.356627393399057
-0.5237398826831674 16.899326168461815 -15.529826319090086
-0.4840093998483088 18.29386400122214 -16.67606337540016
-0.44472987047405005 19.658131184978945 -17.794472570590873
-0.40609832807983987 20.992386741578365 -18.884745214446546
-0.3691188660449235 22.2954867698372 -19.94824455531181
-0.33476967873007946 23.566497826160056 -20.98608302794498
-0.3033937546858278 24.805491431425676 -21.99817539708186
-0.27460694522347623 26.012767451392804 -22.98416429662716
-0.24778798655364606 27.18840938525365 -23.94395021611861
-0.22257363420117282 28.332377247145057 -24.877580808852258
-0.19903295561691423 29.444660351706563 -25.78506880914484
-0.17736802372104568 30.525253389593217 -26.66642054442726
-0.15759928531051376 31.574140100328247 -27.521655393181124
-0.1398144006963529 32.591306194279625 -28.350790385126757
-0.12429856563552642 33.57674427026888 -29.153834340645176
-0.11105907142990716 34.53043585573807 -29.93080927447369
-0.09964737816779967 35.45235055092577 -30.681751415637176
-0.08935451713250306 36.34245702104112 -31.40669810748523
-0.07972746121286005 37.20073852523172 -32.10566930098882
-0.07070347607438114 38.02719198662288 -32.77866866302444
-0.062289202192950394 38.82181507542179 -33.425698970131016
-0.054493378339291916 39.58460503333977 -34.046763509509006
-0.047301081998971 40.31555865155322 -34.641866105285445
-0.040678125277780114 41.01467255961369 -35.211010774204404
-0.03459445871109547 41.681943726026425 -35.754201129060654
-0.029018512997061326 42.31740971192277 -36.271392406240935
-0.023905271017938854 42.92123725612157 -36.76238589415889
-0.01920368173726683 43.49411563599609 -37.226360144028654
-0.015028677985055923 44.03689644385964 -37.66230026765139
-0.01156223323447653 44.549240464654176 -38.07061052579118
-0.008799927390267616 45.03051209589856 -38.45204839998839
-0.006606039166953134 45.48324882883934 -38.80358982593378
-0.00486765230478973 45.910046699233725 -39.12214096868717
-0.003547691826415294 46.30904395085134 -39.40992058292467
-0.0025977711331711486 46.67708566615341 -39.67068855295742
-0.001938974799320156 47.012779567570206 -39.90610413058107
-0.0014883348561890108 47.31656832914428 -40.11563975741503
-0.0011794444211239365 47.588912093169185 -40.29874705722788
-0.0009663593930534462 47.829196983911636 -40.45615761863015
-0.0008164597512981341 48.036527487503584 -40.58893867349133

CELLS 100 350
4 0 51 52 1
4 1 52 53 2
4 2 53 54 3
4 3 54 55 4
4 4 55 56 5
4 5 56 57 6
4 6 57 58 7
4 7 58 59 8
4 8 59 60 9
4 9 60 61 10
4 10 61 62 11
4 11 62 63 12
4 12 63 64 13
4 13 64 65 14
4 14 65 66 15
4 15 66 67 16
4 16 67 68 17
4 17 68 69 18
4 18 69 70 19
4 19 70 71 20
4 20 71 72 21
4 21 72 73 22
4 22 73 74 23
4 23 74 75 24
4 24 75 76 25
4 25 76 77 26
4 26 77 78 27
4 27 78 79 28
4 28 79 80 29
4 29 80 81 30
4 30 81 82 31
4 31 82 83 32
4 32 83 84 33
4 33 84 85 34
4 34 85 86 35
4 35 86 87 36
4 36 87 88 37
4 37 88 89 38
4 38 89 90 39
4 39 90 91 40
4 40 91 92 41
4 41 92 93 42
4 42 93 94 43
4 43 94 95 44
4 44 95 96 45
4 45 96 97 46
4 46 97 98 47
4 47 98 99 48
4 48 99 100 49
4 49 100 101 50
1 102
1 103
1 104
1 105
1 106
1 107
1 108
1 109
1 110
1 111
1 112
1 113
1 114
1 115
1 116
1 117
1 118
1 119
1 120
1 121
1 122
1 123
1 124
1 125
1 126
1 127
1 128
1 129
1 130
1 131
1 132
1 133
1 134
1 135
1 136
1 137
1 138
1 139
1 140
1 141
1 142
1 143
1 144
1 145
1 146
1 147
1 148
1 149
1 150
1 151

CELL_TYPES 100
9
9
9
9
9
9
9
9
9
9
9
9
9
9
9
9
9
9
9
9
9
9
9
9
9
9
9
9
9
9
9
9
9
9
9
9
9
9
9
9
9
9
9
9
9
9
9
9
9
9
1
1
1
1
1
1
1
1
1
1
1
1
1
1
1
1
1
1
1
1
1
1
1
1
1
1
1
1
1
1
1
1
1
1
1
1
1
1
1
1
1
1
1
1
1
1
1
1
1
1

CELL_DATA 100

VECTORS S float
-0.0 0.0 -0.0
-0.0 0.0 -0.0
1.0909396708493917e-16 -9.224767116134554e-15 1.0809262782262595e-14
-4.6524594485196e-19 -1.1631193561169063e-15 1.3426081959590634e-15
4.001549153669577e-17 9.312703672253581e-15 -1.0734073821704912e-14
9.155963004237219e-17 1.8613546455147005e-14 -2.147838616243192e-14
0.0 0.0 -0.0
0.0 0.0 -0.0
7.953684113892007e-17 1.8570750894550786e-14 -2.1515446824311105e-14
0.0 0.0 -0.0
9.119731367473678e-17 1.8556764486494206e-14 -2.1527464824941235e-14
1.891317458680411e-16 3.7104700759825656e-14 -4.3062508966521707e-14
1.8559406807762346e-16 3.709400326776496e-14 -4.3071739507456647e-14
8.813589196563426e-17 1.8541383895636873e-14 -2.1540726130877784e-14
-1.6162426766643732e-16 -3.707122871853021e-14 4.3091439366535267e-14
7.460703811614892e-17 1.853044708125939e-14 -2.1550186349654264e-14
7.133387724283275e-17 1.8526133701592972e-14 -2.1553905643640894e-14
0.0 0.0 -0.0
0.0 0.0 -0.0
5.923676523344299e-17 1.851426692281626e-14 -2.1564136390374472e-14
5.61003852077108e-17 1.8510890431670287e-14 -2.156704326327077e-14
-5.240886564854669e-17 -1.850761336766427e-14 2.1569864804633626e-14
0.0 0.0 -0.0
0.0 0.0 -0.0
0.0 0.0 -0.0
-4.6155014004594656e-17 -1.8495274919962086e-14 2.158045973319428e-14
0.0 0.0 -0.0
0.0 0.0 -0.0
0.0 0.0 -0.0
0.0 0.0 -0.0
-3.845952164356518e-17 -1.848476120086478e-14 2.158948103031926e-14
0.0 0.0 -0.0
0.0 0.0 -0.0
0.0 0.0 -0.0
0.0 0.0 -0.0
3.4428414539386676e-17 1.8470051428243268e-14 -2.1602073554838136e-14
-6.710660027359492e-17 -3.6934583423631674e-14 4.3208868439387025e-14
0.0 0.0 -0.0
3.280047362658633e-17 1.8462104371896995e-14 -2.1608868393241416e-14
0.0 0.0 -0.0
0.0 0.0 -0.0
2.986647820101365e-17 1.8454815134650495e-14 -2.161509827147846e-14
2.928973979595618e-17 1.8452645331227166e-14 -2.1616951434867015e-14
0.0 0.0 -0.0
0.0 0.0 -0.0
0.0 0.0 -0.0
0.0 0.0 -0.0
-1.348638806245482e-17 -9.221961847338865e-15 1.0812198182614967e-14
0.0 0.0 -0.0
-1.3628685605730319e-17 -9.220830864100852e-15 1.0813162542529028e-14
-0.0 0.0 -0.0
-0.0 0.0 -0.0
1.0909396708493917e-16 -9.224767116134554e-15 1.0809262782262595e-14
-4.6524594485196e-19 -1.1631193561169063e-15 1.3426081959590634e-15
4.001549153669577e-17 9.312703672253581e-15 -1.0734073821704912e-14
9.155963004237219e-17 1.8613546455147005e-14 -2.147838616243192e-14
0.0 0.0 -0.0
0.0 0.0 -0.0
7.953684113892007e-17 1.8570750894550786e-14 -2.1515446824311105e-14
0.0 0.0 -0.0
9.119731367473678e-17 1.8556764486494206e-14 -2.1527464824941235e-14
1.891317458680411e-16 3.7104700759825656e-14 -4.3062508966521707e-14
1.8559406807762346e-16 3.709400326776496e-14 -4.3071739507456647e-14
8.813589196563426e-17 1.8541383895636873e-14 -2.1540726130877784e-14
-1.6162426766643732e-16 -3.707122871853021e-14 4.3091439366535267e-14
7.460703811614892e-17 1.853044708125939e-14 -2.1550186349654264e-14
7.133387724283275e-17 1.8526133701592972e-14 -2.1553905643640894e-14
0.0 0.0 -0.0
0.0 0.0 -0.0
5.923676523344299e-17 1.851426692281626e-14 -2.1564136390374472e-14
5.61003852077108e-17 1.8510890431670287e-14 -2.156704326327077e-14
-5.240886564854669e-17 -1.850761336766427e-14 2.1569864804633626e-14
0.0 0.0 -0.0
0.0 0.0 -0.0
0.0 0.0 -0.0
-4.6155014004594656e-17 -1.8495274919962086e-14 2.158045973319428e-14
0.0 0.0 -0.0
0.0 0.0 -0.0
0.0 0.0 -0.0
0.0 0.0 -0.0
-3.845952164356518e-17 -1.848476120086478e-14 2.158948103031926e-14
0.0 0.0 -0.0
0.0 0.0 -0.0
0.0 0.0 -0.0
0.0 0.0 -0.0
3.4428414539386676e-17 1.8470051428243268e-14 -2.1602073554838136e-14
-6.710660027359492e-17 -3.6934583423631674e-14 4.3208868439387025e-14
0.0 0.0 -0.0
3.280047362658633e-17 1.8462104371896995e-14 -2.1608868393241416e-14
0.0 0.0 -0.0
0.0 0.0 -0.0
2.986647820101365e-17 1.8454815134650495e-14 -2.161509827147846e-14
2.928973979595618e-17 1.8452645331227166e-14 -2.1616951434867015e-14
0.0 0.0 -0.0
0.0 0.0 -0.0
0.0 0.0 -0.0
0.0 0.0 -0.0
-1.348638806245482e-17 -9.221961847338865e-15 1.0812198182614967e-14
0.0 0.0 -0.0
-1.3628685605730319e-17 -9.220830864100852e-15 1.0813162542529028e-14

SCALARS Gamma float
LOOKUP_TABLE default
-0.0
-0.0
-0.0
49.906145233482185
54.371888631554555
53.741702840553266
52.16074885691948
48.27802580184502
45.06402715312808
46.91198172211152
52.10046254132158
53.73456071770244
50.392252222930935
45.25322962118773
43.72193852814767
42.33234628175618
42.29979691968253
37.17391211570931
33.22873576299623
34.97986164703143
35.664688296731676
35.028691544907154
36.07623176064279
37.61581769711196
35.23367685765091
37.42668461431987
38.858014057720155
38.00670112214285
37.246739705474624
36.09271789516079
37.64778050954873
37.49557088081677
37.43713377160729
39.488532209418615
39.60624810874015
41.65019837148595
41.896984833344916
42.03498963203524
41.89534130570437
41.40422281318325
40.640075692645425
39.367617079400674
37.20010771853385
34.41115817313905
30.412179975615757
27.55718998167132
25.18707157851362
22.364269964708395
19.636112596082135
17.123370158177146
-0.0
-0.0
-0.0
49.906145233482185
54.371888631554555
53.741702840553266
52.16074885691948
48.27802580184502
45.06402715312808
46.91198172211152
52.10046254132158
53.73456071770244
50.392252222930935
45.25322962118773
43.72193852814767
42.33234628175618
42.29979691968253
37.17391211570931
33.22873576299623
34.97986164703143
35.664688296731676
35.028691544907154
36.07623176064279
37.61581769711196
35.23367685765091
37.42668461431987
38.858014057720155
38.00670112214285
37.246739705474624
36.09271789516079
37.64778050954873
37.49557088081677
37.43713377160729
39.488532209418615
39.60624810874015
41.65019837148595
41.896984833344916
42.03498963203524
41.89534130570437
41.40422281318325
40.640075692645425
39.367617079400674
37.20010771853385
34.41115817313905
30.412179975615757
27.55718998167132
25.18707157851362
22.364269964708395
19.636112596082135
17.123370158177146

VECTORS Ftot float
114.36101467813032 30.094295219252466 25.25211201901495
137.7675210645776 67.00367644603058 56.22276019338612
141.27615604951814 99.61547049479978 83.58730455173779
1227.2572461032426 -15.62721484982711 -13.112790216818057
1285.418450748919 -168.23311762572482 -141.1643469515498
1365.8223407673486 -211.58309468678107 -177.53929671502567
1460.4081167540712 -210.6066665559787 -176.7199762305983
1469.8479900485163 -216.9528786632803 -182.04508046920785
1482.5298306075108 -228.01185831923502 -191.3246662197165
1649.5303290358538 -285.6877881308544 -239.72051765245308
1956.4826723278231 -361.8624992205709 -303.6386896328701
2146.6632296242706 -418.14278614089756 -350.8634576302677
2139.335694705473 -416.8384482807525 -349.76898821288955
2036.9481143002736 -384.7842750621638 -322.872343287479
2082.093634576859 -368.4957131437971 -309.20461698936924
2123.482799069262 -353.87313928847243 -296.93482066050376
2223.578177608918 -360.2795159944569 -302.31040899167806
2044.3315389733377 -312.4309528087043 -262.1606972701502
1904.3931098483388 -280.48005487237987 -235.3507105959974
2084.3229988150197 -294.10717050458584 -246.78521829699164
2203.9914187186887 -298.6643532598025 -250.60914866610145
2241.0891176444457 -287.62968327784637 -241.34996115407898
2381.615269554515 -301.56070014520327 -253.03947226940264
2558.377263114517 -317.4796091011901 -266.3970229031159
2465.4699950942163 -295.8522698653055 -248.2495305269392
2688.1404507158886 -320.49866471506255 -268.93031135521994
2862.8533113324406 -328.5754757099182 -275.70756048209194
2867.7803951588594 -318.4329024781062 -267.19693102408996
2874.08743595241 -310.44706029793963 -260.49601379607225
2844.1531105760896 -299.98513859394393 -251.7174191528438
3025.4342977518013 -315.2995160265341 -264.5677076082399
3068.982252209371 -318.2187883989544 -267.0172679792438
3118.525983599858 -317.18088869769247 -266.1463667227159
3343.7507297093744 -336.5104091761213 -282.36576022699927
3406.160293725213 -337.09212974800244 -282.85388174431296
3632.5382963222296 -363.80825295414667 -305.27137087307534
3704.062074620745 -366.59754627818245 -307.61186587251905
3763.782301173284 -368.4271103238407 -309.14705238844607
3794.2450072407687 -377.00373869303536 -316.3436980897819
3793.236327405769 -363.3536999070547 -304.88995557890996
3761.5565124986215 -356.8846714519093 -299.46179618812215
3678.430827646644 -345.9187617249894 -290.26030538074025
3506.2780338439607 -327.1997396694028 -274.55318087789817
3269.3833909065575 -302.71135106342 -254.0049830304921
2910.694958430582 -266.4035716982458 -223.53913875630832
2654.775033948821 -241.40680622982498 -202.56436207113146
2440.5707852403357 -221.312796776428 -185.70348614991326
2178.2751616492683 -196.56739569093676 -164.93962922574366
1920.2130738458623 -177.950614688582 -149.31829515295956
1680.9038643269657 -155.30123392712585 -130.31320810962794
114.36101467813032 30.094295219252466 25.25211201901495
137.7675210645776 67.00367644603058 56.22276019338612
141.27615604951814 99.61547049479978 83.58730455173779
1227.2572461032426 -15.62721484982711 -13.112790216818057
1285.418450748919 -168.23311762572482 -141.1643469515498
1365.8223407673486 -211.58309468678107 -177.53929671502567
1460.4081167540712 -210.6066665559787 -176.7199762305983
1469.8479900485163 -216.9528786632803 -182.04508046920785
1482.5298306075108 -228.01185831923502 -191.3246662197165
1649.5303290358538 -285.6877881308544 -239.72051765245308
1956.4826723278231 -361.8624992205709 -303.6386896328701
2146.6632296242706 -418.14278614089756 -350.8634576302677
2139.335694705473 -416.8384482807525 -349.76898821288955
2036.9481143002736 -384.7842750621638 -322.872343287479
2082.093634576859 -368.4957131437971 -309.20461698936924
2123.482799069262 -353.87313928847243 -296.93482066050376
2223.578177608918 -360.2795159944569 -302.31040899167806
2044.3315389733377 -312.4309528087043 -262.1606972701502
1904.3931098483388 -280.48005487237987 -235.3507105959974
2084.3229988150197 -294.10717050458584 -246.78521829699164
2203.9914187186887 -298.6643532598025 -250.60914866610145
2241.0891176444457 -287.62968327784637 -241.34996115407898
2381.615269554515 -301.56070014520327 -253.03947226940264
2558.377263114517 -317.4796091011901 -266.3970229031159
2465.4699950942163 -295.8522698653055 -248.2495305269392
2688.1404507158886 -320.49866471506255 -268.93031135521994
2862.8533113324406 -328.5754757099182 -275.70756048209194
2867.7803951588594 -318.4329024781062 -267.19693102408996
2874.08743595241 -310.44706029793963 -260.49601379607225
2844.1531105760896 -299.98513859394393 -251.7174191528438
3025.4342977518013 -315.2995160265341 -264.5677076082399
3068.982252209371 -318.2187883989544 -267.0172679792438
3118.525983599858 -317.18088869769247 -266.1463667227159
3343.7507297093744 -336.5104091761213 -282.36576022699927
3406.160293725213 -337.09212974800244 -282.85388174431296
3632.5382963222296 -363.80825295414667 -305.27137087307534
3704.062074620745 -366.59754627818245 -307.61186587251905
3763.782301173284 -368.4271103238407 -309.14705238844607
3794.2450072407687 -377.00373869303536 -316.3436980897819
3793.236327405769 -363.3536999070547 -304.88995557890996
3761.5565124986215 -356.8846714519093 -299.46179618812215
3678.430827646644 -345.9187617249894 -290.26030538074025
3506.2780338439607 -327.1997396694028 -274.55318087789817
3269.3833909065575 -302.71135106342 -254.0049830304921
2910.694958430582 -266.4035716982458 -223.53913875630832
2654.775033948821 -241.40680622982498 -202.56436207113146
2440.5707852403357 -221.312796776428 -185.70348614991326
2178.2751616492683 -196.56739569093676 -164.93962922574366
1920.2130738458623 -177.950614688582 -149.31829515295956
1680.9038643269657 -155.30123392712585 -130.31320810962794

VECTORS D float
90.21327163239818 -23.23887068721321 -20.516992239094556
58.604614194579455 -28.05085885055388 -24.454768267714755
11.681295803076807 -8.12132692579906 -7.048742360983766
512.9083856614405 -465.36452435400105 -402.9737484160738
507.6674469596451 -565.6907751848372 -488.8913644682781
458.3385417571198 -603.7445852342589 -521.2618160561199
402.13986141291537 -608.9274505305681 -525.2019247025871
347.1460603756764 -592.1865938663166 -510.3294433294214
307.65680271348873 -582.0738557486121 -501.27141746872627
314.8930035072567 -652.5851360382201 -561.6777346896104
343.2242332447493 -770.9288000345849 -663.0898327377179
348.0315116561156 -841.5319209348247 -723.5752641104908
317.2344891775363 -818.6803903973372 -703.6924114018137
274.363366062155 -751.2514981622317 -645.5242541557286
252.24466522856804 -729.1330726697555 -626.3213863506858
233.22171161845742 -708.548036732349 -608.4546882946634
225.85158428574846 -718.3992737591356 -616.7350988437859
190.169102273196 -631.1700070913453 -541.6993115464063
164.5414745981163 -568.1016105828318 -487.44146225356934
167.42750876522678 -599.698716375764 -514.4219106855775
165.3386613905176 -612.8520714876784 -525.577931344948
156.50457799528846 -598.9520649258528 -513.5391953699562
158.22715239318393 -623.8985353003455 -534.8106996027865
161.6477319963428 -655.5124896993045 -561.6643341325789
147.6862309619843 -614.5308720064786 -526.4602799743399
154.96837733544885 -660.5412014455793 -565.7774996466494
156.87849433497303 -683.8769947199594 -585.659971227325
150.0567197982951 -667.995328522536 -571.9535526335045
144.26290170122823 -654.8779796906595 -560.6161366570708
137.41795703392745 -635.3344073438756 -543.8724663996635
141.77267966306383 -666.6710974731196 -570.5465318767293
140.1650609806101 -669.5948360475395 -572.8977651059096
138.13521865629411 -669.6606716019309 -572.8044126149207
144.45311037674108 -709.8860601704043 -607.0443701754634
143.30169041684897 -713.2179716628465 -609.7377596551717
151.0100656019306 -760.4957529713568 -649.9930016236164
150.68069574975576 -767.1904680140999 -655.5540493544341
150.05987188153995 -771.8295896808468 -659.3603422232555
150.23286525427503 -780.0262379764112 -666.2078664751677
145.7661177832301 -763.4520025247143 -651.9058802630101
142.20909044910053 -750.8309759471902 -640.9908684539839
136.99044192579325 -728.6469115391496 -621.9241966889298
128.8156781793101 -689.8293699383698 -588.677074248116
118.58659049194885 -638.9962894296257 -545.1974878245209
104.14493749817404 -564.3422641065553 -481.4194265617203
93.99633110161868 -511.93623186550826 -436.6447732509894
85.72490300918105 -469.0049340935005 -399.96987427209206
75.88986371885343 -416.8593101549666 -355.4538225154398
67.38152203045908 -371.41190430728193 -316.6648755194398
58.669878198790755 -324.25544904576964 -276.432084261494
90.21327163239818 -23.23887068721321 -20.516992239094556
58.604614194579455 -28.05085885055388 -24.454768267714755
11.681295803076807 -8.12132692579906 -7.048742360983766
512.9083856614405 -465.36452435400105 -402.9737484160738
507.6674469596451 -565.6907751848372 -488.8913644682781
458.3385417571198 -603.7445852342589 -521.2618160561199
402.13986141291537 -608.9274505305681 -525.2019247025871
347.1460603756764 -592.1865938663166 -510.3294433294214
307.65680271348873 -582.0738557486121 -501.27141746872627
314.8930035072567 -652.5851360382201 -561.6777346896104
343.2242332447493 -770.9288000345849 -663.0898327377179
348.0315116561156 -841.5319209348247 -723.5752641104908
317.2344891775363 -818.6803903973372 -703.6924114018137
274.363366062155 -751.2514981622317 -645.5242541557286
252.24466522856804 -729.1330726697555 -626.3213863506858
233.22171161845742 -708.548036732349 -608.4546882946634
225.85158428574846 -718.3992737591356 -616.7350988437859
190.169102273196 -631.1700070913453 -541.6993115464063
164.5414745981163 -568.1016105828318 -487.44146225356934
167.42750876522678 -599.698716375764 -514.4219106855775
165.3386613905176 -612.8520714876784 -525.577931344948
156.50457799528846 -598.9520649258528 -513.5391953699562
158.22715239318393 -623.8985353003455 -534.8106996027865
161.6477319963428 -655.5124896993045 -561.6643341325789
147.6862309619843 -614.5308720064786 -526.4602799743399
154.96837733544885 -660.5412014455793 -565.7774996466494
156.87849433497303 -683.8769947199594 -585.659971227325
150.0567197982951 -667.995328522536 -571.9535526335045
144.26290170122823 -654.8779796906595 -560.6161366570708
137.41795703392745 -635.3344073438756 -543.8724663996635
141.77267966306383 -666.6710974731196 -570.5465318767293
140.1650609806101 -669.5948360475395 -572.8977651059096
138.13521865629411 -669.6606716019309 -572.8044126149207
144.45311037674108 -709.8860601704043 -607.0443701754634
143.30169041684897 -713.2179716628465 -609.7377596551717
151.0100656019306 -760.4957529713568 -649.9930016236164
150.68069574975576 -767.1904680140999 -655.5540493544341
150.05987188153995 -771.8295896808468 -659.3603422232555
150.23286525427503 -780.0262379764112 -666.2078664751677
145.7661177832301 -763.4520025247143 -651.9058802630101
142.20909044910053 -750.8309759471902 -640.9908684539839
136.99044192579325 -728.6469115391496 -621.9241966889298
128.8156781793101 -689.8293699383698 -588.677074248116
118.58659049194885 -638.9962894296257 -545.1974878245209
104.14493749817404 -564.3422641065553 -481.4194265617203
93.99633110161868 -511.93623186550826 -436.6447732509894
85.72490300918105 -469.0049340935005 -399.96987427209206
75.88986371885343 -416.8593101549666 -355.4538225154398
67.38152203045908 -371.41190430728193 -316.6648755194398
58.669878198790755 -324.25544904576964 -276.432084261494

VECTORS L float
24.147743045732135 53.333165906465695 45.769104258109515
79.16290686999817 95.05453529658448 80.67752846110088
129.59486024644133 107.73679742059886 90.63604691272155
714.3488604418022 449.7373095041738 389.86095819925583
777.7510037892738 397.45765755911236 347.7270175167282
907.4837990102286 392.161490547478 343.7225193410943
1058.268255341156 398.3207839745894 348.48194847198886
1122.7019296728397 375.23371520303624 328.2843628602135
1174.873027894022 354.0619974293769 309.94675124900965
1334.637325528597 366.89734790736566 321.9572170371574
1613.2584390830739 409.06630081401386 359.4511431048475
1798.631717968155 423.3891347939276 372.71180648022334
1822.1012055279366 401.84194211658456 353.92342318892406
1762.584748238119 366.467223100068 322.6519108682497
1829.8489693482913 360.6373595259586 317.11676936131664
1890.2610874508052 354.6748974438766 311.5198676341597
1997.7265933231695 358.11975776467864 314.42468985210775
1854.162436700142 318.73905428264106 279.5386142762562
1739.8516352502224 287.6215557104519 252.09075165757184
1916.895490049793 305.5915458711781 267.63669238858597
2038.6527573281708 314.18771822787596 274.9687826788465
2084.5845396491573 311.32238164800646 272.1892342158773
2223.388117161332 322.3378351551423 281.7712273333838
2396.7295311181747 338.0328805981145 295.26731122946296
2317.783764132232 318.67860214117303 278.21074944740064
2533.1720733804395 340.0425367305168 296.8471882914295
2705.974816997468 355.3015190100415 309.9524107452333
2717.7236753605644 349.5624260444299 304.75662160941454
2729.8245342511814 344.43091939271983 300.12012286099866
2706.7351535421626 335.34926874993175 292.1550472468196
2883.661618088738 351.37158144658576 305.97882426848975
2928.817191228761 351.3760476485853 305.88049712666594
2980.3907649435646 352.4797829042385 306.6580458922049
3199.297619332635 373.37565099428315 324.67860994846427
3262.858603308364 376.1258419148442 326.8838779108589
3481.5282307202983 396.6875000172103 344.7216307505412
3553.38137887099 400.5929217359175 347.9421834819151
3613.722429291745 403.4024793570063 350.2132898348096
3644.012141986494 403.02249928337585 349.8641683853857
3647.4702096225396 400.0983026176596 347.01592468410007
3619.347422049522 393.9463044952811 341.52907226586217
3541.440385720851 382.72814981416025 331.6638913081896
3377.4623556646516 362.62963026896693 314.12389337021773
3150.796800414609 336.28493836620567 291.19250479402876
2806.550020932409 297.9386924083096 257.88028780541197
2560.7787028472026 270.5294256356832 234.08041117985783
2354.845882231155 247.69213731707268 214.266388122179
2102.3852979304147 220.29191446402984 190.51419328969615
1852.8315518154034 193.46128961869988 167.34658036648023
1622.2339861281755 168.9542151186438 146.11887615186612
24.147743045732135 53.333165906465695 45.769104258109515
79.16290686999817 95.05453529658448 80.67752846110088
129.59486024644133 107.73679742059886 90.63604691272155
714.3488604418022 449.7373095041738 389.86095819925583
777.7510037892738 397.45765755911236 347.7270175167282
907.4837990102286 392.161490547478 343.7225193410943
1058.268255341156 398.3207839745894 348.48194847198886
1122.7019296728397 375.23371520303624 328.2843628602135
1174.873027894022 354.0619974293769 309.94675124900965
1334.637325528597 366.89734790736566 321.9572170371574