# vtk DataFile Version 4.0
[MyVLM domain - lattices] 
ASCII
DATASET UNSTRUCTURED_GRID
POINTS 152 float
0.0 2.3207471002446947 -0.010772898127326958
0.0 3.7997847920012138 -1.6890783089838386
0.0 5.3006768985909725 -3.295424691408957
0.0 6.780843206435513 -4.865541086911818
0.0 8.239902479568384 -6.39974739045126
0.0 9.650071493428923 -7.9213564955090545
0.0 10.987631973932054 -9.45027039712215
0.0 12.246574071873411 -10.991531957541357
0.0 13.463978228626614 -12.514026992086183
0.0 14.654845627902306 -14.005168013037801
0.0 15.81903611514518 -15.465072624031885
0.0 16.956245995338822 -16.89399565544469
0.0 18.06616113781405 -18.292200694204872
0.0 19.146241296023838 -19.66181926025314
0.0 20.19817070319787 -21.001438114107653
0.0 21.22563804696184 -22.30796207934216
0.0 22.22919139603785 -23.580931271694073
0.0 23.207934415379963 -24.82109780556987
0.0 24.16122124269392 -26.029003623782447
0.0 25.089051684953592 -27.204648888299953
0.0 25.991425554287872 -28.348033756764973
0.0 26.868342667980635 -29.459158382494532
0.0 27.719802848470767 -30.53802291448009
0.0 28.545805923352155 -31.58462749738757
0.0 29.346351725373673 -32.598972271557315
0.0 30.12144009243921 -33.581057373004114
0.0 30.871070867607656 -34.5308829334172
0.0 31.59524389909288 -35.44844908016027
0.0 32.29395926781663 -36.3337557453319
0.0 32.967219957863506 -37.1868004249878
0.0 33.615026448828765 -38.00758271669978
0.0 34.237378134943725 -38.79610312876811
0.0 34.83427443424723 -39.552362149516185
0.0 35.40571478858556 -40.27636024729057
0.0 35.951698663612575 -40.96809787046093
0.0 36.472225548789595 -41.62757544742008
0.0 36.966976667503324 -42.25506046350666
0.0 37.43494098227665 -42.85140127989482
0.0 37.874571254728636 -43.41789618373938
0.0 38.285060297473436 -43.95522248567805
0.0 38.666869949150815 -44.46299265707856
0.0 39.01976004352508 -44.941408221340694
0.0 39.33462817906055 -45.39810700023588
0.0 39.611678335099285 -45.83291783477342
0.0 39.85778086568273 -46.24007581341107
0.0 40.07762100115754 -46.615649561092994
0.0 40.27239349106283 -46.95863656392155
0.0 40.44097879271052 -47.269976229753404
0.0 40.58437778863681 -47.548828718421575
0.0 40.70456251988695 -47.79353929101234
0.0 40.80324012647028 -48.002675486973494
-0.8152906132198464 -0.31963835405121 -2.226319358992886
-0.840508508580286 1.0779932880635392 -3.972932556079406
-0.8937965186637556 2.405492388931365 -5.724772945654519
-0.9506477078574832 3.7002633050944307 -7.450454545939273
-1.02068187720969 4.963077972953739 -9.149329625384295
-1.0489549773990687 6.217633647118413 -10.801513826387154
-0.9930987765435385 7.480617657302559 -12.393004816739413
-0.9074282632533693 8.766872423042193 -13.911348327682617
-0.8389431825969345 10.045145523249666 -15.382768254224816
-0.7804380392478915 11.30055355744751 -16.819753252217314
-0.7250391551382538 12.530038378406358 -18.224869411872355
-0.6716005320172311 13.73383129566828 -19.5979226414385
-0.6190912009116674 14.912489220368698 -20.938445636987424
-0.5668551203522249 16.06871601174338 -22.244169591231643
-0.5160737545271722 17.20091632223472 -23.516433159718332
-0.46824322159258325 18.305259196865183 -24.758450895356205
-0.42447592168765613 19.38119684580922 -25.970682448385826
-0.38457409080794247 20.42962044170455 -27.152380036175604
-0.3477110964547294 21.45110585394697 -28.303060446927894
-0.31305686768839563 22.44555792614664 -29.42280352633432
-0.2804728235147938 23.412944866202977 -30.511635951134757
-0.25028172479702737 24.353264631567725 -31.569559435230687
-0.22269967179246206 25.266502511732465 -32.59658632220431
-0.19756508903559172 26.152621657910405 -33.59274753185902
-0.17527331282134875 27.011613619519913 -34.55805015507475
-0.15618952887337012 27.843463435908998 -35.492506745329074
-0.1399679949396797 28.648127468109234 -36.3961539200643
-0.12575834684106657 29.42555284726514 -37.26903604151758
-0.11252036551220733 30.175692883588088 -38.111192287073315
-0.1000861977220127 30.898540042608804 -38.92262897890188
-0.08845640514293837 31.59409092589948 -39.70334896862282
-0.07764813403821604 32.26234156984195 -40.45335558210666
-0.06766754153320646 32.90328756809641 -41.172652516711516
-0.05846867713071907 33.516923509368766 -41.86124431305225
-0.05000632361005495 34.103244457802255 -42.51913511280447
-0.04224556628624775 34.66224606342913 -43.1463285660245
-0.03513713503931205 35.19415847490225 -43.742631555062594
-0.02861025434192226 35.69972471249242 -44.3074206118836
-0.022599563624171346 36.18124504464831 -44.838765582080605
-0.017476911002667815 36.63991038005119 -45.33566717461839
-0.0133557109559299 37.07356689755164 -45.799932660029064
-0.010110762084749267 37.48227457670562 -46.23151170948934
-0.007505342360414162 37.877151798724185 -46.62107489342573
-0.005475063785658977 38.2582965496577 -46.9685399917795
-0.0039854477514337135 38.61733605317981 -47.28093259807804
-0.0029419419370200197 38.948764865967995 -47.56287232778275
-0.0022286575278371427 39.251703766589415 -47.81509693527364
-0.0017402354220080998 39.52841372988909 -48.03570923739214
-0.0014049497010025483 39.77813567103666 -48.22534618193945
-0.0011720086804935075 39.998686797374134 -48.385839349429844
-0.0010052173229957839 40.18817755621879 -48.51877426282247
-0.6209246706750498 1.049449586785362 -2.537200869041005
-0.6503643852165156 2.4438648401971124 -4.259702438199321
-0.6916665849454646 3.7998483983879843 -5.960831031637769
-0.73924859440019 5.126346190018551 -7.633080123916724
-0.7761138204782846 6.42901360415172 -9.271704280159334
-0.7657701577284777 7.716557172577987 -10.869397852751364
-0.7126976399238405 8.997084535854963 -12.4193577234912
-0.6548892921938638 10.268325767421949 -13.923488586918731
-0.6072679581918097 11.519490137327555 -15.390844940556297
-0.5645539478948045 12.745707193826135 -16.825513578667337
-0.5237398826833068 13.94586139158849 -18.228430554926145
-0.4840093998483369 15.120171085157976 -19.59941264811592
-0.4447298704739596 16.269502266271765 -20.9377332048894
-0.40609832807977386 17.3941636251445 -22.243133203401342
-0.3691188660449083 18.492791913432423 -23.516756544834177
-0.3347696787300898 19.564274696377865 -24.75953667278279
-0.3033937546858495 20.60869720924489 -25.97140206636853
-0.27460694522350193 21.626416818128554 -27.152052859832857
-0.24778798655367185 22.617533033491043 -28.30140555398363
-0.22257363420119602 23.581998202036292 -29.41950013468402
-0.19903295561693296 24.519799589447576 -30.506347287294485
-0.17736802372105853 25.430930868294 -31.561952321159954
-0.15759928531052017 26.315372660093942 -32.586331496757204
-0.1398144006963527 27.173107935127096 -33.57949910371827
-0.12429856563551955 28.004127873012457 -34.54146254322161
-0.11105907142989367 28.808410459012695 -35.47224028782519
-0.09964737816777985 29.585919464102957 -36.37186273729039
-0.08935451713247772 30.336617544933645 -37.2403612264081
-0.07972746121283251 31.06048475053385 -38.077752496030655
-0.07070347607435665 31.75751741402714 -38.884039623032706
-0.06228920219293291 32.4277127588746 -39.659224937207036
-0.05449337833928344 33.07106749787575 -40.40331119684235
-0.04730108199897208 33.68757780690353 -41.11630161076226
-0.04067812527779026 34.2772396692139 -41.79819954941521
-0.03459445871111351 34.84004947201203 -42.44900804429599
-0.029018512997084925 35.37605197891088 -43.0686895342735
-0.023905271017962866 35.8854459014955 -43.65707728053001
-0.0192036817372851 36.36905268855343 -44.21348200569086
-0.015028677985064689 36.82788722828757 -44.737052117439305
-0.011562233234474143 37.26154525992909 -45.228126830837375
-0.008799927390254687 37.66926930193096 -45.687341748371814
-0.006606039166936287 38.05408341860938 -46.112159378790224
-0.004867652304777427 38.41908144491319 -46.49998368632813
-0.003547691826409759 38.76204462616182 -46.85267642721964
-0.00259777113317015 39.079213078035465 -47.173392519010804
-0.001938974799321436 39.36892754873657 -47.46352423927296
-0.0014883348561919659 39.631715596651105 -47.722628913959035
-0.001179444421128993 39.868125598015574 -47.95024640077122
-0.000966359393061021 40.077425964219515 -48.14699057544272
-0.0008164597513084843 40.258549463391994 -48.31375695184284

CELLS 100 350
4 0 51 52 1
4 1 52 53 2
4 2 53 54 3
4 3 54 55 4
4 4 55 56 5
4 5 56 57 6
4 6 57 58 7
4 7 58 59 8
4 8 59 60 9
4 9 60 61 10
4 10 61 62 11
4 11 62 63 12
4 12 63 64 13
4 13 64 65 14
4 14 65 66 15
4 15 66 67 16
4 16 67 68 17
4 17 68 69 18
4 18 69 70 19
4 19 70 71 20
4 20 71 72 21
4 21 72 73 22
4 22 73 74 23
4 23 74 75 24
4 24 75 76 25
4 25 76 77 26
4 26 77 78 27
4 27 78 79 28
4 28 79 80 29
4 29 80 81 30
4 30 81 82 31
4 31 82 83 32
4 32 83 84 33
4 33 84 85 34
4 34 85 86 35
4 35 86 87 36
4 36 87 88 37
4 37 88 89 38
4 38 89 90 39
4 39 90 91 40
4 40 91 92 41
4 41 92 93 42
4 42 93 94 43
4 43 94 95 44
4 44 95 96 45
4 45 96 97 46
4 46 97 98 47
4 47 98 99 48
4 48 99 100 49
4 49 100 101 50
1 102
1 103
1 104
1 105
1 106
1 107
1 108
1 109
1 110
1 111
1 112
1 113
1 114
1 115
1 116
1 117
1 118
1 119
1 120
1 121
1 122
1 123
1 124
1 125
1 126
1 127
1 128
1 129
1 130
1 131
1 132
1 133
1 134
1 135
1 136
1 137
1 138
1 139
1 140
1 141
1 142
1 143
1 144
1 145
1 146
1 147
1 148
1 149
1 150
1 151

CELL_TYPES 100
9
9
9
9
9
9
9
9
9
9
9
9
9
9
9
9
9
9
9
9
9
9
9
9
9
9
9
9
9
9
9
9
9
9
9
9
9
9
9
9
9
9
9
9
9
9
9
9
9
9
1
1
1
1
1
1
1
1
1
1
1
1
1
1
1
1
1
1
1
1
1
1
1
1
1
1
1
1
1
1
1
1
1
1
1
1
1
1
1
1
1
1
1
1
1
1
1
1
1
1

CELL_DATA 100

VECTORS S float
-1.392127726094705e-17 1.811627647541727e-15 -3.0560736162988683e-15
-0.0 0.0 -0.0
4.9949252058062404e-17 -3.599867396652551e-15 6.125810781674666e-15
1.2295267483933e-19 4.551410910260548e-16 -7.62697500561831e-16
-7.429735506186192e-17 -1.4587095225228797e-14 2.4392718170377286e-14
-8.707639489022088e-17 -1.4574372315937003e-14 2.440027983946533e-14
-7.670284527355855e-17 -1.455792374603999e-14 2.4410131909195573e-14
3.586456784859177e-17 7.270057213155493e-15 -1.2210379747853783e-14
7.325340119709138e-17 1.4527959530378977e-14 -2.442798789849872e-14
8.269979603959772e-17 1.4526192832882815e-14 -2.4429008360388986e-14
-8.676953108074544e-17 -1.4518533517924305e-14 2.443354707126455e-14
-1.7551570689188705e-16 -2.9022267810087885e-14 4.887587782517502e-14
1.7488746447187974e-16 2.90085916376569e-14 -4.888399833646689e-14
-1.638724509736071e-16 -2.899386910670932e-14 4.889277009771571e-14
7.481251522181676e-17 1.4488975860331607e-14 -2.4451125711357548e-14
7.078635465835031e-17 1.448385547847939e-14 -2.4454171151704013e-14
1.3075202443318336e-16 2.8956878020102717e-14 -4.891478699761722e-14
1.234614055023881e-16 2.894764987771646e-14 -4.8920267697793285e-14
-5.725845026117814e-17 -1.4469420283580076e-14 2.4462750562300045e-14
0.0 0.0 -0.0
5.333092194057777e-17 1.446477592468443e-14 -2.4465505925848965e-14
-4.9434807615456875e-17 -1.4461699108905923e-14 2.4467332957018048e-14
-4.7936373433109985e-17 -1.4459085261226915e-14 2.446888069485379e-14
0.0 0.0 -0.0
0.0 0.0 -0.0
0.0 0.0 -0.0
4.057050216282272e-17 1.444878246293953e-14 -2.4474979189354207e-14
-3.920535929008712e-17 -1.4445874253161736e-14 2.4476698040135187e-14
0.0 0.0 -0.0
0.0 0.0 -0.0
3.584598480393504e-17 1.4438763249910543e-14 -2.448089863188691e-14
-3.490920296679929e-17 -1.4436315308874607e-14 2.4482343609152643e-14
-3.441779281786032e-17 -1.4433889586870283e-14 2.44837744997762e-14
0.0 0.0 -0.0
3.26133978492044e-17 1.442885929527405e-14 -2.44867417748826e-14
0.0 0.0 -0.0
-3.1279282255968116e-17 -1.4423888564632413e-14 2.4489671848105357e-14
-9.244275189001226e-17 -4.326308774653607e-14 7.347406886439588e-14
3.022604449746875e-17 1.4418773728966202e-14 -2.4492684979099873e-14
-2.965518350748722e-17 -1.4416555843158194e-14 2.449399120473241e-14
5.880970129671826e-17 2.8828859666413145e-14 -4.899048539807046e-14
2.868552348772296e-17 1.441231010943221e-14 -2.4496490797594186e-14
2.785099591865572e-17 1.4410252915299598e-14 -2.4497701977643575e-14
2.736658475330116e-17 1.4408332245644362e-14 -2.4498832215342018e-14
0.0 0.0 -0.0
-2.686231323370858e-17 -1.440489288319831e-14 2.450085521744142e-14
2.649067096891971e-17 1.4403355293488833e-14 -2.4501759558860158e-14
0.0 0.0 -0.0
-1.295885891693299e-17 -7.200369255270892e-15 1.2251649129496987e-14
-2.564353550365408e-17 -1.4399666823708786e-14 2.4503928352849534e-14
-1.392127726094705e-17 1.811627647541727e-15 -3.0560736162988683e-15
-0.0 0.0 -0.0
4.9949252058062404e-17 -3.599867396652551e-15 6.125810781674666e-15
1.2295267483933e-19 4.551410910260548e-16 -7.62697500561831e-16
-7.429735506186192e-17 -1.4587095225228797e-14 2.4392718170377286e-14
-8.707639489022088e-17 -1.4574372315937003e-14 2.440027983946533e-14
-7.670284527355855e-17 -1.455792374603999e-14 2.4410131909195573e-14
3.586456784859177e-17 7.270057213155493e-15 -1.2210379747853783e-14
7.325340119709138e-17 1.4527959530378977e-14 -2.442798789849872e-14
8.269979603959772e-17 1.4526192832882815e-14 -2.4429008360388986e-14
-8.676953108074544e-17 -1.4518533517924305e-14 2.443354707126455e-14
-1.7551570689188705e-16 -2.9022267810087885e-14 4.887587782517502e-14
1.7488746447187974e-16 2.90085916376569e-14 -4.888399833646689e-14
-1.638724509736071e-16 -2.899386910670932e-14 4.889277009771571e-14
7.481251522181676e-17 1.4488975860331607e-14 -2.4451125711357548e-14
7.078635465835031e-17 1.448385547847939e-14 -2.4454171151704013e-14
1.3075202443318336e-16 2.8956878020102717e-14 -4.891478699761722e-14
1.234614055023881e-16 2.894764987771646e-14 -4.8920267697793285e-14
-5.725845026117814e-17 -1.4469420283580076e-14 2.4462750562300045e-14
0.0 0.0 -0.0
5.333092194057777e-17 1.446477592468443e-14 -2.4465505925848965e-14
-4.9434807615456875e-17 -1.4461699108905923e-14 2.4467332957018048e-14
-4.7936373433109985e-17 -1.4459085261226915e-14 2.446888069485379e-14
0.0 0.0 -0.0
0.0 0.0 -0.0
0.0 0.0 -0.0
4.057050216282272e-17 1.444878246293953e-14 -2.4474979189354207e-14
-3.920535929008712e-17 -1.4445874253161736e-14 2.4476698040135187e-14
0.0 0.0 -0.0
0.0 0.0 -0.0
3.584598480393504e-17 1.4438763249910543e-14 -2.448089863188691e-14
-3.490920296679929e-17 -1.4436315308874607e-14 2.4482343609152643e-14
-3.441779281786032e-17 -1.4433889586870283e-14 2.44837744997762e-14
0.0 0.0 -0.0
3.26133978492044e-17 1.442885929527405e-14 -2.44867417748826e-14
0.0 0.0 -0.0
-3.1279282255968116e-17 -1.4423888564632413e-14 2.4489671848105357e-14
-9.244275189001226e-17 -4.326308774653607e-14 7.347406886439588e-14
3.022604449746875e-17 1.4418773728966202e-14 -2.4492684979099873e-14
-2.965518350748722e-17 -1.4416555843158194e-14 2.449399120473241e-14
5.880970129671826e-17 2.8828859666413145e-14 -4.899048539807046e-14
2.868552348772296e-17 1.441231010943221e-14 -2.4496490797594186e-14
2.785099591865572e-17 1.4410252915299598e-14 -2.4497701977643575e-14
2.736658475330116e-17 1.4408332245644362e-14 -2.4498832215342018e-14
0.0 0.0 -0.0
-2.686231323370858e-17 -1.440489288319831e-14 2.450085521744142e-14
2.649067096891971e-17 1.4403355293488833e-14 -2.4501759558860158e-14
0.0 0.0 -0.0
-1.295885891693299e-17 -7.200369255270892e-15 1.2251649129496987e-14
-2.564353550365408e-17 -1.4399666823708786e-14 2.4503928352849534e-14

SCALARS Gamma float
LOOKUP_TABLE default
-0.0
-0.0
-0.0
51.328799799775496
55.00190163660498
55.05284881141431
52.84127991826926
48.089369022312475
45.019589498860334
47.64558050780544
54.28113847823106
54.932678049605116
51.04100960398757
46.14308106780949
45.13980842108213
44.36101753002277
40.712553792513084
38.54144735286181
33.81507522591911
34.107442306256736
33.7665426997959
35.342984513320964
36.987792052324544
34.880327534734555
36.96948359449151
38.225720429618036
38.326424414507855
38.43655803792858
38.64396492541105
38.91783569143169
39.24707419408457
39.54218788210569
37.55722412192003
37.86661783851573
38.17871506734141
38.478482432437914
38.72533605317102
41.1078641412994
41.03531710658907
40.619817754938815
39.922901670281924
38.731372127490225
36.66637343766369
33.98610483569562
31.297012370693764
28.666473264678622
25.839748818762907
23.093557218847998
20.306099575401035
17.720458336245276
-0.0
-0.0
-0.0
51.328799799775496
55.00190163660498
55.05284881141431
52.84127991826926
48.089369022312475
45.019589498860334
47.64558050780544
54.28113847823106
54.932678049605116
51.04100960398757
46.14308106780949
45.13980842108213
44.36101753002277
40.712553792513084
38.54144735286181
33.81507522591911
34.107442306256736
33.7665426997959
35.342984513320964
36.987792052324544
34.880327534734555
36.96948359449151
38.225720429618036
38.326424414507855
38.43655803792858
38.64396492541105
38.91783569143169
39.24707419408457
39.54218788210569
37.55722412192003
37.86661783851573
38.17871506734141
38.478482432437914
38.72533605317102
41.1078641412994
41.03531710658907
40.619817754938815
39.922901670281924
38.731372127490225
36.66637343766369
33.98610483569562
31.297012370693764
28.666473264678622
25.839748818762907
23.093557218847998
20.306099575401035
17.720458336245276

VECTORS Ftot float
116.12978149091953 34.24961104956685 19.77402215910751
139.68571928120775 76.20472693174666 43.996819607566096
143.0415268614638 113.17824466178816 65.34349002189307
1277.7763523031454 -10.617076716690804 -6.129772100388377
1306.2493486323078 -192.57927958447922 -111.18569890844388
1400.3299745062138 -250.45113250232325 -144.59802876906372
1482.0457951451244 -244.61028253924266 -141.22581247058292
1470.3873724110986 -239.2782141409529 -138.14734134549283
1484.7743311622737 -256.24622109697805 -147.9438247291654
1678.399222912347 -328.8411253786327 -189.8565122579741
2039.9724323330447 -429.8190454707378 -248.1561416053598
2198.090185292358 -479.98928678878735 -277.12194393564437
2167.2967305979373 -482.59746109067993 -278.6277740709355
2078.585050738331 -444.90085652229806 -256.86362927584526
2151.2610004197536 -432.5077172902232 -249.7084470041023
2224.212075379044 -431.07765913078583 -248.88280254079433
2142.413328778556 -391.28363973933375 -225.90771473300217
2119.848076309791 -372.0141088010597 -214.78244585863166
1939.9081055679098 -321.1734752556372 -185.42959239541074
2033.2905121266017 -326.2311666103366 -188.3496518605245
2086.479310861529 -327.65239990073496 -189.17020128331725
2261.7249022063543 -333.27964517683944 -192.41909285827225
2442.8440184691503 -352.7455497363959 -203.6577380957518
2373.2263051005234 -335.60272811275377 -193.76032541667223
2586.6086437914673 -359.8460558913422 -207.75721723569262
2748.94309816384 -361.1267258080102 -208.496612356824
2826.429726604614 -360.4302515863636 -208.0945027774727
2902.21347371899 -362.08035607153505 -209.0471910461774
2983.509362661062 -363.7555265345781 -210.0143511639539
3068.1418952168674 -366.9409386993371 -211.8534497347574
3155.5591104740733 -371.2191436196415 -214.32347249714354
3238.753359806522 -375.0893580819866 -216.5579418588
3129.58331694044 -361.24110108903426 -208.56264695611188
3208.1061422839025 -362.2648948036843 -209.15373453285972
3284.558273563289 -367.56595285937505 -212.2143018283026
3358.1710261061203 -373.75995767052 -215.79041217337902
3425.9692286665722 -376.31030150043443 -217.2628538701062
3682.394609438096 -403.8976172065004 -233.19039801922273
3719.5311102474275 -404.5356512067535 -233.55876712102102
3722.5534248105355 -401.51170697852416 -231.81289210683832
3695.5456430967097 -399.37161945127656 -230.57731199689258
3619.6444576005088 -385.6254048680015 -222.64093130690028
3457.24204674943 -361.30704092090156 -208.6007173357908
3230.1466019032714 -334.93653067309566 -193.37569614555218
2996.155054131809 -308.6979696792886 -178.22685589262915
2761.792677375882 -286.08995523422317 -165.1741126669276
2504.065952719417 -257.8517851260032 -148.8707975535243
2249.575443384982 -230.1760587473293 -132.8922094787784
1986.8704667940428 -202.9344133043328 -117.16423814909595
1740.564906354327 -176.89733087147658 -102.13172159757384
116.12978149091953 34.24961104956685 19.77402215910751
139.68571928120775 76.20472693174666 43.996819607566096
143.0415268614638 113.17824466178816 65.34349002189307
1277.7763523031454 -10.617076716690804 -6.129772100388377
1306.2493486323078 -192.57927958447922 -111.18569890844388
1400.3299745062138 -250.45113250232325 -144.59802876906372
1482.0457951451244 -244.61028253924266 -141.22581247058292
1470.3873724110986 -239.2782141409529 -138.14734134549283
1484.7743311622737 -256.24622109697805 -147.9438247291654
1678.399222912347 -328.8411253786327 -189.8565122579741
2039.9724323330447 -429.8190454707378 -248.1561416053598
2198.090185292358 -479.98928678878735 -277.12194393564437
2167.2967305979373 -482.59746109067993 -278.6277740709355
2078.585050738331 -444.90085652229806 -256.86362927584526
2151.2610004197536 -432.5077172902232 -249.7084470041023
2224.212075379044 -431.07765913078583 -248.88280254079433
2142.413328778556 -391.28363973933375 -225.90771473300217
2119.848076309791 -372.0141088010597 -214.78244585863166
1939.9081055679098 -321.1734752556372 -185.42959239541074
2033.2905121266017 -326.2311666103366 -188.3496518605245
2086.479310861529 -327.65239990073496 -189.17020128331725
2261.7249022063543 -333.27964517683944 -192.41909285827225
2442.8440184691503 -352.7455497363959 -203.6577380957518
2373.2263051005234 -335.60272811275377 -193.76032541667223
2586.6086437914673 -359.8460558913422 -207.75721723569262
2748.94309816384 -361.1267258080102 -208.496612356824
2826.429726604614 -360.4302515863636 -208.0945027774727
2902.21347371899 -362.08035607153505 -209.0471910461774
2983.509362661062 -363.7555265345781 -210.0143511639539
3068.1418952168674 -366.9409386993371 -211.8534497347574
3155.5591104740733 -371.2191436196415 -214.32347249714354
3238.753359806522 -375.0893580819866 -216.5579418588
3129.58331694044 -361.24110108903426 -208.56264695611188
3208.1061422839025 -362.2648948036843 -209.15373453285972
3284.558273563289 -367.56595285937505 -212.2143018283026
3358.1710261061203 -373.75995767052 -215.79041217337902
3425.9692286665722 -376.31030150043443 -217.2628538701062
3682.394609438096 -403.8976172065004 -233.19039801922273
3719.5311102474275 -404.5356512067535 -233.55876712102102
3722.5534248105355 -401.51170697852416 -231.81289210683832
3695.5456430967097 -399.37161945127656 -230.57731199689258
3619.6444576005088 -385.6254048680015 -222.64093130690028
3457.24204674943 -361.30704092090156 -208.6007173357908
3230.1466019032714 -334.93653067309566 -193.37569614555218
2996.155054131809 -308.6979696792886 -178.22685589262915
2761.792677375882 -286.08995523422317 -165.1741126669276
2504.065952719417 -257.8517851260032 -148.8707975535243
2249.575443384982 -230.1760587473293 -132.8922094787784
1986.8704667940428 -202.9344133043328 -117.16423814909595
1740.564906354327 -176.89733087147658 -102.13172159757384

VECTORS D float
91.98778379968638 -26.76904510159305 -16.287608185144272
60.31376508658082 -32.57325532197152 -19.56958803462036
12.884522478626238 -10.103995782493005 -6.042729456316079
534.0745458709663 -546.5200718973738 -326.0507287802108
519.4110999983089 -653.0147376017559 -388.9274341502477
476.5627215998902 -707.8676115247309 -421.1111030128109
413.02417991201514 -705.2913893016872 -419.32989844149745
347.6690414177708 -668.9250418773846 -397.2566313253965
309.9829362961774 -661.5783544838403 -392.52828745295426
322.9437884881738 -755.2763564984467 -448.01583632513376
361.46440571341066 -916.6692438670907 -543.4057120819577
357.99287239635873 -976.2508587150132 -578.4076267747984
325.4688203096315 -947.7450247855168 -561.2435340300032
282.2506894103361 -872.4257936632422 -516.4106288939025
262.89818523299454 -858.2612653972469 -507.7745224608111
248.97852970999273 -854.6978403650827 -505.50458808940476
218.41823842804837 -785.3795979932272 -464.35002554188856
199.5250566853624 -748.9270513814157 -442.6599739229411
167.8089142088085 -655.5167221269098 -387.3374113377106
164.29011356136024 -666.0658154387057 -393.46555929718807
158.9924843560745 -666.5626341856112 -393.74619747029226
159.71447650738955 -691.36450947725 -408.3162669902359
163.5879392562713 -729.6297569500425 -430.8303752750217
151.08394262371172 -692.9615129262081 -409.0978927282003
157.28489653326042 -740.4943474590958 -437.07343343629356
157.03885341180012 -757.5963118162168 -447.0798741283115
154.00763169428376 -760.0896942512709 -448.46299531802396
151.7070964520198 -764.8368826353453 -451.1552040802222
149.8788326956563 -770.6568685938871 -454.50170908374145
148.6687328818501 -778.6055114500839 -459.0988380863708
147.94425794530872 -788.1831732087946 -464.6515309322259
147.2312428486762 -796.9806849777872 -469.73953644630575
138.95302290202838 -763.4033402452377 -449.85290430177537
138.14949188753346 -769.5259584020209 -453.36234897536883
138.1953089930486 -779.710291299827 -459.26171677053105
138.4633026455777 -790.5786470717175 -465.5609507412556
138.1143005931135 -797.3486229344039 -469.4447373359371
146.21124469316467 -852.3966440033282 -501.72523727504677
145.06118642859047 -853.70329111725 -502.3936726789096
142.7568185093535 -847.5063472716406 -498.6483828271718
140.15842887236883 -838.814566062219 -493.43917577854535
134.87813128859156 -813.2280159509876 -478.2981122713118
126.4006908922427 -767.324358944983 -451.2185553334275
116.58658957514282 -712.1652410356232 -418.7106854600232
106.92011210301591 -656.8192300567637 -386.108021712748
98.0543444661397 -605.4328004174639 -355.8471977446278
88.06125848360047 -546.211454591855 -320.99510343909833
78.40893154475303 -488.30058017288445 -286.9264387041939
68.83606542507789 -430.18615294788 -252.75022816426943
59.89841174987329 -375.448573477344 -220.56864852992683
91.98778379968638 -26.76904510159305 -16.287608185144272
60.31376508658082 -32.57325532197152 -19.56958803462036
12.884522478626238 -10.103995782493005 -6.042729456316079
534.0745458709663 -546.5200718973738 -326.0507287802108
519.4110999983089 -653.0147376017559 -388.9274341502477
476.5627215998902 -707.8676115247309 -421.1111030128109
413.02417991201514 -705.2913893016872 -419.32989844149745
347.6690414177708 -668.9250418773846 -397.2566313253965
309.9829362961774 -661.5783544838403 -392.52828745295426
322.9437884881738 -755.2763564984467 -448.01583632513376
361.46440571341066 -916.6692438670907 -543.4057120819577
357.99287239635873 -976.2508587150132 -578.4076267747984
325.4688203096315 -947.7450247855168 -561.2435340300032
282.2506894103361 -872.4257936632422 -516.4106288939025
262.89818523299454 -858.2612653972469 -507.7745224608111
248.97852970999273 -854.6978403650827 -505.50458808940476
218.41823842804837 -785.3795979932272 -464.35002554188856
199.5250566853624 -748.9270513814157 -442.6599739229411
167.8089142088085 -655.5167221269098 -387.3374113377106
164.29011356136024 -666.0658154387057 -393.46555929718807
158.9924843560745 -666.5626341856112 -393.74619747029226
159.71447650738955 -691.36450947725 -408.3162669902359
163.5879392562713 -729.6297569500425 -430.8303752750217
151.08394262371172 -692.9615129262081 -409.0978927282003
157.28489653326042 -740.4943474590958 -437.07343343629356
157.03885341180012 -757.5963118162168 -447.0798741283115
154.00763169428376 -760.0896942512709 -448.46299531802396
151.7070964520198 -764.8368826353453 -451.1552040802222
149.8788326956563 -770.6568685938871 -454.50170908374145
148.6687328818501 -778.6055114500839 -459.0988380863708
147.94425794530872 -788.1831732087946 -464.6515309322259
147.2312428486762 -796.9806849777872 -469.73953644630575
138.95302290202838 -763.4033402452377 -449.85290430177537
138.14949188753346 -769.5259584020209 -453.36234897536883
138.1953089930486 -779.710291299827 -459.26171677053105
138.4633026455777 -790.5786470717175 -465.5609507412556
138.1143005931135 -797.3486229344039 -469.4447373359371
146.21124469316467 -852.3966440033282 -501.72523727504677
145.06118642859047 -853.70329111725 -502.3936726789096
142.7568185093535 -847.5063472716406 -498.6483828271718
140.15842887236883 -838.814566062219 -493.43917577854535
134.87813128859156 -813.2280159509876 -478.2981122713118
126.4006908922427 -767.324358944983 -451.2185553334275
116.58658957514282 -712.1652410356232 -418.7106854600232
106.92011210301591 -656.8192300567637 -386.108021712748
98.0543444661397 -605.4328004174639 -355.8471977446278
88.06125848360047 -546.211454591855 -320.99510343909833
78.40893154475303 -488.30058017288445 -286.9264387041939
68.83606542507789 -430.18615294788 -252.75022816426943
59.89841174987329 -375.448573477344 -220.56864852992683

VECTORS L float
24.14199769123313 61.01865615115993 36.061630344251796
79.37195419462694 108.77798225371819 63.56640764218646
130.15700438283756 123.28224044428117 71.38621947820914
743.7018064321791 535.9029951806832 319.9209566798225
786.8382486339991 460.4354580172767 277.7417352418038
923.7672529063242 457.41647902240794 276.51307424374727
1069.0216152331093 460.6811067624449 278.1040859709147
1122.7183309933278 429.64682773643165 259.1092899799036
1174.7913948660962 405.33213338686227 244.5844627237888
1355.4554344241735 426.43523111981415 258.15932406715973
1678.508026619634 486.8501983963528 295.249570476598
1840.097312895999 496.261571926226 301.2856828391541
1841.8279102883062 465.1475636948374 282.615759959068
1796.3343613279949 427.5249371409441 259.5469996180575
1888.3628151867588 425.75354810702356 258.06607545670886
1975.2335456690514 423.62018123429675 256.6217855486104
1923.995090350508 394.09595825389334 238.44231080888628
1920.3230196244283 376.912942580356 227.87752806430933
1772.0991913591015 334.3432468712726 201.9078189422998
1869.0003985652418 339.83464882836927 205.1159074366636
1927.486826505455 338.9102342848763 204.57599618697503
2102.010425698965 358.08486430041046 215.89717413196357
2279.2560792128793 376.8842072136466 227.17263717926997
2222.1423624768117 357.35878481345446 215.33756731152818
2429.3237472582077 380.64829156775386 229.316216200601
2591.9042447520396 396.4695860082065 238.58326177148732
2672.4220949103305 399.6594426649073 240.36849254055122
2750.50637726697 402.7565265638103 242.10801303404466
2833.630529965406 406.9013420593091 244.48735791978748
2919.4731623350176 411.664572750747 247.24538835161354