# vtk DataFile Version 4.0
[MyVLM domain - lattices] 
ASCII
DATASET UNSTRUCTURED_GRID
POINTS 152 float
0.0 2.283619045874584 -0.4136027367066113
0.0 3.4487521526444915 -2.3232431187921057
0.0 4.647903213636899 -4.165812669412636
0.0 5.8329346185514055 -5.969103650833288
0.0 7.003415374064556 -7.733364897165375
0.0 8.127936103757115 -9.47673062033962
0.0 9.179682922252876 -11.214681824295994
0.0 10.151861599623203 -12.951141159512739
0.0 11.086392163488638 -14.661906086758693
0.0 12.000233690172367 -16.337185278753452
0.0 12.893227732725588 -17.977070214885572
0.0 13.765030959111002 -19.581759117999198
0.0 14.6152882396204 -21.151457022326962
0.0 15.441127785207046 -22.68782195604806
0.0 16.244453648273925 -24.189754613995074
0.0 17.029435948738605 -25.65484737631104
0.0 17.796694286991794 -27.08274251654359
0.0 18.54521534203515 -28.47402507584391
0.0 19.274268956292236 -29.82911661088529
0.0 19.983854911543965 -31.148017247656583
0.0 20.673972995399037 -32.430727108781966
0.0 21.344623001293986 -33.677246313520904
0.0 21.99580472849314 -34.887574977768196
0.0 22.627517982088637 -36.06171321405395
0.0 23.23976257300044 -37.19966113154357
0.0 23.8325383179763 -38.3014188360378
0.0 24.405845039591792 -39.36698642997268
0.0 24.959682566250304 -40.39636401241955
0.0 25.494050989435117 -41.38955153056053
0.0 26.008953682701023 -42.34654703667284
0.0 26.50439118823804 -43.26735021772292
0.0 26.98036282121508 -44.1519614690982
0.0 27.43686792371582 -45.00038117064683
0.0 27.8739058647387 -45.812609686677746
0.0 28.291476040196905 -46.58864736596062
0.0 28.689577872918395 -47.32849454172589
0.0 29.067850980882127 -48.032359280630416
0.0 29.425152370172697 -48.700901490518945
0.0 29.75973286323232 -49.33513105952532
0.0 30.070679921904297 -49.935574841799955
0.0 30.358515662116414 -50.5019313935714
0.0 30.622968572127746 -51.03435747221635
0.0 30.853748242484016 -51.53879424840333
0.0 31.05108527506683 -52.0151085840739
0.0 31.22274671419975 -52.45881617409703
0.0 31.374029287174675 -52.86685895154496
0.0 31.506283677309327 -53.23845709904058
0.0 31.618244223812063 -53.57434134618265
0.0 31.711042440276845 -53.87385841329312
0.0 31.786907750413224 -54.13572114199314
0.0 31.847770103104104 -54.35881527577564
-0.8152906147965383 -0.7013786316880779 -2.136991949377824
-0.840508508576773 0.3717236494306313 -4.099766353426781
-0.8937965186568912 1.3748511648804211 -6.055510150833847
-0.9506477078523391 2.350290136369111 -7.979809380113003
-1.020681877210228 3.298913250246582 -9.872160195565225
-1.048954977401727 4.247510629067198 -11.717095312722128
-0.9930987765444168 5.214947563983548 -13.50372285065842
-0.9074282632528687 6.218003645889869 -15.222355108054435
-0.838943182597301 7.221347516611707 -16.893390654063012
-0.780438039247949 8.208153255649089 -18.526543938414186
-0.7250391551380654 9.174963579007027 -20.12381102495312
-0.6716005320170477 10.122039985793677 -21.685040937099334
-0.6190912009117757 11.050012072888187 -23.209870176925165
-0.5668551203523576 11.961936596083719 -24.69653392565059
-0.5160737545272154 12.856009989639672 -26.146073472441444
-0.46824322159258064 13.727901298136524 -27.56098929557503
-0.4244759216876314 14.57699123648038 -28.94163893946702
-0.3845740908079094 15.404287289485733 -30.287440732488573
-0.34771109645469384 16.210440486646604 -31.598018802586036
-0.3130568676883623 16.9953432521537 -32.873435258681894
-0.28047282351476527 17.758959644532595 -34.11371085159606
-0.25028172479700606 18.501287354650067 -35.318846914507226
-0.22269967179244904 19.222309752042822 -36.48885304901787
-0.19756508903558764 19.921985178572413 -37.62375330646541
-0.17527331282135344 20.60030408072215 -38.72355320257529
-0.15618952887338375 21.257249545237457 -39.788262502219595
-0.13996799493970205 21.89277223757177 -40.817909688712064
-0.12575834684109707 22.506812388644672 -41.81252926974737
-0.11252036551224441 23.09931721490892 -42.77215171992072
-0.10008619772204906 23.670278198527313 -43.69678195700771
-0.0884564051429673 24.219691497523232 -44.58642219917457
-0.07764813403823374 24.747552630963433 -45.44107503348933
-0.06766754153321136 25.253856617410825 -46.26074333598602
-0.05846867713071129 25.738597339311564 -47.045430638636006
-0.05000632361003568 26.2017692166012 -47.795140163091
-0.0422455662862189 26.64336733157217 -48.50987474859079
-0.03513713503927796 27.063651870930794 -49.189484176270426
-0.028610254341892315 27.463462830890677 -49.833483474089896
-0.02259956362415257 27.845400701443367 -50.44037124845253
-0.017476911002663225 28.210811823755442 -51.0093701889234
-0.013355710955940858 28.5572612688396 -51.54188610240877
-0.010110762084772787 28.884816844537422 -52.03787984003304
-0.007505342360435571 29.206048057294183 -52.49009439386648
-0.005475063785670375 29.521065681892864 -52.8984658080583
-0.003985447751437076 29.820404161792176 -53.26845902422563
-0.0029419419370193198 30.09783950592464 -53.60366746528671
-0.00222865752783443 30.35237774050033 -53.904665002276765
-0.0017402354220029323 30.58657493346489 -54.16997588867926
-0.0014049497009942318 30.799572927365283 -54.40009558193075
-0.0011720086804816246 30.988904040451835 -54.59644879875367
-0.0010052173229800666 31.152432103421866 -54.760268857069946
-0.6209246712649916 0.5929257814683417 -2.6808900954890666
-0.6503643852126241 1.6670474761518186 -4.619360662623329
-0.6916665849409614 2.7070327169921127 -6.53010936413581
-0.7392485943984627 3.7229950190578798 -8.40729715937917
-0.7761138204794831 4.721327889470377 -10.247232755295881
-0.765770157729804 5.71187420064528 -12.044233366847157
-0.7126976399239822 6.70379976893704 -13.793007107493413
-0.6548892921938138 7.694538406327071 -15.495035566577972
-0.6072679581919687 8.671891021305424 -17.157361892867968
-0.5645539478947554 9.630351490858288 -18.783165047967618
-0.5237398826831674 10.568658673279838 -20.373173152380264
-0.4840093998483088 11.487059421847125 -21.927243685299956
-0.44472987047405005 12.386532753967895 -23.44481141076278
-0.40609832807983987 13.267427648831395 -24.925674845539906
-0.3691188660449235 14.12820293254264 -26.37072378679444
-0.33476967873007946 14.96760097994764 -27.780684324747597
-0.3033937546858278 15.78571815086566 -29.155500826031783
-0.27460694522347623 16.58295845334055 -30.49494003649413
-0.24778798655364606 17.35943438552964 -31.798937005293208
-0.22257363420117282 18.115092074625238 -33.06752283590905
-0.19903295561691423 18.84991712428013 -34.30070584007659
-0.17736802372104568 19.563902381233227 -35.49849014773305
-0.15759928531051376 20.257025937803434 -36.660888407284
-0.1398144006963529 20.929268541621596 -37.78791173408995
-0.12429856563552642 21.580620221106944 -38.87956588524575
-0.11105907142990716 22.21105608824947 -39.935865229850684
-0.09964737816779967 22.82053518556143 -40.956833414721316
-0.08935451713250306 23.40901529579327 -41.942494813998046
-0.07972746121286005 23.9764738640556 -42.89286244975233
-0.07070347607438114 24.522906744886335 -43.807938715367825
-0.062289202192950394 25.04831079936414 -44.6877254231016
-0.054493378339291916 25.55268231125671 -45.53222471852138
-0.047301081998971 26.03601695732771 -46.34143909764883
-0.040678125277780114 26.498310196584235 -47.11537118222742
-0.03459445871109547 26.939557944704426 -47.854023330341484
-0.029018512997061326 27.359810807663678 -48.5573663246175
-0.023905271017938854 27.7592934320649 -49.22527046527879
-0.01920368173726683 28.13893447880089 -49.85719958970894
-0.015028677985055923 28.499881295091633 -50.452491276681634
-0.01156223323447653 28.841676857725734 -51.01140938867098
-0.008799927390267616 29.163464821796904 -51.534448336639144
-0.006606039166953134 29.468663940013325 -52.019634302789775
-0.00486765230478973 29.760771841889 -52.464947929781445
-0.003547691826415294 30.037280190040214 -52.87183740687784
-0.0025977711331711486 30.293938375565613 -53.24275682427237
-0.001938974799320156 30.528870587969866 -53.5787891816595
-0.0014883348561890108 30.742673240377137 -53.87959013976141
-0.0011794444211239365 30.93596628082243 -54.14480177141321
-0.0009663593930534462 31.107922636767675 -54.374901587167436
-0.0008164597512981341 31.2573357856423 -54.57058617315494

CELLS 100 350
4 0 51 52 1
4 1 52 53 2
4 2 53 54 3
4 3 54 55 4
4 4 55 56 5
4 5 56 57 6
4 6 57 58 7
4 7 58 59 8
4 8 59 60 9
4 9 60 61 10
4 10 61 62 11
4 11 62 63 12
4 12 63 64 13
4 13 64 65 14
4 14 65 66 15
4 15 66 67 16
4 16 67 68 17
4 17 68 69 18
4 18 69 70 19
4 19 70 71 20
4 20 71 72 21
4 21 72 73 22
4 22 73 74 23
4 23 74 75 24
4 24 75 76 25
4 25 76 77 26
4 26 77 78 27
4 27 78 79 28
4 28 79 80 29
4 29 80 81 30
4 30 81 82 31
4 31 82 83 32
4 32 83 84 33
4 33 84 85 34
4 34 85 86 35
4 35 86 87 36
4 36 87 88 37
4 37 88 89 38
4 38 89 90 39
4 39 90 91 40
4 40 91 92 41
4 41 92 93 42
4 42 93 94 43
4 43 94 95 44
4 44 95 96 45
4 45 96 97 46
4 46 97 98 47
4 47 98 99 48
4 48 99 100 49
4 49 100 101 50
1 102
1 103
1 104
1 105
1 106
1 107
1 108
1 109
1 110
1 111
1 112
1 113
1 114
1 115
1 116
1 117
1 118
1 119
1 120
1 121
1 122
1 123
1 124
1 125
1 126
1 127
1 128
1 129
1 130
1 131
1 132
1 133
1 134
1 135
1 136
1 137
1 138
1 139
1 140
1 141
1 142
1 143
1 144
1 145
1 146
1 147
1 148
1 149
1 150
1 151

CELL_TYPES 100
9
9
9
9
9
9
9
9
9
9
9
9
9
9
9
9
9
9
9
9
9
9
9
9
9
9
9
9
9
9
9
9
9
9
9
9
9
9
9
9
9
9
9
9
9
9
9
9
9
9
1
1
1
1
1
1
1
1
1
1
1
1
1
1
1
1
1
1
1
1
1
1
1
1
1
1
1
1
1
1
1
1
1
1
1
1
1
1
1
1
1
1
1
1
1
1
1
1
1
1

CELL_DATA 100

VECTORS S float
7.308944198628099e-18 -6.273372820265062e-16 1.6618778940699418e-15
-0.0 0.0 -0.0
5.3926340711148524e-17 -2.4846091611621062e-15 6.656643839067221e-15
0.0 0.0 -0.0
0.0 0.0 -0.0
9.275978159229432e-17 1.0150925709536458e-14 -2.6547008679109338e-14
4.022691660835143e-17 5.060513664852409e-15 -1.3279230963410538e-14
3.994910716974662e-17 5.053658569252696e-15 -1.328184214899553e-14
-4.046819928018819e-17 -5.0484602713661595e-15 1.3283817333502579e-14
-4.4670089106454155e-17 -5.045438047281368e-15 1.3284952059784177e-14
9.358911963977672e-17 1.0084388078318709e-14 -2.657235264535048e-14
-9.700741562621706e-17 -1.0078401470650662e-14 2.6574611573906706e-14
0.0 0.0 -0.0
1.7935675742090334e-16 2.0128974286983398e-14 -5.3159820288379386e-14
0.0 0.0 -0.0
0.0 0.0 -0.0
0.0 0.0 -0.0
6.779060305688162e-17 1.0042045274246405e-14 -2.658846174735272e-14
0.0 0.0 -0.0
0.0 0.0 -0.0
0.0 0.0 -0.0
5.348609816204666e-17 1.0022762900946722e-14 -2.659576902469687e-14
2.6069691598209078e-17 5.009489189579547e-15 -1.3298598804657753e-14
0.0 0.0 -0.0
-2.407343256389913e-17 -5.005799975076111e-15 1.3299991684807611e-14
0.0 0.0 -0.0
-4.4951890888395535e-17 -1.0004756809920497e-14 2.660256355030791e-14
0.0 0.0 -0.0
-4.1321560130163795e-17 -9.99808109384557e-15 2.6605079099973973e-14
0.0 0.0 -0.0
0.0 0.0 -0.0
0.0 0.0 -0.0
7.479215506051391e-17 1.997489995040091e-14 -5.3218155228176405e-14
3.652721488962876e-17 9.984161103912864e-15 -2.661031303385967e-14
0.0 0.0 -0.0
0.0 0.0 -0.0
0.0 0.0 -0.0
3.386318055990783e-17 9.971517985329493e-15 -2.661505681563669e-14
0.0 0.0 -0.0
-6.469991994195511e-17 -1.993116161647525e-14 5.323456469553937e-14
-3.1681044050418196e-17 -9.96273068383934e-15 2.661835007244157e-14
0.0 0.0 -0.0
3.047506511377095e-17 9.957406777630274e-15 -2.6620343507955062e-14
1.496246288360573e-17 4.977481938153287e-15 -1.331062888884824e-14
0.0 0.0 -0.0
1.440934950012617e-17 4.975286899022573e-15 -1.3311450123094794e-14
-1.425178440456126e-17 -4.9743387886969356e-15 1.3311804619903547e-14
-1.407591810232558e-17 -4.973482566796342e-15 1.331212472758881e-14
2.8738320561132656e-17 9.945568516949455e-15 -2.6624770570465228e-14
-1.423643974190731e-17 -4.972132040157493e-15 1.3312629042965247e-14
7.308944198628099e-18 -6.273372820265062e-16 1.6618778940699418e-15
-0.0 0.0 -0.0
5.3926340711148524e-17 -2.4846091611621062e-15 6.656643839067221e-15
0.0 0.0 -0.0
0.0 0.0 -0.0
9.275978159229432e-17 1.0150925709536458e-14 -2.6547008679109338e-14
4.022691660835143e-17 5.060513664852409e-15 -1.3279230963410538e-14
3.994910716974662e-17 5.053658569252696e-15 -1.328184214899553e-14
-4.046819928018819e-17 -5.0484602713661595e-15 1.3283817333502579e-14
-4.4670089106454155e-17 -5.045438047281368e-15 1.3284952059784177e-14
9.358911963977672e-17 1.0084388078318709e-14 -2.657235264535048e-14
-9.700741562621706e-17 -1.0078401470650662e-14 2.6574611573906706e-14
0.0 0.0 -0.0
1.7935675742090334e-16 2.0128974286983398e-14 -5.3159820288379386e-14
0.0 0.0 -0.0
0.0 0.0 -0.0
0.0 0.0 -0.0
6.779060305688162e-17 1.0042045274246405e-14 -2.658846174735272e-14
0.0 0.0 -0.0
0.0 0.0 -0.0
0.0 0.0 -0.0
5.348609816204666e-17 1.0022762900946722e-14 -2.659576902469687e-14
2.6069691598209078e-17 5.009489189579547e-15 -1.3298598804657753e-14
0.0 0.0 -0.0
-2.407343256389913e-17 -5.005799975076111e-15 1.3299991684807611e-14
0.0 0.0 -0.0
-4.4951890888395535e-17 -1.0004756809920497e-14 2.660256355030791e-14
0.0 0.0 -0.0
-4.1321560130163795e-17 -9.99808109384557e-15 2.6605079099973973e-14
0.0 0.0 -0.0
0.0 0.0 -0.0
0.0 0.0 -0.0
7.479215506051391e-17 1.997489995040091e-14 -5.3218155228176405e-14
3.652721488962876e-17 9.984161103912864e-15 -2.661031303385967e-14
0.0 0.0 -0.0
0.0 0.0 -0.0
0.0 0.0 -0.0
3.386318055990783e-17 9.971517985329493e-15 -2.661505681563669e-14
0.0 0.0 -0.0
-6.469991994195511e-17 -1.993116161647525e-14 5.323456469553937e-14
-3.1681044050418196e-17 -9.96273068383934e-15 2.661835007244157e-14
0.0 0.0 -0.0
3.047506511377095e-17 9.957406777630274e-15 -2.6620343507955062e-14
1.496246288360573e-17 4.977481938153287e-15 -1.331062888884824e-14
0.0 0.0 -0.0
1.440934950012617e-17 4.975286899022573e-15 -1.3311450123094794e-14
-1.425178440456126e-17 -4.9743387886969356e-15 1.3311804619903547e-14
-1.407591810232558e-17 -4.973482566796342e-15 1.331212472758881e-14
2.8738320561132656e-17 9.945568516949455e-15 -2.6624770570465228e-14
-1.423643974190731e-17 -4.972132040157493e-15 1.3312629042965247e-14

SCALARS Gamma float
LOOKUP_TABLE default
-0.0
-0.0
-0.0
49.07407594841545
53.51289204823157
52.89134223593331
51.402065325221194
47.76798954607105
44.659342797196146
46.427781663323934
51.28490133512148
52.954257937107144
49.37352919365226
44.2876114743628
42.72111705667422
41.35008910516718
41.26597645088036
36.11590283134875
32.12346579574914
33.92657056199587
34.63115092673067
34.097125603856455
35.222754623562714
36.84899818529494
34.629334747843465
36.7864318891485
38.21924350916449
37.39728654960801
36.64709159886699
35.53728749889531
37.089058932822745
36.94758852015229
36.8483290943464
38.871424787332536
38.99856748958809
41.07171943862529
41.333272426980905
41.486849584703634
41.36495638094254
40.89297812163155
40.147672857663025
38.89763906308686
36.7613154997506
34.009184278182666
30.01914776824866
27.200127170942025
24.865645338528235
22.079603667585808
19.38667294427353
16.896210492427272
-0.0
-0.0
-0.0
49.07407594841545
53.51289204823157
52.89134223593331
51.402065325221194
47.76798954607105
44.659342797196146
46.427781663323934
51.28490133512148
52.954257937107144
49.37352919365226
44.2876114743628
42.72111705667422
41.35008910516718
41.26597645088036
36.11590283134875
32.12346579574914
33.92657056199587
34.63115092673067
34.097125603856455
35.222754623562714
36.84899818529494
34.629334747843465
36.7864318891485
38.21924350916449
37.39728654960801
36.64709159886699
35.53728749889531
37.089058932822745
36.94758852015229
36.8483290943464
38.871424787332536
38.99856748958809
41.07171943862529
41.333272426980905
41.486849584703634
41.36495638094254
40.89297812163155
40.147672857663025
38.89763906308686
36.7613154997506
34.009184278182666
30.01914776824866
27.200127170942025
24.865645338528235
22.079603667585808
19.38667294427353
16.896210492427272

VECTORS Ftot float
112.30903186171628 36.542460898910676 13.30036805404009
135.53347661296743 81.55858698304206 29.684898010638335
139.26931739695834 121.54738727229274 44.23963101994132
1199.8610384481553 -16.635672578958488 -6.054889645739373
1258.5759112458684 -202.1572237473488 -73.57921208592781
1338.9935992863025 -254.2029236828597 -92.52229768400422
1434.6302208817008 -253.93162178985332 -92.42355187044983
1450.0992044760017 -263.9628121824848 -96.07460658762479
1465.797778146134 -277.77692340089163 -101.1025318839677
1629.851800905758 -346.51040684562383 -126.1194739552791
1923.1149797378694 -435.9593979210697 -158.67624419188462
2112.5992642850715 -504.7307866169891 -183.70698264635055
2094.518035681698 -498.2649311736785 -181.35360372591737
1992.8137800967597 -458.01235550540866 -166.70286433011916
2033.6898992378574 -438.18244478824965 -159.4853670809169
2073.5039459791346 -420.5353056251188 -153.06233370558382
2168.4849314799203 -427.8858584137657 -155.73771612605373
1985.8056854249612 -369.1866268291027 -134.37294305493785
1840.8333641538932 -329.34443576268757 -119.8715714388159
2021.2513616767255 -346.78052033833234 -126.21778722649866
2139.8567463701825 -352.3491546989178 -128.24460437926376
2181.445466722523 -340.4693276656849 -123.92070095093601
2325.169711200824 -358.26373826813096 -130.39733674653735
2506.017336600537 -378.1398851439068 -137.63166258122294
2422.956881470133 -353.5108058584095 -128.6674108239196
2641.843148912112 -383.33643112558696 -139.52305063955015
2815.5226165355557 -392.79009433348676 -142.96390265200324
2821.4905211439045 -380.9252048142009 -138.64543603412616
2827.5019654446887 -371.3534579555203 -135.16160508763537
2800.2009856762384 -359.0820522753988 -130.69517868746593
2980.3268536219903 -377.7062282055322 -137.47382436377157
3023.8818625209237 -381.60291200916475 -138.89210128064101
3069.647704598637 -379.43290994053126 -138.10228511936234
3291.6398932506177 -402.39205326967937 -146.45872989542372
3354.0137640608573 -403.24164848503875 -146.76795726498952
3582.140922678245 -436.3100031128033 -158.80385404565487
3654.261871755241 -439.867095379963 -160.09852975143946
3714.7241429993196 -442.26201936829074 -160.9702107965209
3746.230398297508 -452.8450092528536 -164.82210410404204
3746.4025298810907 -436.455491170779 -158.85680736819918
3715.9442519011786 -428.9588296518771 -156.12824571895007
3634.47598269417 -415.8575369635798 -151.35976515000038
3464.876289053348 -393.42267471651616 -143.19414308220664
3231.148572919222 -364.0254751222039 -132.49443745909448
2873.0661087948906 -319.7569366437267 -116.3820071384607
2620.3650606605593 -289.74158809849183 -105.45731369686983
2409.412963132362 -265.69891348476386 -96.70649578532516
2150.537577184394 -236.00119899275646 -85.89741168449841
1895.8179198098499 -213.70382807596002 -77.78183236839159
1658.6228795013458 -186.32239496407738 -67.81580574411528
112.30903186171628 36.542460898910676 13.30036805404009
135.53347661296743 81.55858698304206 29.684898010638335
139.26931739695834 121.54738727229274 44.23963101994132
1199.8610384481553 -16.635672578958488 -6.054889645739373
1258.5759112458684 -202.1572237473488 -73.57921208592781
1338.9935992863025 -254.2029236828597 -92.52229768400422
1434.6302208817008 -253.93162178985332 -92.42355187044983
1450.0992044760017 -263.9628121824848 -96.07460658762479
1465.797778146134 -277.77692340089163 -101.1025318839677
1629.851800905758 -346.51040684562383 -126.1194739552791
1923.1149797378694 -435.9593979210697 -158.67624419188462
2112.5992642850715 -504.7307866169891 -183.70698264635055
2094.518035681698 -498.2649311736785 -181.35360372591737
1992.8137800967597 -458.01235550540866 -166.70286433011916
2033.6898992378574 -438.18244478824965 -159.4853670809169
2073.5039459791346 -420.5353056251188 -153.06233370558382
2168.4849314799203 -427.8858584137657 -155.73771612605373
1985.8056854249612 -369.1866268291027 -134.37294305493785
1840.8333641538932 -329.34443576268757 -119.8715714388159
2021.2513616767255 -346.78052033833234 -126.21778722649866
2139.8567463701825 -352.3491546989178 -128.24460437926376
2181.445466722523 -340.4693276656849 -123.92070095093601
2325.169711200824 -358.26373826813096 -130.39733674653735
2506.017336600537 -378.1398851439068 -137.63166258122294
2422.956881470133 -353.5108058584095 -128.6674108239196
2641.843148912112 -383.33643112558696 -139.52305063955015
2815.5226165355557 -392.79009433348676 -142.96390265200324
2821.4905211439045 -380.9252048142009 -138.64543603412616
2827.5019654446887 -371.3534579555203 -135.16160508763537
2800.2009856762384 -359.0820522753988 -130.69517868746593
2980.3268536219903 -377.7062282055322 -137.47382436377157
3023.8818625209237 -381.60291200916475 -138.89210128064101
3069.647704598637 -379.43290994053126 -138.10228511936234
3291.6398932506177 -402.39205326967937 -146.45872989542372
3354.0137640608573 -403.24164848503875 -146.76795726498952
3582.140922678245 -436.3100031128033 -158.80385404565487
3654.261871755241 -439.867095379963 -160.09852975143946
3714.7241429993196 -442.26201936829074 -160.9702107965209
3746.230398297508 -452.8450092528536 -164.82210410404204
3746.4025298810907 -436.455491170779 -158.85680736819918
3715.9442519011786 -428.9588296518771 -156.12824571895007
3634.47598269417 -415.8575369635798 -151.35976515000038
3464.876289053348 -393.42267471651616 -143.19414308220664
3231.148572919222 -364.0254751222039 -132.49443745909448
2873.0661087948906 -319.7569366437267 -116.3820071384607
2620.3650606605593 -289.74158809849183 -105.45731369686983
2409.412963132362 -265.69891348476386 -96.70649578532516
2150.537577184394 -236.00119899275646 -85.89741168449841
1895.8179198098499 -213.70382807596002 -77.78183236839159
1658.6228795013458 -186.32239496407738 -67.81580574411528

VECTORS D float
88.25659750890054 -28.467998802582265 -11.134451938934307
56.695365040286035 -33.8892832767133 -13.043178623432123
10.27244306952902 -8.911948713164634 -3.4096258159756703
495.25229028316204 -560.258226304659 -213.73874963314788
491.8659761824735 -683.1463573154006 -260.1414165712178
444.57227868542674 -729.2288522890735 -277.2858353399627
390.9093965543356 -736.7203761393268 -279.56878385208665
339.3726877700968 -720.2465224595472 -273.02857040822323
301.411230929555 -709.1997052894062 -268.61021024886253
308.01737863391077 -793.601150906863 -300.36286615449643
333.6135291852558 -931.7753340286209 -352.44005672534865
339.41215275663984 -1019.1004773065529 -385.2541071008033
306.97681172922086 -983.9808893153095 -371.7831299894093
264.78841213469514 -900.5899584898199 -340.1151551768181
243.06340957453898 -872.7205347960835 -329.4712584560703
224.57486043154375 -847.5227324548254 -319.83850361836153
217.20129147876858 -858.2916886535512 -323.7776599852908
182.09586462424474 -750.6669608485851 -283.0508695748343
156.681456223593 -671.850582336942 -253.20947201987173
160.00582318420638 -711.7441599602878 -268.1262535824419
158.138156143771 -727.9335457787699 -274.11400667916456
150.2703880753007 -713.6720318639731 -268.64905395468213
152.48556785075812 -745.8886597376321 -280.6721204756773
156.31585320324504 -785.9964574299871 -295.65804480035376
143.2781593078854 -739.22351640413 -277.9667800174995
150.4123903424445 -794.8986579540526 -298.79965405288874
152.29187107724485 -823.0681643939287 -309.28414096700226
145.754075847867 -804.3607278550926 -302.1536148434519
140.1268304501161 -788.5004412777931 -296.09763855901497
133.61975540273167 -765.6294386204122 -287.41422799927244
137.9468258913982 -803.8585177461179 -301.6659101504306
136.46924751944618 -807.8107177109653 -303.04944825893165
134.04638216750786 -806.0284693520093 -302.34630166514626
140.1500033982183 -854.2431467773495 -320.31873879881636
139.08055829881815 -858.4794225964305 -321.7942280335539
146.85055219726542 -917.1127483102783 -343.65299482546897
146.6020120451484 -925.5585280595387 -346.6989044565921
146.0669989214877 -931.5117034921495 -348.8115571597917
146.31376636567026 -941.8226370005061 -352.55683440136687
141.99708524122238 -921.9436428304718 -345.0055551600651
138.59482478541705 -907.040919426869 -339.32281851210354
133.53799873586175 -880.3678974858293 -329.24582518039773
125.59378608361085 -833.568464935466 -311.6546111089535
115.63922937686671 -772.212008271714 -288.6370815385669
101.4039813432757 -680.9224701312731 -254.45113800753757
91.52269321034949 -617.6511193414487 -230.75417864679204
83.49174134646141 -565.9741109291056 -211.40312282588712
73.91848433193647 -503.0565631888865 -187.86652227030976
65.64100121448824 -448.2560263546215 -167.37325864711357
57.087671498091666 -390.9853138886338 -145.96800338609833
88.25659750890054 -28.467998802582265 -11.134451938934307
56.695365040286035 -33.8892832767133 -13.043178623432123
10.27244306952902 -8.911948713164634 -3.4096258159756703
495.25229028316204 -560.258226304659 -213.73874963314788
491.8659761824735 -683.1463573154006 -260.1414165712178
444.57227868542674 -729.2288522890735 -277.2858353399627
390.9093965543356 -736.7203761393268 -279.56878385208665
339.3726877700968 -720.2465224595472 -273.02857040822323
301.411230929555 -709.1997052894062 -268.61021024886253
308.01737863391077 -793.601150906863 -300.36286615449643
333.6135291852558 -931.7753340286209 -352.44005672534865
339.41215275663984 -1019.1004773065529 -385.2541071008033
306.97681172922086 -983.9808893153095 -371.7831299894093
264.78841213469514 -900.5899584898199 -340.1151551768181
243.06340957453898 -872.7205347960835 -329.4712584560703
224.57486043154375 -847.5227324548254 -319.83850361836153
217.20129147876858 -858.2916886535512 -323.7776599852908
182.09586462424474 -750.6669608485851 -283.0508695748343
156.681456223593 -671.850582336942 -253.20947201987173
160.00582318420638 -711.7441599602878 -268.1262535824419
158.138156143771 -727.9335457787699 -274.11400667916456
150.2703880753007 -713.6720318639731 -268.64905395468213
152.48556785075812 -745.8886597376321 -280.6721204756773
156.31585320324504 -785.9964574299871 -295.65804480035376
143.2781593078854 -739.22351640413 -277.9667800174995
150.4123903424445 -794.8986579540526 -298.79965405288874
152.29187107724485 -823.0681643939287 -309.28414096700226
145.754075847867 -804.3607278550926 -302.1536148434519
140.1268304501161 -788.5004412777931 -296.09763855901497
133.61975540273167 -765.6294386204122 -287.41422799927244
137.9468258913982 -803.8585177461179 -301.6659101504306
136.46924751944618 -807.8107177109653 -303.04944825893165
134.04638216750786 -806.0284693520093 -302.34630166514626
140.1500033982183 -854.2431467773495 -320.31873879881636
139.08055829881815 -858.4794225964305 -321.7942280335539
146.85055219726542 -917.1127483102783 -343.65299482546897
146.6020120451484 -925.5585280595387 -346.6989044565921
146.0669989214877 -931.5117034921495 -348.8115571597917
146.31376636567026 -941.8226370005061 -352.55683440136687
141.99708524122238 -921.9436428304718 -345.0055551600651
138.59482478541705 -907.040919426869 -339.32281851210354
133.53799873586175 -880.3678974858293 -329.24582518039773
125.59378608361085 -833.568464935466 -311.6546111089535
115.63922937686671 -772.212008271714 -288.6370815385669
101.4039813432757 -680.9224701312731 -254.45113800753757
91.52269321034949 -617.6511193414487 -230.75417864679204
83.49174134646141 -565.9741109291056 -211.40312282588712
73.91848433193647 -503.0565631888865 -187.86652227030976
65.64100121448824 -448.2560263546215 -167.37325864711357
57.087671498091666 -390.9853138886338 -145.96800338609833

VECTORS L float
24.052434352815705 65.01045970149296 24.434819992974404
78.83811157268141 115.44787025975536 42.72807663407046
128.99687432742934 130.45933598545741 47.64925683591699
704.6087481649932 543.6225537257005 207.68385998740848
766.7099350633948 480.98913356805156 186.56220448528993
894.4213206008758 475.02592860621405 184.76353765595854
1043.7208243273653 482.78875434947355 187.14523198163687
1110.726516705905 456.28371027706254 176.9539638205985
1164.3865472165792 431.42278188851463 167.5076783648948
1321.8344222718474 447.0907440612394 174.24339219921742
1589.501450552614 495.8159361075512 193.76381253346406
1773.1871115284318 514.3696906895639 201.54712445445278
1787.5412239524774 485.71595814163055 190.42952626349182
1728.0253679620644 442.5776029844111 173.412290846699
1790.6264896633186 434.53809000783406 169.9858913751535
1848.9290855475913 426.98742682970664 166.77616991277773
1951.283640001152 430.4058302397858 168.03994385923713
1803.7098208007162 381.4803340194825 148.67792651989643
1684.1519079303005 342.50614657425433 133.33790058105578
1861.2455384925188 364.96363962195545 141.9084663559432
1981.7185902264114 375.5843910798524 145.86940229990088
2031.1750786472228 373.2027041982885 144.72835300374618
2172.684143350067 387.6249214695015 150.27478372913998
2349.701483397292 407.8565722860804 158.02638221913088
2279.678722162247 385.7127105457204 149.29936919357996
2491.430758569668 411.56222682846567 159.27660341333862
2663.230745458311 430.27807006044196 166.32023831499902
2675.736445296038 423.4355230408917 163.50817880932578
2687.3751349945724 417.14698332227266 160.9360334713796
2666.5812302735067 406.5473863450135 156.71904931180657
2842.380027730592 426.15228954058546 164.19208578665894
2887.4126150014777 426.2078057018006 164.15734697829063
2935.601322431129 426.59555941147806 164.24401654578386
3151.4898898523998 451.85109350767044 173.86000890339264
3214.93320576204 455.2377741113918 175.02627076856436
3435.29037048098 480.80274519747485 184.8491407798141
3507.659859710093 485.6914326795759 186.60037470515263
3568.657144077833 489.249684123859 187.8413463632709
3599.9166319318383 488.97762774765295 187.73473029732494
3604.4054446398686 485.4881516596931 186.14874779186601
3577.349427115763 478.08208977499197 183.1945727931535
3500.937983958309 464.51036052224936 177.8860600303973
3339.2825029697374 440.14579021894997 168.46046802674692
3115.5093435423546 408.18653314951 156.14264407947235
2771.662127451615 361.16553348754644 138.0691308690769
2528.8423674502105 327.90953124295703 125.29686494992221
2325.9212217859013 300.27519744434187 114.69662704056198
2076.6190928524584 267.05536419613 101.96911058581138
1830.176918595362 234.5521982786616 89.59142627872198
1601.5352080032544 204.66291892455638 78.15219764198304
24.052434352815705 65.01045970149296 24.434819992974404