# vtk DataFile Version 4.0
[MyVLM domain - lattices] 
ASCII
DATASET UNSTRUCTURED_GRID
POINTS 62 float
0.0 -2.004456898217242 1.16970008500571
0.0 -3.211356511596995 6.634048995703258
0.0 -4.436366979618798 11.826286469452738
0.0 -5.289256430373978 16.81522091400402
0.0 -6.0049558872585616 21.559427651326935
0.0 -6.6692273436595855 26.043784528068
0.0 -7.2766077006011285 30.26925483597496
0.0 -7.852748258304462 34.23131555872855
0.0 -8.39128655313703 37.93108857033095
0.0 -8.891657167242746 41.36867356920558
0.0 -9.353860882981763 44.544070417401244
0.0 -9.777897112656595 47.45727921854484
0.0 -10.163746118846982 50.10830345287611
0.0 -10.511407911867535 52.4971431185763
0.0 -10.820285846356192 54.62390342032066
0.0 -11.085904170485962 56.489373553915236
0.0 -11.27822859462979 58.09884937496771
0.0 -11.398066135069628 59.452188584733676
0.0 -11.419273423465178 60.554000964418144
0.0 -11.384201475272695 61.396818887335776
0.0 -11.335319800904927 61.97315383294332
-0.8152938918039478 1.3899608720503545 1.76822752170016
-0.9232602711185554 0.6421790674117045 7.313531289402514
-1.045017403566863 0.007523097583975512 12.609864189366217
-0.8624275731409438 -0.8603698098966294 17.596153119692914
-0.7172432011617597 -1.7910758504076005 22.302448395292544
-0.5835709082011334 -2.681575090889063 26.74691520991434
-0.458823694439046 -3.5421574404510228 30.927739174953174
-0.35706975050238215 -4.3462016522566564 34.849614334486475
-0.27205245991127286 -5.098848902018423 38.51163416052357
-0.20240159072431146 -5.799921653611354 41.91382995747335
-0.1506132401889805 -6.449009585280516 45.05627407613198
-0.11426271706148827 -7.045449550568203 47.9390834471121
-0.08424963388989035 -7.588565211809917 50.56237732699204
-0.059335794404298196 -8.078213648784528 52.92618091646289
-0.038970351202568594 -8.515049180715799 55.03037884139148
-0.02333805368457717 -8.903554080124803 56.87418075619746
-0.011931771028020786 -9.273037539560493 58.45241865945169
-0.005641151376299379 -9.622814962235928 59.76521326403861
-0.0026418300562744777 -9.97971256110217 60.8078343848247
-0.0014569859069231085 -10.301209217029427 61.587779642362456
-0.001005086180947595 -10.544592385338797 62.1125804106935
-0.6519578110959388 0.11007580107149241 4.381128189252124
-0.7381041280070318 -0.7123271245285945 9.778815237682775
-0.7152918662654275 -1.5355204433663419 14.907444913829266
-0.5923765403635137 -2.4060686623181544 19.758806638785916
-0.4878052910110849 -3.261517006851017 24.34391287437695
-0.39089797599006726 -4.077129079785121 28.667125314830685
-0.30596004185303555 -4.849304154628579 32.72907886537781
-0.23592082890512064 -5.572398309283341 36.530768701761204
-0.17792026898834412 -6.247406923408638 40.07201931169091
-0.1323805615924845 -6.8740389708625145 43.35288201092784
-0.0993284839689258 -7.451891925398065 46.373427775709786
-0.07444213160676699 -7.98046093982974 49.133745624216665
-0.05384453561032071 -8.45943632656223 51.63389016272714
-0.036864804602575046 -8.88893528084059 53.87384072655751
-0.023365651832679663 -9.270249974920494 55.85336947087534
-0.013226184267224234 -9.611738453021454 57.571002646978805
-0.006589845901620062 -9.920481529386086 59.02549171627154
-0.0031061180372151964 -10.203115266068638 60.215666561967716
-0.0015370559861990949 -10.455780029141584 61.14220774166442
-0.0009232770329515139 -10.657115760410287 61.80888160993087

CELLS 40 140
4 0 21 22 1
4 1 22 23 2
4 2 23 24 3
4 3 24 25 4
4 4 25 26 5
4 5 26 27 6
4 6 27 28 7
4 7 28 29 8
4 8 29 30 9
4 9 30 31 10
4 10 31 32 11
4 11 32 33 12
4 12 33 34 13
4 13 34 35 14
4 14 35 36 15
4 15 36 37 16
4 16 37 38 17
4 17 38 39 18
4 18 39 40 19
4 19 40 41 20
1 42
1 43
1 44
1 45
1 46
1 47
1 48
1 49
1 50
1 51
1 52
1 53
1 54
1 55
1 56
1 57
1 58
1 59
1 60
1 61

CELL_TYPES 40
9
9
9
9
9
9
9
9
9
9
9
9
9
9
9
9
9
9
9
9
1
1
1
1
1
1
1
1
1
1
1
1
1
1
1
1
1
1
1
1

CELL_DATA 40

VECTORS S float
-3.098877639928e-20 -5.801187357035e-20 -2.7755497690964878e-17
2.4189420381452996e-19 -9.0030043912152e-19 -2.2204264798147834e-16
4.3933595051509995e-20 -1.0362095723268e-19 1.1102224541331686e-16
0.0 -0.0 0.0
-1.83474906843865e-18 6.1997516543644596e-18 -8.881548862649421e-16
0.0 -0.0 0.0
0.0 -0.0 0.0
0.0 -0.0 0.0
0.0 -0.0 0.0
3.97292381270754e-18 -2.437933448844844e-17 1.7761850930604968e-15
3.9658035562878e-18 -2.5913147906552618e-17 1.7761633939623269e-15
0.0 -0.0 0.0
0.0 -0.0 0.0
7.8363199073118e-18 -5.728039463045957e-17 3.552243239421743e-15
-7.722228978902809e-18 5.715283156375913e-17 -3.552245543956672e-15
0.0 -0.0 0.0
0.0 -0.0 0.0
0.0 -0.0 0.0
-1.5846615501395298e-18 1.2962332517419959e-17 -8.880824128449405e-16
0.0 -0.0 0.0
-3.098877639928e-20 -5.801187357035e-20 -2.7755497690964878e-17
2.4189420381452996e-19 -9.0030043912152e-19 -2.2204264798147834e-16
4.3933595051509995e-20 -1.0362095723268e-19 1.1102224541331686e-16
0.0 -0.0 0.0
-1.83474906843865e-18 6.1997516543644596e-18 -8.881548862649421e-16
0.0 -0.0 0.0
0.0 -0.0 0.0
0.0 -0.0 0.0
0.0 -0.0 0.0
3.97292381270754e-18 -2.437933448844844e-17 1.7761850930604968e-15
3.9658035562878e-18 -2.5913147906552618e-17 1.7761633939623269e-15
0.0 -0.0 0.0
0.0 -0.0 0.0
7.8363199073118e-18 -5.728039463045957e-17 3.552243239421743e-15
-7.722228978902809e-18 5.715283156375913e-17 -3.552245543956672e-15
0.0 -0.0 0.0
0.0 -0.0 0.0
0.0 -0.0 0.0
-1.5846615501395298e-18 1.2962332517419959e-17 -8.880824128449405e-16
0.0 -0.0 0.0

SCALARS Gamma float
LOOKUP_TABLE default
0.0
68.06205345594705
86.06074450747506
96.67695331231975
95.1788181311671
98.63918180955696
99.72334612699187
102.86674438774583
106.48269221170933
98.02565230066958
96.39023313467061
94.91479607023652
94.08810367813398
88.83567675463271
81.24174375256132
71.146693331862
57.18438058937344
40.32489559585576
23.264552099154347
9.482493363676928
0.0
68.06205345594705
86.06074450747506
96.67695331231975
95.1788181311671
98.63918180955696
99.72334612699187
102.86674438774583
106.48269221170933
98.02565230066958
96.39023313467061
94.91479607023652
94.08810367813398
88.83567675463271
81.24174375256132
71.146693331862
57.18438058937344
40.32489559585576
23.264552099154347
9.482493363676928

VECTORS Ftot float
162.03302843581628 -86.55478574404457 -1.2011889503066915e-13
1501.2466627885199 403.35742430455906 5.59770874520524e-13
2191.315014264263 929.0818096858372 1.2893600210920277e-12
3118.414576065189 1142.116988087692 1.5850057212381107e-12
3739.4926204817266 1106.6621671907526 1.5358022731209317e-12
4528.665920776539 1142.7126945327623 1.5858324300021537e-12
5206.010644513288 1132.5258882834275 1.5716953964453953e-12
5978.232875665097 1160.4333473413853 1.6104247759515558e-12
6775.412290514289 1196.7214964735788 1.6607846993110466e-12
6738.772045766618 1098.1689406543237 1.5240155535533056e-12
7079.9165097157465 1083.525559060086 1.503693779297937e-12
7379.640437068892 1072.6329066274677 1.4885771873855222e-12
7682.608234615082 1074.1456746694644 1.4906765747744496e-12
7563.046083046672 1034.672490698669 1.4358965276498973e-12
7166.040439514429 968.2425810220483 1.3437065085914552e-12
6466.448898443719 858.7720976526559 1.1917856946495248e-12
5326.151034751295 709.1802609401034 9.841853178817219e-13
3833.3365106940355 491.4901678842174 6.820796259524257e-13
2247.307060074394 274.7361313769299 3.8127297343888597e-13
928.6678647035553 94.43865183863107 1.3105995710725858e-13
162.03302843581628 -86.55478574404457 -1.2011889503066915e-13
1501.2466627885199 403.35742430455906 5.59770874520524e-13
2191.315014264263 929.0818096858372 1.2893600210920277e-12
3118.414576065189 1142.116988087692 1.5850057212381107e-12
3739.4926204817266 1106.6621671907526 1.5358022731209317e-12
4528.665920776539 1142.7126945327623 1.5858324300021537e-12
5206.010644513288 1132.5258882834275 1.5716953964453953e-12
5978.232875665097 1160.4333473413853 1.6104247759515558e-12
6775.412290514289 1196.7214964735788 1.6607846993110466e-12
6738.772045766618 1098.1689406543237 1.5240155535533056e-12
7079.9165097157465 1083.525559060086 1.503693779297937e-12
7379.640437068892 1072.6329066274677 1.4885771873855222e-12
7682.608234615082 1074.1456746694644 1.4906765747744496e-12
7563.046083046672 1034.672490698669 1.4358965276498973e-12
7166.040439514429 968.2425810220483 1.3437065085914552e-12
6466.448898443719 858.7720976526559 1.1917856946495248e-12
5326.151034751295 709.1802609401034 9.841853178817219e-13
3833.3365106940355 491.4901678842174 6.820796259524257e-13
2247.307060074394 274.7361313769299 3.8127297343888597e-13
928.6678647035553 94.43865183863107 1.3105995710725858e-13

VECTORS D float
90.08979580167723 48.12415745489623 -0.2011689769744489
780.488689413666 978.3433991744374 -3.1165512934891058
824.6915383900841 1623.350490488286 1.1887839879940787
767.3564822326149 2030.5577101953456 8.337270576401274
630.9305955159742 2059.083836226047 13.070027849041614
564.6894307669712 2172.776909630717 17.773174039350064
498.354598230428 2199.1251910898104 22.285465038783286
460.7868954884319 2276.7889804374217 25.7021506578155
435.2233449081891 2363.744509147382 29.223312616370634
371.0434026352825 2181.0618795356813 29.106600507634038
343.41325060845566 2156.0643568372984 30.68890242278461
324.0221000085687 2140.298843646194 32.43609149760684
314.10027510328183 2150.0742642918026 33.52620498377606
297.03169124719614 2074.5124465917297 32.79653120553659
276.5461826539618 1946.5484551338313 30.717246792496777
247.26988046533822 1741.4285892797486 27.062951340801614
204.59352704500176 1437.6858392866532 21.80276668845018
145.1033717862652 1017.3284114917112 14.995976745615343
83.36250093499835 583.6770955452614 8.370524106530581
31.798864446167723 222.54572852017745 3.1197846832186893
90.08979580167723 48.12415745489623 -0.2011689769744489
780.488689413666 978.3433991744374 -3.1165512934891058
824.6915383900841 1623.350490488286 1.1887839879940787
767.3564822326149 2030.5577101953456 8.337270576401274
630.9305955159742 2059.083836226047 13.070027849041614
564.6894307669712 2172.776909630717 17.773174039350064
498.354598230428 2199.1251910898104 22.285465038783286
460.7868954884319 2276.7889804374217 25.7021506578155
435.2233449081891 2363.744509147382 29.223312616370634
371.0434026352825 2181.0618795356813 29.106600507634038
343.41325060845566 2156.0643568372984 30.68890242278461
324.0221000085687 2140.298843646194 32.43609149760684
314.10027510328183 2150.0742642918026 33.52620498377606
297.03169124719614 2074.5124465917297 32.79653120553659
276.5461826539618 1946.5484551338313 30.717246792496777
247.26988046533822 1741.4285892797486 27.062951340801614
204.59352704500176 1437.6858392866532 21.80276668845018
145.1033717862652 1017.3284114917112 14.995976745615343
83.36250093499835 583.6770955452614 8.370524106530581
31.798864446167723 222.54572852017745 3.1197846832186893

VECTORS L float
71.94323263413906 -134.6789431989408 0.20116897697432878
720.757973374854 -574.9859748698785 3.1165512934896658
1366.623475874179 -694.2686808024487 -1.1887839879927897
2351.0580938325747 -888.440722107654 -8.337270576399689
3108.562024965752 -952.421669035295 -13.07002784904008
3963.976490009568 -1030.0642150979556 -17.773174039348483
4707.656046282859 -1066.5993028063829 -22.28546503878172
5517.445980176665 -1116.3556330960364 -25.70215065781389
6340.188945606101 -1167.0230126738034 -29.22331261636898
6367.728643131335 -1082.8929388813572 -29.106600507632507
6736.503259107292 -1072.538797777213 -30.68890242278312
7055.618337060325 -1067.6659370187263 -32.43609149760535
7368.507959511801 -1075.9285896223378 -33.52620498377457
7266.0143917994765 -1039.8399558930607 -32.79653120553515
6889.494256860468 -978.3058741117834 -30.717246792495445
6219.179017978382 -882.6564916270924 -27.06295134080042
5121.557507706293 -728.5055783465499 -21.8027666884492
3688.2331389077694 -525.8382436074937 -14.995976745614657
2163.9445591393965 -308.9409641683317 -8.370524106530203
896.8690002573875 -128.10707668154643 -3.1197846832185583
71.94323263413906 -134.6789431989408 0.20116897697432878
720.757973374854 -574.9859748698785 3.1165512934896658
1366.623475874179 -694.2686808024487 -1.1887839879927897
2351.0580938325747 -888.440722107654 -8.337270576399689
3108.562024965752 -952.421669035295 -13.07002784904008
3963.976490009568 -1030.0642150979556 -17.773174039348483
4707.656046282859 -1066.5993028063829 -22.28546503878172
5517.445980176665 -1116.3556330960364 -25.70215065781389
6340.188945606101 -1167.0230126738034 -29.22331261636898
6367.728643131335 -1082.8929388813572 -29.106600507632507
6736.503259107292 -1072.538797777213 -30.68890242278312
7055.618337060325 -1067.6659370187263 -32.43609149760535
7368.507959511801 -1075.9285896223378 -33.52620498377457
7266.0143917994765 -1039.8399558930607 -32.79653120553515
6889.494256860468 -978.3058741117834 -30.717246792495445
6219.179017978382 -882.6564916270924 -27.06295134080042
5121.557507706293 -728.5055783465499 -21.8027666884492
3688.2331389077694 -525.8382436074937 -14.995976745614657
2163.9445591393965 -308.9409641683317 -8.370524106530203
896.8690002573875 -128.10707668154643 -3.1197846832185583

SCALARS mu float
LOOKUP_TABLE default
-3.174508472723579
-6.860455503919339
-1.275989418259271
-0.22185164795234846
-0.21631003331311788
-0.17703009832307615
-0.2331385479107579
-0.23627599355426265
-0.23789928200305707
-0.2238617153510302
-0.2047852724470619
-0.20804354952206408
-0.22736687212867152
-0.23079544679022923
-0.24283331720888285
-0.30028370233318685
-0.26545966379013725
-0.3456415345521124
-0.3640850466956365
-0.4025504236240496
-3.174508472723579
-6.860455503919339
-1.275989418259271
-0.22185164795234846
-0.21631003331311788
-0.17703009832307615
-0.2331385479107579
-0.23627599355426265
-0.23789928200305707
-0.2238617153510302
-0.2047852724470619
-0.20804354952206408
-0.22736687212867152
-0.23079544679022923
-0.24283331720888285
-0.30028370233318685
-0.26545966379013725
-0.3456415345521124
-0.3640850466956365
-0.4025504236240496