# vtk DataFile Version 4.0
[MyVLM domain - lattices] 
ASCII
DATASET UNSTRUCTURED_GRID
POINTS 62 float
0.0 -2.1771209821212425 0.8038594248253343
0.0 -4.314559308963959 5.975616678753791
0.0 -6.422581690723485 10.876251562987914
0.0 -8.128833209085615 15.641290184376697
0.0 -9.657482437463472 20.189141854739848
0.0 -11.090362517486158 24.490021746347878
0.0 -12.422260620783277 28.545827173563953
0.0 -13.677652933146168 32.34764953331166
0.0 -14.850468462437304 35.89769848602151
0.0 -15.940167693217845 39.196170399254186
0.0 -16.946751372007167 42.24306500129884
0.0 -17.870218938030852 45.038382496260674
0.0 -18.71055155806169 47.5821297388738
0.0 -19.467749241941775 49.87430672555601
0.0 -20.14124267729288 51.915120669066965
0.0 -20.726761151428764 53.706125981703565
0.0 -21.19564627874396 55.2577534627883
0.0 -21.54866810521209 56.569722838507786
0.0 -21.760880919107468 57.65111360540274
0.0 -21.87269558903394 58.487217410160525
0.0 -21.92463605016686 59.063284746601965
-0.8152938918039478 1.0617947563350607 1.9827283449197655
-0.9232602711185554 -0.6375584563056123 7.313935540492876
-1.045017403566863 -2.182271132283542 12.419598390304753
-0.8624275731409438 -3.902838782426762 17.179426365855388
-0.7172432011617597 -5.636644905067615 21.652607033352307
-0.5835709082011334 -7.28538902420546 25.874918840073942
-0.458823694439046 -8.85888965683476 29.842788138089674
-0.35706975050238215 -10.331745104875694 33.565460389400386
-0.27205245991127286 -11.708861021095906 37.04115008241899
-0.20240159072431146 -12.990068002496638 40.269918874794634
-0.1506132401889805 -14.17497452461632 43.25190926977732
-0.11426271706148827 -15.262947820469815 45.98735157571487
-0.08424963388989035 -16.253342536168965 48.47648068221312
-0.059335794404298196 -17.146022298826033 50.719346224944005
-0.038970351202568594 -17.941611452577547 52.71572096122586
-0.02333805368457717 -18.644386932083613 54.46404821414851
-0.011931771028020786 -19.282315243370626 55.95414900796193
-0.005641151376299379 -19.854743151787517 57.18626110063509
-0.0026418300562744777 -20.38726793180399 58.15106784618269
-0.0014569859069231085 -20.83931640378005 58.8633366743032
-0.001005086180947595 -21.170132731942683 59.33790149609066
-0.6519578110959388 -0.6523714238746071 4.333683469977132
-0.7381041280070318 -2.3995787206818635 9.506558754266825
-0.7152918662654275 -4.100843080492501 14.414327001980627
-0.5923765403635137 -5.800595838629028 19.040816529592455
-0.4878052910110849 -7.439243342846107 23.40771765267081
-0.39089797599006726 -8.993182397673763 27.523621231800337
-0.30596004185303555 -10.458977229882603 31.38977778616823
-0.23592082890512064 -11.831242471687283 35.0081474293489
-0.17792026898834412 -13.110927903304097 38.378384469614566
-0.1323805615924845 -14.297755830820485 41.5005899792836
-0.0993284839689258 -15.39134216816205 44.37490375425451
-0.07444213160676699 -16.391205195751112 47.0015011261148
-0.05384453561032071 -17.297049413123556 49.38048964823765
-0.036864804602575046 -18.10898664668067 51.511828619141575
-0.023365651832679663 -18.82824987283814 53.395069272111705
-0.013226184267224234 -19.462814244566932 55.0273088888529
-0.006589845901620062 -20.019436196178813 56.4060883283859
-0.0031061180372151964 -20.50444778438676 57.529102910545475
-0.0015370559861990949 -20.91416618936169 58.39769307212762
-0.0009232770329515139 -21.228209880796122 59.019277083493

CELLS 40 140
4 0 21 22 1
4 1 22 23 2
4 2 23 24 3
4 3 24 25 4
4 4 25 26 5
4 5 26 27 6
4 6 27 28 7
4 7 28 29 8
4 8 29 30 9
4 9 30 31 10
4 10 31 32 11
4 11 32 33 12
4 12 33 34 13
4 13 34 35 14
4 14 35 36 15
4 15 36 37 16
4 16 37 38 17
4 17 38 39 18
4 18 39 40 19
4 19 40 41 20
1 42
1 43
1 44
1 45
1 46
1 47
1 48
1 49
1 50
1 51
1 52
1 53
1 54
1 55
1 56
1 57
1 58
1 59
1 60
1 61

CELL_TYPES 40
9
9
9
9
9
9
9
9
9
9
9
9
9
9
9
9
9
9
9
9
1
1
1
1
1
1
1
1
1
1
1
1
1
1
1
1
1
1
1
1

CELL_DATA 40

VECTORS S float
-0.0 -0.0 0.0
-1.645875130423652e-17 2.5290660299488994e-15 -1.3983988910973974e-14
-2.818489716453842e-17 5.007930472210708e-15 -2.797701565470111e-14
1.450282218022725e-17 -4.970610605361708e-15 2.7983680723313198e-14
0.0 -0.0 0.0
-3.4059622576568998e-18 4.947138717701462e-15 -2.798784332265629e-14
-5.8815447337195194e-18 9.893898775714203e-15 -5.597575368147012e-14
3.36263115501727e-18 -4.9502267040164985e-15 2.7987297318924344e-14
-4.1913846021994e-18 4.955864408178294e-15 -2.7986299457884076e-14
0.0 -0.0 0.0
6.733733211831609e-18 -4.973494476606248e-15 2.798317126943121e-14
-8.111893447400519e-18 4.98423250449659e-15 -2.7981260291213126e-14
-9.28491731821322e-18 4.994595453900821e-15 -2.7979412020063964e-14
3.090297537888377e-17 -1.500898703620386e-14 8.393373252554673e-14
-1.072382224962013e-17 5.008314608989041e-15 -2.7976959032806607e-14
0.0 -0.0 0.0
5.27452259480617e-18 -2.5052066197253014e-15 1.3988291665120332e-14
4.946459221305249e-18 -2.5044698377570526e-15 1.3988423717520333e-14
0.0 -0.0 0.0
1.80734427742621e-18 -1.2512823785455064e-15 6.994382537207478e-15
-0.0 -0.0 0.0
-1.645875130423652e-17 2.5290660299488994e-15 -1.3983988910973974e-14
-2.818489716453842e-17 5.007930472210708e-15 -2.797701565470111e-14
1.450282218022725e-17 -4.970610605361708e-15 2.7983680723313198e-14
0.0 -0.0 0.0
-3.4059622576568998e-18 4.947138717701462e-15 -2.798784332265629e-14
-5.8815447337195194e-18 9.893898775714203e-15 -5.597575368147012e-14
3.36263115501727e-18 -4.9502267040164985e-15 2.7987297318924344e-14
-4.1913846021994e-18 4.955864408178294e-15 -2.7986299457884076e-14
0.0 -0.0 0.0
6.733733211831609e-18 -4.973494476606248e-15 2.798317126943121e-14
-8.111893447400519e-18 4.98423250449659e-15 -2.7981260291213126e-14
-9.28491731821322e-18 4.994595453900821e-15 -2.7979412020063964e-14
3.090297537888377e-17 -1.500898703620386e-14 8.393373252554673e-14
-1.072382224962013e-17 5.008314608989041e-15 -2.7976959032806607e-14
0.0 -0.0 0.0
5.27452259480617e-18 -2.5052066197253014e-15 1.3988291665120332e-14
4.946459221305249e-18 -2.5044698377570526e-15 1.3988423717520333e-14
0.0 -0.0 0.0
1.80734427742621e-18 -1.2512823785455064e-15 6.994382537207478e-15

SCALARS Gamma float
LOOKUP_TABLE default
0.0
75.91994298170758
88.19934718927715
102.73197213518203
104.24396492110088
106.43674280031989
108.17510153393509
111.01379042183885
112.0049052801597
106.18976472707479
102.55298218359081
100.28744140392483
97.51968408595289
90.9632211183734
82.18972004180712
71.4686036867779
57.19323304159004
40.2351764728277
23.22680109625958
9.460773739759318
0.0
75.91994298170758
88.19934718927715
102.73197213518203
104.24396492110088
106.43674280031989
108.17510153393509
111.01379042183885
112.0049052801597
106.18976472707479
102.55298218359081
100.28744140392483
97.51968408595289
90.9632211183734
82.18972004180712
71.4686036867779
57.19323304159004
40.2351764728277
23.22680109625958
9.460773739759318

VECTORS Ftot float
170.03597878224488 -79.84212091900831 -14.078320115008925
1720.167106600521 447.18271428408474 78.85037783472889
2273.4195692233498 856.3143677523469 150.99132700304963
3235.193767514861 1291.3841554365429 227.7058690628769
4013.3771508438012 1337.3988685296947 235.81950449075865
4819.85343328755 1353.714743275304 238.69643342226942
5586.049913838206 1376.7931509695413 242.7657793705533
6396.624224001652 1404.8324834232735 247.70987020320075
7079.334038248373 1404.620116714905 247.67242422271113
7259.32307758739 1331.5490085125666 234.78801633637127
7498.1303916741435 1284.5348454387165 226.49815091102386
7769.024791536807 1250.8892204715366 220.56551944651167
7939.963145240058 1207.1663225744335 212.855992872491
7724.602517653682 1141.047033099915 201.19737819286013
7235.85448751201 1031.5616094367058 181.8921440067393
6485.911894001356 895.7491630963832 157.9447454009198
5320.748585993446 725.302491181866 127.89039837042662
3821.081490256914 498.2644383015143 87.85746400010535
2241.9858566586345 276.0890847413358 48.68195471900332
926.2569133745593 93.08623847120619 16.41361537513596
170.03597878224488 -79.84212091900831 -14.078320115008925
1720.167106600521 447.18271428408474 78.85037783472889
2273.4195692233498 856.3143677523469 150.99132700304963
3235.193767514861 1291.3841554365429 227.7058690628769
4013.3771508438012 1337.3988685296947 235.81950449075865
4819.85343328755 1353.714743275304 238.69643342226942
5586.049913838206 1376.7931509695413 242.7657793705533
6396.624224001652 1404.8324834232735 247.70987020320075
7079.334038248373 1404.620116714905 247.67242422271113
7259.32307758739 1331.5490085125666 234.78801633637127
7498.1303916741435 1284.5348454387165 226.49815091102386
7769.024791536807 1250.8892204715366 220.56551944651167
7939.963145240058 1207.1663225744335 212.855992872491
7724.602517653682 1141.047033099915 201.19737819286013
7235.85448751201 1031.5616094367058 181.8921440067393
6485.911894001356 895.7491630963832 157.9447454009198
5320.748585993446 725.302491181866 127.89039837042662
3821.081490256914 498.2644383015143 87.85746400010535
2241.9858566586345 276.0890847413358 48.68195471900332
926.2569133745593 93.08623847120619 16.41361537513596

VECTORS D float
107.04358306253728 50.219735006877954 9.1104398986912
1007.1563488745596 1086.919850736333 195.38885172882158
966.8734794707401 1614.3796696824509 288.00248072836416
1013.3835150397036 2257.907701510469 400.53641109473637
884.9991329202799 2438.2865673412507 431.33415273185676
784.2918461443826 2554.916213029776 451.51223350268833
705.8444302526656 2641.33862653438 466.79113418303365
648.4466670287501 2729.087863366025 482.6269209904564
592.1158501603257 2755.8912247122475 487.92951239069083
516.3543576981609 2619.8099657199455 464.58810568595504
463.6269859455739 2532.5877428103954 450.009367727069
426.4885844994243 2476.255244405243 440.965564818232
395.88575665747254 2408.4817916818088 429.805902725734
362.177164123924 2275.907285053728 406.84322688251837
323.553842995768 2075.317113208852 371.3903026517046
280.36256294812597 1821.0428635908547 326.0368594119721
225.78525016911166 1478.7387035097981 264.7467730964922
157.3021348253431 1036.6976802680997 185.55342867244326
89.18941310344465 590.8510259051571 105.71492072065057
33.53669321756178 223.08760859061658 39.90130360558609
107.04358306253728 50.219735006877954 9.1104398986912
1007.1563488745596 1086.919850736333 195.38885172882158
966.8734794707401 1614.3796696824509 288.00248072836416
1013.3835150397036 2257.907701510469 400.53641109473637
884.9991329202799 2438.2865673412507 431.33415273185676
784.2918461443826 2554.916213029776 451.51223350268833
705.8444302526656 2641.33862653438 466.79113418303365
648.4466670287501 2729.087863366025 482.6269209904564
592.1158501603257 2755.8912247122475 487.92951239069083
516.3543576981609 2619.8099657199455 464.58810568595504
463.6269859455739 2532.5877428103954 450.009367727069
426.4885844994243 2476.255244405243 440.965564818232
395.88575665747254 2408.4817916818088 429.805902725734
362.177164123924 2275.907285053728 406.84322688251837
323.553842995768 2075.317113208852 371.3903026517046
280.36256294812597 1821.0428635908547 326.0368594119721
225.78525016911166 1478.7387035097981 264.7467730964922
157.3021348253431 1036.6976802680997 185.55342867244326
89.18941310344465 590.8510259051571 105.71492072065057
33.53669321756178 223.08760859061658 39.90130360558609

VECTORS L float
62.9923957197076 -130.0618559258863 -23.188760013700126
713.0107577259616 -639.7371364522483 -116.53847389409268
1306.5460897526098 -758.0653019301045 -137.0111537253146
2221.8102524751575 -966.5235460739264 -172.83054203185952
3128.3780179235214 -1100.8876988115567 -195.5146482410982
4035.5615871431673 -1201.2014697544726 -212.81580008041905
4880.20548358554 -1264.5454755648389 -224.0253548124803
5748.1775569729025 -1324.2553799427521 -234.91705078725562
6487.218188088048 -1351.2711079973428 -240.25708816797976
6742.968719889228 -1288.2609572073786 -229.80008934958371
7034.503405728571 -1248.0528973716791 -223.51121681604528
7342.536207037384 -1225.3660239337064 -220.40004537172044
7544.077388582585 -1201.3154691073762 -216.94990985324316
7362.425353529759 -1134.8602519538128 -205.64584868965818
6912.300644516244 -1043.7555037721456 -189.49815864496523
6205.549331053231 -925.2937004944711 -168.09211401105222
5094.963335824336 -753.4362123279321 -136.85637472606558
3663.7793554315717 -538.4332419665853 -97.69596467233791
2152.796443555189 -314.7619411638213 -57.03296600164721
892.7202201569977 -130.00137011941038 -23.487688230450125
62.9923957197076 -130.0618559258863 -23.188760013700126
713.0107577259616 -639.7371364522483 -116.53847389409268
1306.5460897526098 -758.0653019301045 -137.0111537253146
2221.8102524751575 -966.5235460739264 -172.83054203185952
3128.3780179235214 -1100.8876988115567 -195.5146482410982
4035.5615871431673 -1201.2014697544726 -212.81580008041905
4880.20548358554 -1264.5454755648389 -224.0253548124803
5748.1775569729025 -1324.2553799427521 -234.91705078725562
6487.218188088048 -1351.2711079973428 -240.25708816797976
6742.968719889228 -1288.2609572073786 -229.80008934958371
7034.503405728571 -1248.0528973716791 -223.51121681604528
7342.536207037384 -1225.3660239337064 -220.40004537172044
7544.077388582585 -1201.3154691073762 -216.94990985324316
7362.425353529759 -1134.8602519538128 -205.64584868965818
6912.300644516244 -1043.7555037721456 -189.49815864496523
6205.549331053231 -925.2937004944711 -168.09211401105222
5094.963335824336 -753.4362123279321 -136.85637472606558
3663.7793554315717 -538.4332419665853 -97.69596467233791
2152.796443555189 -314.7619411638213 -57.03296600164721
892.7202201569977 -130.00137011941038 -23.487688230450125

SCALARS mu float
LOOKUP_TABLE default
-3.2146324742391017
-9.173421888236922
-3.1966525678136115
-0.7145697779792749
-0.4189091093032431
-0.42350168121807646
-0.3534356983320966
-0.3337846946363822
-0.33357598128332433
-0.2625395235861417
-0.21810213263924222
-0.21966500728152902
-0.27801150161729365
-0.2458570409399978
-0.3066397118504144
-0.37044242222260515
-0.3438194409280276
-0.40487973661531124
-0.41560894216597694
-0.44758930489373333
-3.2146324742391017
-9.173421888236922
-3.1966525678136115
-0.7145697779792749
-0.4189091093032431
-0.42350168121807646
-0.3534356983320966
-0.3337846946363822
-0.33357598128332433
-0.2625395235861417
-0.21810213263924222
-0.21966500728152902
-0.27801150161729365
-0.2458570409399978
-0.3066397118504144
-0.37044242222260515
-0.3438194409280276
-0.40487973661531124
-0.41560894216597694
-0.44758930489373333