# vtk DataFile Version 4.0
[MyVLM domain - lattices] 
ASCII
DATASET UNSTRUCTURED_GRID
POINTS 152 float
0.0 2.015212393634652 1.1510439466717028
0.0 4.135249313278758 0.4371076714393414
0.0 6.238233197137599 -0.20358304972316676
0.0 8.305153019308227 -0.8232605812048326
0.0 10.33583856723828 -1.4223925781497764
0.0 12.317885309400062 -2.0350602108292644
0.0 14.240703615420449 -2.6903582495738227
0.0 16.10161023434095 -3.395658865802624
0.0 17.917160678034417 -4.105476164477513
0.0 19.69405260882169 -4.801408469608836
0.0 21.43222345111525 -5.483627706210315
0.0 23.131537612504008 -6.152506411369657
0.0 24.791854841312677 -6.808429923397767
0.0 26.412040979470014 -7.454514315985492
0.0 27.992847995997888 -8.08869357122508
0.0 29.535922799873664 -8.706442843889358
0.0 31.0415100904024 -9.307089828163068
0.0 32.50920967586726 -9.89173404175175
0.0 33.93873319452051 -10.461167752045897
0.0 35.3300805601807 -11.015391195827098
0.0 36.68325168896795 -11.554404603553394
0.0 37.998246499303995 -12.078208199359285
0.0 39.27506491191212 -12.586802201055725
0.0 40.513706849817204 -13.080186820130127
0.0 41.71417223834571 -13.558362261746357
0.0 42.87646100512566 -14.021328724744738
0.0 44.0005730800867 -14.46908640164205
0.0 45.08650839546004 -14.901635478631526
0.0 46.134266987375234 -15.318975856447967
0.0 47.14385018815322 -15.721103874569708
0.0 48.115258211921585 -16.108018944686062
0.0 49.04849078821939 -16.479721809882324
0.0 49.94354765721517 -16.836213184039558
0.0 50.80042856970695 -17.177493751834614
0.0 51.6191332871222 -17.503564168740105
0.0 52.399661581517854 -17.814425061024426
0.0 53.14187112691801 -18.110467466092633
0.0 53.84531051977037 -18.392931605011675
0.0 54.50928895590875 -18.663715446629492
0.0 55.133446045870244 -18.923809152857526
0.0 55.717987989333196 -19.172646194735655
0.0 56.26280755793627 -19.410521179765404
0.0 56.76384075159982 -19.648599856398235
0.0 57.22117864212057 -19.886632006929087
0.0 57.63788867486031 -20.11618989449109
0.0 58.01606269079386 -20.33152623324076
0.0 58.35623411642447 -20.53117544590553
0.0 58.65790310327197 -20.716510854897827
0.0 58.9215165209554 -20.88630469602984
0.0 59.1479548376604 -21.038137902843005
0.0 59.3379802497268 -21.169916358104537
-0.8152906132198464 0.8363447448642491 -2.087868298850538
-0.840508508580286 2.9200358506118502 -2.901663877055249
-0.8937965186637556 4.945603990251952 -3.7550526073690147
-0.9506477078574832 6.929749295872803 -4.602151253977466
-1.02068187720969 8.87281641823309 -5.442012896703511
-1.0489549773990687 10.785385603023046 -6.245568549420948
-0.9930987765435385 12.674907335592197 -6.992348171867988
-0.9074282632533693 14.54800839393313 -7.6641448411462445
-0.8389431825969345 16.390735334958197 -8.299295327062689
-0.7804380392478915 18.196443083684873 -8.916056823082403
-0.7250391551382538 19.963766252030123 -9.518180702132275
-0.6716005320172311 21.692808114057804 -10.105383221053868
-0.6190912009116674 23.383817316994683 -10.676981227206241
-0.5668551203522249 25.03800106798344 -11.229657946224266
-0.5160737545271722 26.654647083284917 -11.765370361597517
-0.46824322159258325 28.232044935022174 -12.288817835295507
-0.42447592168765613 29.76995004841064 -12.800672331016209
-0.38457409080794247 31.268760310277912 -13.299840663685282
-0.3477110964547294 32.728732832251225 -13.785616424912675
-0.31305686768839563 34.14982512932543 -14.258116341290616
-0.2804728235147938 35.53202300710373 -14.717379411603837
-0.25028172479702737 36.875325553638206 -15.163408141408684
-0.22269967179246206 38.17972620104592 -15.596220575815119
-0.19756508903559172 39.445208497243165 -16.015861916551763
-0.17527331282134875 40.6717686692515 -16.4223425297916
-0.15618952887337012 41.859400037505026 -16.815680767491095
-0.1399679949396797 43.008083118269674 -17.195930160769713
-0.12575834684106657 44.11779430689208 -17.563155562879555
-0.11252036551220733 45.188512757521394 -17.917414247325077
-0.1000861977220127 46.22023510620104 -18.258715456501058
-0.08845640514293837 47.21295983561594 -18.58706335919638
-0.07764813403821604 48.16668517610736 -18.90246281750849
-0.06766754153320646 49.08140916035212 -19.204919236613343
-0.05846867713071907 49.95712937233953 -19.494439254445798
-0.05000632361005495 50.793843608330036 -19.77102892573054
-0.04224556628624775 51.591549926169215 -20.03469358649294
-0.03513713503931205 52.35035108161223 -20.28515091761596
-0.02861025434192226 53.070578815071535 -20.52148946980732
-0.022599563624171346 53.75326014025577 -20.740887546093074
-0.017476911002667815 54.398926768818875 -20.941884280710298
-0.0133557109559299 55.00661707219629 -21.12712172642603
-0.010110762084749267 55.57635782979555 -21.296526307422777
-0.007505342360414162 56.11311312740766 -21.436459310081563
-0.005475063785658977 56.61692671341206 -21.54680053671763
-0.0039854477514337135 57.08406034757363 -21.637820717965543
-0.0029419419370200197 57.51205598384668 -21.716273279831842
-0.0022286575278371427 57.900521071324796 -21.7832367470678
-0.0017402354220080998 58.25046508008183 -21.835937623439957
-0.0014049497010025483 58.56154909727165 -21.875307064340205
-0.0011720086804935075 58.832798559258364 -21.90402266135198
-0.0010052173229957839 59.063369826896526 -21.924402293977543
-0.6209246706750498 2.177450436667714 -1.67255561370079
-0.6503643852165156 4.24630025412597 -2.4670781039445773
-0.6916665849454646 6.271180759352512 -3.26230690187093
-0.73924859440019 8.256086091108022 -4.047268201424693
-0.7761138204782846 10.203541242550843 -4.815024640919052
-0.7657701577284777 12.11743346758328 -5.554896078033737
-0.7126976399238405 14.001382629792172 -6.256937019302392
-0.6548892921938638 15.854375262381168 -6.923931941863367
-0.6072679581918097 17.671593567848163 -7.569117635565203
-0.5645539478948045 19.450863008385237 -8.198468593932898
-0.5237398826833068 21.191685520235378 -8.8133532358923
-0.4840093998483369 22.89415859337177 -9.41350370994347
-0.4447298704739596 24.55866887196463 -9.997857719959349
-0.40609832807977386 26.185354178659125 -10.56603660133449
-0.3691188660449083 27.773605856349107 -11.119712625724189
-0.3347696787300898 29.32292723007181 -11.660250396373447
-0.3033937546858495 30.833356355291915 -12.18754535675241
-0.27460694522350193 32.3050527872469 -12.70115913244894
-0.24778798655367185 33.73806095492889 -13.200969655810358
-0.22257363420119602 35.13235958230452 -13.687035382257982
-0.19903295561693296 36.48794298381222 -14.159371932743781
-0.17736802372105853 37.80480833440856 -14.617987069010804
-0.15759928531052017 39.082946982074574 -15.062904562285812
-0.1398144006963527 40.32235132345586 -15.49414530261332
-0.12429856563551955 41.52301742046762 -15.911720109792396
-0.11105907142989367 42.684935444067065 -16.31565598889615
-0.09964737816777985 43.808089218879 -16.70599738140267
-0.08935451713247772 44.89246207200946 -17.082790095711673
-0.07972746121283251 45.93804509583697 -17.446058605312007
-0.07070347607435665 46.94483665319072 -17.79580740829351
-0.06228920219293291 47.912835504413856 -18.132039910585373
-0.05449337833928344 48.84204018185162 -18.45476014453592
-0.04730108199897208 49.73244897812463 -18.76397280113145
-0.04067812527779026 50.58406009985473 -19.05968280763797
-0.03459445871111351 51.39687193401722 -19.341894595804373
-0.029018512997084925 52.170904466472514 -19.61055325493047
-0.023905271017962866 52.90624641709246 -19.865415029171768
-0.0192036817372851 53.60326454270763 -20.10547226241779
-0.015028677985064689 54.26241196612536 -20.32948000998714
-0.011562233234474143 54.883508194781115 -20.53793417112527
-0.008799927390254687 55.46621503165563 -20.731763934505935
-0.006606039166936287 56.01188264764321 -20.907259736084583
-0.004867652304777427 56.52189236452244 -21.060626425465614
-0.003547691826409759 56.99525356249224 -21.194585708183713
-0.00259777113317015 57.43028754498938 -21.3137497651405
-0.001938974799321436 57.82625349659159 -21.420153969980653
-0.0014883348561919659 58.183386959239535 -21.513151176540827
-0.001179444421128993 58.50193276953598 -21.592068701783518
-0.000966359393061021 58.78156429102572 -21.657803971993673
-0.0008164597513084843 59.02180503073148 -21.711666140867013

CELLS 100 350
4 0 51 52 1
4 1 52 53 2
4 2 53 54 3
4 3 54 55 4
4 4 55 56 5
4 5 56 57 6
4 6 57 58 7
4 7 58 59 8
4 8 59 60 9
4 9 60 61 10
4 10 61 62 11
4 11 62 63 12
4 12 63 64 13
4 13 64 65 14
4 14 65 66 15
4 15 66 67 16
4 16 67 68 17
4 17 68 69 18
4 18 69 70 19
4 19 70 71 20
4 20 71 72 21
4 21 72 73 22
4 22 73 74 23
4 23 74 75 24
4 24 75 76 25
4 25 76 77 26
4 26 77 78 27
4 27 78 79 28
4 28 79 80 29
4 29 80 81 30
4 30 81 82 31
4 31 82 83 32
4 32 83 84 33
4 33 84 85 34
4 34 85 86 35
4 35 86 87 36
4 36 87 88 37
4 37 88 89 38
4 38 89 90 39
4 39 90 91 40
4 40 91 92 41
4 41 92 93 42
4 42 93 94 43
4 43 94 95 44
4 44 95 96 45
4 45 96 97 46
4 46 97 98 47
4 47 98 99 48
4 48 99 100 49
4 49 100 101 50
1 102
1 103
1 104
1 105
1 106
1 107
1 108
1 109
1 110
1 111
1 112
1 113
1 114
1 115
1 116
1 117
1 118
1 119
1 120
1 121
1 122
1 123
1 124
1 125
1 126
1 127
1 128
1 129
1 130
1 131
1 132
1 133
1 134
1 135
1 136
1 137
1 138
1 139
1 140
1 141
1 142
1 143
1 144
1 145
1 146
1 147
1 148
1 149
1 150
1 151

CELL_TYPES 100
9
9
9
9
9
9
9
9
9
9
9
9
9
9
9
9
9
9
9
9
9
9
9
9
9
9
9
9
9
9
9
9
9
9
9
9
9
9
9
9
9
9
9
9
9
9
9
9
9
9
1
1
1
1
1
1
1
1
1
1
1
1
1
1
1
1
1
1
1
1
1
1
1
1
1
1
1
1
1
1
1
1
1
1
1
1
1
1
1
1
1
1
1
1
1
1
1
1
1
1

CELL_DATA 100

VECTORS S float
-0.0 0.0 -0.0
-0.0 0.0 -0.0
-4.9802167995702186e-17 6.180731782090474e-15 -3.504735698460641e-15
3.830818177193e-20 3.877714914062207e-16 -2.1644513228606335e-16
-3.7713367443000576e-17 -1.2415441997737133e-14 6.914027005972717e-15
8.713643547799105e-17 2.482186381800086e-14 -1.384417028169432e-14
3.726646395141606e-17 1.2404111178581359e-14 -6.934336941383549e-15
0.0 0.0 -0.0
0.0 0.0 -0.0
0.0 0.0 -0.0
8.21559396501258e-17 2.4780814043438144e-14 -1.3917545498126993e-14
0.0 0.0 -0.0
8.275323386288492e-17 2.4772390640861566e-14 -1.3932529590320477e-14
1.55832105672645e-16 4.9536429898849196e-14 -2.7879958698256802e-14
0.0 0.0 -0.0
-1.3478328191507383e-16 -4.952199311581236e-14 2.790570370174553e-14
-1.2444065875661382e-16 -4.951577645297993e-14 2.7916781056673265e-14
-1.1916771163529331e-16 -4.951423025385077e-14 2.791954636469612e-14
-1.1060686655290015e-16 -4.950984489157375e-14 2.7927357424551368e-14
1.0409116243827879e-16 4.950083092298768e-14 -2.794335646891678e-14
0.0 0.0 -0.0
-4.624904350154647e-17 -2.4746444894857875e-14 1.3978730022360897e-14
-4.477859590085611e-17 -2.4744720809362125e-14 1.3981786505678968e-14
0.0 0.0 -0.0
-4.2108167981524886e-17 -2.474148623275781e-14 1.398751775129387e-14
3.9420851210160117e-17 2.473982713752216e-14 -1.3990459826193277e-14
3.7492262604197697e-17 2.473735178618265e-14 -1.3994841474029181e-14
3.6216539437489395e-17 2.473580427618283e-14 -1.3997579866497015e-14
0.0 0.0 -0.0
-3.392097944488109e-17 -2.473290962818988e-14 1.4002699655325829e-14
3.2901609136510396e-17 2.4731294118678446e-14 -1.4005555170926038e-14
0.0 0.0 -0.0
0.0 0.0 -0.0
0.0 0.0 -0.0
0.0 0.0 -0.0
-2.912155139417668e-17 -2.4723711884286874e-14 1.4018943952535535e-14
2.830442732506638e-17 2.4722121811417418e-14 -1.4021749496662281e-14
-2.776916623265984e-17 -2.4720589974865104e-14 1.402445104502567e-14
2.7140920164073038e-17 2.4719094300224608e-14 -1.4027088339829196e-14
0.0 0.0 -0.0
-5.237699632167301e-17 -4.9432557418272686e-14 2.8064101473674426e-14
0.0 0.0 -0.0
0.0 0.0 -0.0
-2.42658834829551e-17 -2.47124815794661e-14 1.4038740409942896e-14
-4.767890588503971e-17 -4.942275817290588e-14 2.8081363376618014e-14
-2.371810752961866e-17 -2.4710382295640364e-14 1.4042436084988759e-14
0.0 0.0 -0.0
-1.1498450930659159e-17 -1.2354312047481958e-14 7.02276536384688e-15
1.1388127639432379e-17 1.2353947768791918e-14 -7.023406336891602e-15
-2.251169199529456e-17 -2.4707261925228728e-14 1.404792754566247e-14
-0.0 0.0 -0.0
-0.0 0.0 -0.0
-4.9802167995702186e-17 6.180731782090474e-15 -3.504735698460641e-15
3.830818177193e-20 3.877714914062207e-16 -2.1644513228606335e-16
-3.7713367443000576e-17 -1.2415441997737133e-14 6.914027005972717e-15
8.713643547799105e-17 2.482186381800086e-14 -1.384417028169432e-14
3.726646395141606e-17 1.2404111178581359e-14 -6.934336941383549e-15
0.0 0.0 -0.0
0.0 0.0 -0.0
0.0 0.0 -0.0
8.21559396501258e-17 2.4780814043438144e-14 -1.3917545498126993e-14
0.0 0.0 -0.0
8.275323386288492e-17 2.4772390640861566e-14 -1.3932529590320477e-14
1.55832105672645e-16 4.9536429898849196e-14 -2.7879958698256802e-14
0.0 0.0 -0.0
-1.3478328191507383e-16 -4.952199311581236e-14 2.790570370174553e-14
-1.2444065875661382e-16 -4.951577645297993e-14 2.7916781056673265e-14
-1.1916771163529331e-16 -4.951423025385077e-14 2.791954636469612e-14
-1.1060686655290015e-16 -4.950984489157375e-14 2.7927357424551368e-14
1.0409116243827879e-16 4.950083092298768e-14 -2.794335646891678e-14
0.0 0.0 -0.0
-4.624904350154647e-17 -2.4746444894857875e-14 1.3978730022360897e-14
-4.477859590085611e-17 -2.4744720809362125e-14 1.3981786505678968e-14
0.0 0.0 -0.0
-4.2108167981524886e-17 -2.474148623275781e-14 1.398751775129387e-14
3.9420851210160117e-17 2.473982713752216e-14 -1.3990459826193277e-14
3.7492262604197697e-17 2.473735178618265e-14 -1.3994841474029181e-14
3.6216539437489395e-17 2.473580427618283e-14 -1.3997579866497015e-14
0.0 0.0 -0.0
-3.392097944488109e-17 -2.473290962818988e-14 1.4002699655325829e-14
3.2901609136510396e-17 2.4731294118678446e-14 -1.4005555170926038e-14
0.0 0.0 -0.0
0.0 0.0 -0.0
0.0 0.0 -0.0
0.0 0.0 -0.0
-2.912155139417668e-17 -2.4723711884286874e-14 1.4018943952535535e-14
2.830442732506638e-17 2.4722121811417418e-14 -1.4021749496662281e-14
-2.776916623265984e-17 -2.4720589974865104e-14 1.402445104502567e-14
2.7140920164073038e-17 2.4719094300224608e-14 -1.4027088339829196e-14
0.0 0.0 -0.0
-5.237699632167301e-17 -4.9432557418272686e-14 2.8064101473674426e-14
0.0 0.0 -0.0
0.0 0.0 -0.0
-2.42658834829551e-17 -2.47124815794661e-14 1.4038740409942896e-14
-4.767890588503971e-17 -4.942275817290588e-14 2.8081363376618014e-14
-2.371810752961866e-17 -2.4710382295640364e-14 1.4042436084988759e-14
0.0 0.0 -0.0
-1.1498450930659159e-17 -1.2354312047481958e-14 7.02276536384688e-15
1.1388127639432379e-17 1.2353947768791918e-14 -7.023406336891602e-15
-2.251169199529456e-17 -2.4707261925228728e-14 1.404792754566247e-14

SCALARS Gamma float
LOOKUP_TABLE default
-0.0
-0.0
-0.0
52.40196252124444
56.51881199343372
56.50035189674876
53.990106933704205
49.03632144968131
45.76408053620844
48.72192635676301
55.8319821400968
56.53006669703166
53.077676477968225
48.30392050587938
47.313169289660514
46.54716155921079
42.90351411360418
40.61589103600403
35.912830798916424
36.3387165349812
35.808636173311
37.27006755902981
38.77629104115697
36.42808727889062
38.47089170793752
39.77788333808633
39.86680997069776
39.94570516294559
40.13895702365378
40.37502618491406
40.66780043846937
40.93162955198127
38.847596668638396
39.130200830777916
39.41707447531689
39.698910957692796
39.92618329088788
42.307526627269546
42.19632440579927
41.739931253678485
41.00036371960313
39.758883374812044
37.62497253378798
34.86349039373313
32.11086377066714
29.393903401853656
26.49419160146735
23.660691902819067
20.80501260992933
18.1563122336972
-0.0
-0.0
-0.0
52.40196252124444
56.51881199343372
56.50035189674876
53.990106933704205
49.03632144968131
45.76408053620844
48.72192635676301
55.8319821400968
56.53006669703166
53.077676477968225
48.30392050587938
47.313169289660514
46.54716155921079
42.90351411360418
40.61589103600403
35.912830798916424
36.3387165349812
35.808636173311
37.27006755902981
38.77629104115697
36.42808727889062
38.47089170793752
39.77788333808633
39.86680997069776
39.94570516294559
40.13895702365378
40.37502618491406
40.66780043846937
40.93162955198127
38.847596668638396
39.130200830777916
39.41707447531689
39.698910957692796
39.92618329088788
42.307526627269546
42.19632440579927
41.739931253678485
41.00036371960313
39.758883374812044
37.62497253378798
34.86349039373313
32.11086377066714
29.393903401853656
26.49419160146735
23.660691902819067
20.80501260992933
18.1563122336972

VECTORS Ftot float
119.33627037138115 20.103343778299113 34.820012826037704
143.29072028558397 44.60807496599643 77.26345226894705
146.46892550441234 66.10214640230537 114.49227605814905
1325.4273718833406 -3.942893666127405 -6.829292158574176
1353.4773306022366 -116.01058880238072 -200.93623402170428
1447.5372724387491 -149.61403928170517 -259.1391175615189
1524.1299520110422 -144.34757335601805 -250.01733100189853
1508.2026264854762 -140.38866034087246 -243.16029251692066
1517.939127370491 -149.75828279388455 -259.3889546532758
1723.1936064741064 -194.787825396402 -337.3824102824232
2105.3348306244898 -256.27665805611304 -443.8841925471432
2269.737960338687 -284.57095997844425 -492.8913610413145
2258.947578831718 -291.8393478578691 -505.4805781375961
2179.508447788993 -272.37998467573243 -471.7759724232003
2257.2056797016926 -266.2209363802587 -461.1081878491693
2336.142771736539 -265.06770092343396 -459.110725444859
2259.6835377268626 -241.89086774513544 -418.9672728214979
2235.901884098695 -230.45936910931806 -399.1673363776079
2061.979535963424 -200.3694406018512 -347.0500514065602
2168.194461919562 -204.88991194205997 -354.87973744196074
2214.090574616766 -204.7551575357852 -354.64633596374904
2386.7553613996433 -206.49170481659635 -357.6541240838596
2562.504762552241 -217.50358549619392 -376.7272609078086
2479.791471677501 -206.3082313975646 -357.3363388002582
2692.8374205831406 -220.43466804494295 -381.80404480342037
2861.4005637005043 -222.202483440174 -384.865990886363
2940.9332931200556 -221.59910523689993 -383.82090918211276
3016.8488878427156 -222.39612265488606 -385.20138384458204
3099.3897543194735 -223.54311974824083 -387.18804108640643
3183.4244207516344 -225.19256323682959 -390.04496101285577
3270.1386223280906 -227.48773914110402 -394.0203222913669
3352.8492024761035 -229.58461396155818 -397.65221601750534
3237.4242429713736 -220.51558320795795 -381.9441939768651
3315.2025724680184 -221.6536461303992 -383.91537678074366
3391.11259674851 -224.5462292207833 -388.9254776584035
3465.121648202491 -228.20510890326264 -395.2628431672392
3532.639305735254 -229.4705546992793 -397.4546595801645
3790.614347641929 -245.06469161054702 -424.46449701066535
3825.494528233701 -245.1856384157006 -424.67398302220454
3825.8970639077697 -243.13987008993163 -421.13060834145745
3796.032754922755 -241.2606631574055 -417.87572645638664
3716.1606852236773 -233.5960282218828 -404.600189326594
3548.08806012234 -218.77632736839843 -378.9317144953871
3313.9423315539407 -202.7270922507564 -351.13362384901257
3074.420025778458 -186.87290074338867 -323.67335864532464
2832.1672245336545 -173.05234136152316 -299.7354476069109
2567.7312023338104 -155.97426868841816 -270.1553580417394
2305.0328603347957 -139.1115072709513 -240.9481985107747
2035.8634265110584 -122.63703459798319 -212.41357481328888
1783.5206958865158 -106.91355684319846 -185.17971247032276
119.33627037138115 20.103343778299113 34.820012826037704
143.29072028558397 44.60807496599643 77.26345226894705
146.46892550441234 66.10214640230537 114.49227605814905
1325.4273718833406 -3.942893666127405 -6.829292158574176
1353.4773306022366 -116.01058880238072 -200.93623402170428
1447.5372724387491 -149.61403928170517 -259.1391175615189
1524.1299520110422 -144.34757335601805 -250.01733100189853
1508.2026264854762 -140.38866034087246 -243.16029251692066
1517.939127370491 -149.75828279388455 -259.3889546532758
1723.1936064741064 -194.787825396402 -337.3824102824232
2105.3348306244898 -256.27665805611304 -443.8841925471432
2269.737960338687 -284.57095997844425 -492.8913610413145
2258.947578831718 -291.8393478578691 -505.4805781375961
2179.508447788993 -272.37998467573243 -471.7759724232003
2257.2056797016926 -266.2209363802587 -461.1081878491693
2336.142771736539 -265.06770092343396 -459.110725444859
2259.6835377268626 -241.89086774513544 -418.9672728214979
2235.901884098695 -230.45936910931806 -399.1673363776079
2061.979535963424 -200.3694406018512 -347.0500514065602
2168.194461919562 -204.88991194205997 -354.87973744196074
2214.090574616766 -204.7551575357852 -354.64633596374904
2386.7553613996433 -206.49170481659635 -357.6541240838596
2562.504762552241 -217.50358549619392 -376.7272609078086
2479.791471677501 -206.3082313975646 -357.3363388002582
2692.8374205831406 -220.43466804494295 -381.80404480342037
2861.4005637005043 -222.202483440174 -384.865990886363
2940.9332931200556 -221.59910523689993 -383.82090918211276
3016.8488878427156 -222.39612265488606 -385.20138384458204
3099.3897543194735 -223.54311974824083 -387.18804108640643
3183.4244207516344 -225.19256323682959 -390.04496101285577
3270.1386223280906 -227.48773914110402 -394.0203222913669
3352.8492024761035 -229.58461396155818 -397.65221601750534
3237.4242429713736 -220.51558320795795 -381.9441939768651
3315.2025724680184 -221.6536461303992 -383.91537678074366
3391.11259674851 -224.5462292207833 -388.9254776584035
3465.121648202491 -228.20510890326264 -395.2628431672392
3532.639305735254 -229.4705546992793 -397.4546595801645
3790.614347641929 -245.06469161054702 -424.46449701066535
3825.494528233701 -245.1856384157006 -424.67398302220454
3825.8970639077697 -243.13987008993163 -421.13060834145745
3796.032754922755 -241.2606631574055 -417.87572645638664
3716.1606852236773 -233.5960282218828 -404.600189326594
3548.08806012234 -218.77632736839843 -378.9317144953871
3313.9423315539407 -202.7270922507564 -351.13362384901257
3074.420025778458 -186.87290074338867 -323.67335864532464
2832.1672245336545 -173.05234136152316 -299.7354476069109
2567.7312023338104 -155.97426868841816 -270.1553580417394
2305.0328603347957 -139.1115072709513 -240.9481985107747
2035.8634265110584 -122.63703459798319 -212.41357481328888
1783.5206958865158 -106.91355684319846 -185.17971247032276

VECTORS D float
94.99971767116607 -15.334073126991637 -28.10563943161161
63.22509395157889 -19.077015806566568 -34.44115206310149
14.954000152416727 -6.567262321898983 -11.794107213345676
559.7126721525901 -321.045127859447 -575.0681715469017
547.1404363029856 -385.7587081095955 -689.7182138889509
500.8190405338286 -417.4410216489918 -745.2974353435953
431.5301027372394 -413.80024831638906 -737.8849236885445
362.1441980295429 -391.48447259107235 -697.3579079024861
321.880665177004 -386.11260989203157 -686.9640393478498
338.06972446407474 -444.32522156452535 -789.8589868159369
380.62000290451147 -542.5691941522612 -963.8219694559117
376.19772431867705 -576.7758571483153 -1023.9701310145185
346.89745575976957 -568.0286196066438 -1007.9088569500177
303.62275887950085 -527.8360892643115 -936.1492082020134
283.71210313416765 -520.9886754634477 -923.611159698653
268.78137191843456 -519.0723820721345 -919.8575305791026
236.94566649218768 -479.39904241230823 -849.2501371452139
216.54845737885356 -457.53930414270235 -810.5038876992058
183.504504803294 -403.53677435665895 -714.6664807828721
180.61225259368427 -412.2826202656403 -729.6736940536593
173.77945364211374 -410.5548917350073 -726.4275024874191
173.37029155627695 -422.9537448052037 -748.1783618404354
176.6282802448226 -444.0340879444883 -785.2780733835978
162.57016047437952 -420.3286880032875 -743.1807179256591
168.64198164119858 -447.62479085680695 -791.262723831704
168.70385148927835 -458.912499606661 -811.0359204095045
165.40139175233435 -460.3171976102997 -813.2158695202759
162.78412583679156 -462.81351948717764 -817.439104889813
160.85363309019206 -466.384722793491 -823.5902444506066
159.33998335644495 -470.64989986945807 -830.920947966087
158.34457703663023 -475.8721670425687 -839.9327688958934
157.39702989784774 -480.71214335791154 -848.2615932249921
148.29948203185097 -459.77885747509913 -811.1154263317052
147.505488253945 -463.7541016342975 -817.917255720647
147.36896210539192 -469.38954066888357 -827.6420183936943
147.565743849663 -475.6990961013699 -838.6330733639917
147.0537722366277 -479.3803078043473 -844.9114066361532
155.06637683356416 -510.7803254813292 -900.0341538454553
153.6799405192537 -511.11701921190365 -900.4134340189164
151.1040093146263 -507.0567979363803 -893.0554791300838
148.13091818437488 -501.19795404753637 -882.5416346235841
142.67822595926543 -486.43257573479093 -856.3608969122794
133.64367629383574 -458.82198376624876 -807.5904294460104
123.21283516960287 -425.7172461999302 -749.1797290464864
113.00718618473742 -392.7238308138102 -690.9958964531817
103.56038370641899 -361.7794052722239 -636.4459201066506
92.99861024290442 -326.40319448890284 -574.126793975392
82.73350505181634 -291.5751923592484 -512.7979389859465
72.62708665316276 -256.877623175507 -451.72178583545684
63.1983290056426 -224.21372033456817 -394.2420970080388
94.99971767116607 -15.334073126991637 -28.10563943161161
63.22509395157889 -19.077015806566568 -34.44115206310149
14.954000152416727 -6.567262321898983 -11.794107213345676
559.7126721525901 -321.045127859447 -575.0681715469017
547.1404363029856 -385.7587081095955 -689.7182138889509
500.8190405338286 -417.4410216489918 -745.2974353435953
431.5301027372394 -413.80024831638906 -737.8849236885445
362.1441980295429 -391.48447259107235 -697.3579079024861
321.880665177004 -386.11260989203157 -686.9640393478498
338.06972446407474 -444.32522156452535 -789.8589868159369
380.62000290451147 -542.5691941522612 -963.8219694559117
376.19772431867705 -576.7758571483153 -1023.9701310145185
346.89745575976957 -568.0286196066438 -1007.9088569500177
303.62275887950085 -527.8360892643115 -936.1492082020134
283.71210313416765 -520.9886754634477 -923.611159698653
268.78137191843456 -519.0723820721345 -919.8575305791026
236.94566649218768 -479.39904241230823 -849.2501371452139
216.54845737885356 -457.53930414270235 -810.5038876992058
183.504504803294 -403.53677435665895 -714.6664807828721
180.61225259368427 -412.2826202656403 -729.6736940536593
173.77945364211374 -410.5548917350073 -726.4275024874191
173.37029155627695 -422.9537448052037 -748.1783618404354
176.6282802448226 -444.0340879444883 -785.2780733835978
162.57016047437952 -420.3286880032875 -743.1807179256591
168.64198164119858 -447.62479085680695 -791.262723831704
168.70385148927835 -458.912499606661 -811.0359204095045
165.40139175233435 -460.3171976102997 -813.2158695202759
162.78412583679156 -462.81351948717764 -817.439104889813
160.85363309019206 -466.384722793491 -823.5902444506066
159.33998335644495 -470.64989986945807 -830.920947966087
158.34457703663023 -475.8721670425687 -839.9327688958934
157.39702989784774 -480.71214335791154 -848.2615932249921
148.29948203185097 -459.77885747509913 -811.1154263317052
147.505488253945 -463.7541016342975 -817.917255720647
147.36896210539192 -469.38954066888357 -827.6420183936943
147.565743849663 -475.6990961013699 -838.6330733639917
147.0537722366277 -479.3803078043473 -844.9114066361532
155.06637683356416 -510.7803254813292 -900.0341538454553
153.6799405192537 -511.11701921190365 -900.4134340189164
151.1040093146263 -507.0567979363803 -893.0554791300838
148.13091818437488 -501.19795404753637 -882.5416346235841
142.67822595926543 -486.43257573479093 -856.3608969122794
133.64367629383574 -458.82198376624876 -807.5904294460104
123.21283516960287 -425.7172461999302 -749.1797290464864
113.00718618473742 -392.7238308138102 -690.9958964531817
103.56038370641899 -361.7794052722239 -636.4459201066506
92.99861024290442 -326.40319448890284 -574.126793975392
82.73350505181634 -291.5751923592484 -512.7979389859465
72.62708665316276 -256.877623175507 -451.72178583545684
63.1983290056426 -224.21372033456817 -394.2420970080388

VECTORS L float
24.336552700215076 35.43741690529074 62.92565225764931
80.0656263340051 63.685090772563015 111.70460433204855
131.5149253519956 72.66940872420435 126.28638327149473
765.7146997307503 317.1022341933196 568.2388793883275
806.336894299251 269.7481193072146 488.78197986724655
946.7182319049207 267.8269823672867 486.1583177820766
1092.5998492738029 269.4526749603709 487.8675926866459
1146.0584284559334 251.09581225019983 454.1976153855653
1196.0584621934872 236.3543270981471 427.5750846945742
1385.1238820100316 249.5373961681233 452.4765765335136
1724.714827719978 286.2925360961482 519.9377769087686
1893.5402360200103 292.20489716987083 531.0787699732039
1912.0501230719485 276.18927174877473 502.42827881242147
1875.8856889094923 255.4561045885789 464.373235778813
1973.4935765675252 254.76773908318896 462.50297184948363
2067.361399818105 254.00468114870063 460.7468051342438
2022.737871234675 237.5081746671726 430.28286432371584
2019.3534267198418 227.07993503338417 411.33655132159777
1878.4750311601301 203.16733375480766 367.61642937631194
1987.5822093258776 207.3927083235804 374.79395661169866
2040.3111209746526 205.7997341992221 371.7811665236699
2213.385069843367 216.46203998860744 390.524237756576
2385.876482307419 226.53050244829436 408.55081247578914
2317.2213112031213 214.02045660572284 385.84437912540085
2524.195438941942 227.1901228118641 409.45867902828377
2692.6967122112255 236.71001616648715 426.16992952314183
2775.5319013677217 238.71809237339986 429.3949603381633
2854.0647620059244 240.4173968322918 432.23772104523135
2938.536121229282 242.84160304525017 436.4022033642003
3024.08443739519 245.45733663262848 440.8759869532314
3111.7940452914604 248.38442790146476 445.91244660452645
3195.4521725782556 251.12752939635345 450.60937720748683
3089.1247609395227 239.263274267141 429.17123235483996
3167.697084214073 242.10045550389836 434.0018789399034
3243.743634643118 244.8433114481004 438.71654073529095
3317.5559043528283 247.4939871981072 443.37023019675235
3385.5855334986272 249.90975310506803 447.45674705598867
3635.547970808365 265.71563387078214 475.56965683478995
3671.814587714446 265.931380796203 475.7394509967117
3674.793054593143 263.9169278464487 471.9248707886261
3647.9018367383806 259.937290890131 464.6659081671977
3573.482459264412 252.83654751290806 451.76070758568534
3414.4443838285047 240.0456563978505 428.6587149506234
3190.7294963843383 222.99015394917373 398.04610519747376