# vtk DataFile Version 4.0
[MyVLM domain - lattices] 
ASCII
DATASET UNSTRUCTURED_GRID
POINTS 62 float
0.0 -2.184482308559183 -0.7836343466598593
0.0 -7.146196544478264 1.8042426859086724
0.0 -11.9111027591789 4.203336138794308
0.0 -16.281075038890066 6.756810160944475
0.0 -20.375390990168697 9.258069877597354
0.0 -24.23759311820158 11.631697457480595
0.0 -27.86490773494696 13.882497069206872
0.0 -31.270358346841903 15.987911337934474
0.0 -34.45071464644158 17.953535320281905
0.0 -37.405689563577056 19.77986623636713
0.0 -40.13528349546298 21.46690339819418
0.0 -42.63949614371751 23.014647322575538
0.0 -44.918317487389764 24.4231153663073
0.0 -46.97174753171661 25.69230752031895
0.0 -48.799483351908805 26.822748465736332
0.0 -50.39925254920967 27.81837411266104
0.0 -51.755806315141015 28.705596172132207
0.0 -52.869554382607305 29.483704965941758
0.0 -53.727223415640005 30.17569058637315
0.0 -54.35031558830643 30.74431017546856
0.0 -54.76039323614003 31.15221667255423
-0.8152938918039478 -0.4610912406653798 2.201366544242589
-0.9232602711185554 -5.189705256091267 5.19298500196084
-1.045017403566863 -9.654880636835543 8.111227487853881
-0.8624275731409438 -14.032470371161345 10.651507691587149
-0.7172432011617597 -18.235948025812412 12.963693791758205
-0.5835709082011334 -22.213009009996906 15.138379997087611
-0.458823694439046 -25.96887764748692 17.16651751336692
-0.35706975050238215 -29.4900379770426 19.071516672176667
-0.27205245991127286 -32.77910024198136 20.848856399470996
-0.20240159072431146 -35.83597430485027 22.498692817898046
-0.1506132401889805 -38.66045183983463 24.021386758353405
-0.11426271706148827 -41.252196158654066 25.417521382044967
-0.08424963388989035 -43.610863875677005 26.68769145033323
-0.059335794404298196 -45.7363824284055 27.832022645151365
-0.038970351202568594 -47.629084023415786 28.849939567830724
-0.02333805368457717 -49.29124437010767 29.737500574067575
-0.011931771028020786 -50.7377441355247 30.468931592491966
-0.005641151376299379 -51.968235740768954 31.044834647414785
-0.0026418300562744777 -52.9963392111037 31.441619163079586
-0.0014569859069231085 -53.800466008563205 31.696677584104226
-0.001005086180947595 -54.35893040588329 31.847570691909315
-0.6519578110959388 -3.285383542913423 2.9004578722323875
-0.7381041280070318 -7.948882122804701 5.740027036768393
-0.7152918662654275 -12.406778852757453 8.406043979757735
-0.5923765403635137 -16.682715152497508 10.857560561072237
-0.4878052910110849 -20.744981901974782 13.149498587701924
-0.39089797599006726 -24.5810201032 15.303610882256383
-0.30596004185303555 -28.18900161942218 17.323063870471515
-0.23592082890512064 -31.56606095629442 19.212820734144923
-0.17792026898834412 -34.71270348131419 20.97200615109452
-0.1323805615924845 -37.628781436636835 22.600876045414456
-0.0993284839689258 -40.31409045433082 24.0997843927456
-0.07444213160676699 -42.76837421676255 25.469175148252177
-0.05384453561032071 -44.99147549141924 26.709320646635007
-0.036864804602575046 -46.98345377988616 27.820117828125195
-0.023365651832679663 -48.744965135211096 28.800430375511535
-0.013226184267224234 -50.28025304765597 29.64290834805898
-0.006589845901620062 -51.59291254082866 30.34132498222428
-0.0031061180372151964 -52.686312831733154 30.889844622974746
-0.0015370559861990949 -53.55849433286839 31.29186137542414
-0.0009232770329515139 -54.19861225847325 31.566158959507923

CELLS 40 140
4 0 21 22 1
4 1 22 23 2
4 2 23 24 3
4 3 24 25 4
4 4 25 26 5
4 5 26 27 6
4 6 27 28 7
4 7 28 29 8
4 8 29 30 9
4 9 30 31 10
4 10 31 32 11
4 11 32 33 12
4 12 33 34 13
4 13 34 35 14
4 14 35 36 15
4 15 36 37 16
4 16 37 38 17
4 17 38 39 18
4 18 39 40 19
4 19 40 41 20
1 42
1 43
1 44
1 45
1 46
1 47
1 48
1 49
1 50
1 51
1 52
1 53
1 54
1 55
1 56
1 57
1 58
1 59
1 60
1 61

CELL_TYPES 40
9
9
9
9
9
9
9
9
9
9
9
9
9
9
9
9
9
9
9
9
1
1
1
1
1
1
1
1
1
1
1
1
1
1
1
1
1
1
1
1

CELL_DATA 40

VECTORS S float
0.0 -0.0 0.0
-0.0 -0.0 0.0
-3.48675708408084e-18 -4.353878984319923e-14 3.654515063065853e-14
0.0 -0.0 0.0
-2.062024682825212e-17 8.712880852943859e-14 -7.302922271383495e-14
-1.8183599612345008e-17 8.713073271178736e-14 -7.30269276199186e-14
1.723074035886633e-17 -8.713436187941509e-14 7.302259755794624e-14
-2.467629759495886e-17 8.716193113083584e-14 -7.298968573548473e-14
-8.153281373808856e-17 2.615334331479929e-13 -2.1891215210329038e-13
3.091732325232524e-17 -8.719835895773542e-14 7.294616035363413e-14
-3.556707612160918e-17 8.722355489085865e-14 -7.291602895334826e-14
0.0 -0.0 0.0
0.0 -0.0 0.0
4.7767872424902055e-17 -8.72970559266149e-14 7.282800845771421e-14
0.0 -0.0 0.0
2.475563602355864e-17 -4.365881695944922e-14 3.640166694871347e-14
2.4426793117056388e-17 -4.365839160307602e-14 3.6402177321549096e-14
1.147080222050124e-17 -2.1828075870501445e-14 1.8202432231947603e-14
0.0 -0.0 0.0
4.21778267353999e-18 -1.091266727243752e-14 9.102860371771029e-15
0.0 -0.0 0.0
-0.0 -0.0 0.0
-3.48675708408084e-18 -4.353878984319923e-14 3.654515063065853e-14
0.0 -0.0 0.0
-2.062024682825212e-17 8.712880852943859e-14 -7.302922271383495e-14
-1.8183599612345008e-17 8.713073271178736e-14 -7.30269276199186e-14
1.723074035886633e-17 -8.713436187941509e-14 7.302259755794624e-14
-2.467629759495886e-17 8.716193113083584e-14 -7.298968573548473e-14
-8.153281373808856e-17 2.615334331479929e-13 -2.1891215210329038e-13
3.091732325232524e-17 -8.719835895773542e-14 7.294616035363413e-14
-3.556707612160918e-17 8.722355489085865e-14 -7.291602895334826e-14
0.0 -0.0 0.0
0.0 -0.0 0.0
4.7767872424902055e-17 -8.72970559266149e-14 7.282800845771421e-14
0.0 -0.0 0.0
2.475563602355864e-17 -4.365881695944922e-14 3.640166694871347e-14
2.4426793117056388e-17 -4.365839160307602e-14 3.6402177321549096e-14
1.147080222050124e-17 -2.1828075870501445e-14 1.8202432231947603e-14
0.0 -0.0 0.0
4.21778267353999e-18 -1.091266727243752e-14 9.102860371771029e-15

SCALARS Gamma float
LOOKUP_TABLE default
0.0
73.24911119738088
86.6876799731377
102.15281598060712
103.50006014305345
105.6021748005234
106.9930483163168
109.73288109635432
111.21288687575404
104.58819396993418
101.30529902301868
99.19497283847703
96.81136242771252
90.52001995004339
81.98520719749847
71.38759682331893
57.17040577459272
40.23155129339571
23.22256158488143
9.459282216784286
0.0
73.24911119738088
86.6876799731377
102.15281598060712
103.50006014305345
105.6021748005234
106.9930483163168
109.73288109635432
111.21288687575404
104.58819396993418
101.30529902301868
99.19497283847703
96.81136242771252
90.52001995004339
81.98520719749847
71.38759682331893
57.17040577459272
40.23155129339571
23.22256158488143
9.459282216784286

VECTORS Ftot float
156.94235892381764 -49.76380072097202 -59.306188290360666
1616.876170093717 276.0987481513276 329.0416750201083
2202.876476002665 547.6686243799359 652.6860506559168
3195.8578734250514 829.0561756363381 988.0306757770211
3970.8262400931553 853.1772503099864 1016.7770531765749
4770.762355803017 862.0707567887471 1027.3759214733977
5518.389218666958 869.008302458815 1035.6437664494872
6319.310775430441 884.9461858796302 1054.637796274592
7026.909736869959 889.5096056111562 1060.076268134153
7148.848845251444 835.5942233763705 995.8224176597571
7406.478361057745 809.0119724264525 964.1429245909517
7684.178396204732 789.9039188883773 941.370833139468
7881.116714049638 767.1153101075718 914.2124267547189
7685.996147385286 728.4377124123031 868.1182607484692
7216.442579102953 663.4856899495443 790.7114546322166
6477.116914438666 578.8641955047822 689.8634846169805
5317.285793661551 470.6530483705835 560.9024612610588
3819.752188474896 323.931820463022 386.04691079238864
2240.9693665717477 179.77819960358042 214.25131524768568
925.8376143085767 60.72998494096886 72.37517773159183
156.94235892381764 -49.76380072097202 -59.306188290360666
1616.876170093717 276.0987481513276 329.0416750201083
2202.876476002665 547.6686243799359 652.6860506559168
3195.8578734250514 829.0561756363381 988.0306757770211
3970.8262400931553 853.1772503099864 1016.7770531765749
4770.762355803017 862.0707567887471 1027.3759214733977
5518.389218666958 869.008302458815 1035.6437664494872
6319.310775430441 884.9461858796302 1054.637796274592
7026.909736869959 889.5096056111562 1060.076268134153
7148.848845251444 835.5942233763705 995.8224176597571
7406.478361057745 809.0119724264525 964.1429245909517
7684.178396204732 789.9039188883773 941.370833139468
7881.116714049638 767.1153101075718 914.2124267547189
7685.996147385286 728.4377124123031 868.1182607484692
7216.442579102953 663.4856899495443 790.7114546322166
6477.116914438666 578.8641955047822 689.8634846169805
5317.285793661551 470.6530483705835 560.9024612610588
3819.752188474896 323.931820463022 386.04691079238864
2240.9693665717477 179.77819960358042 214.25131524768568
925.8376143085767 60.72998494096886 72.37517773159183

VECTORS D float
95.51059854031517 30.36237421046586 36.026958295990134
928.3549022933157 670.9917574998301 797.9947879638771
923.8526632361884 1024.4550720118816 1220.5930079412901
980.6421823392021 1448.1029884980735 1726.8744393280404
850.9574173847359 1556.587800738144 1856.8743916275732
748.8210612494696 1625.916357002557 1939.7456783149223
666.9796013463285 1668.560603798369 1990.8559237625634
610.7574598666371 1719.7234424372998 2053.4318446599414
560.4128138766398 1744.2959721604134 2083.6943842959104
484.9122953880793 1643.6602721547374 1964.5925917277257
437.42664545409986 1594.0696591975084 1906.643387299903
403.9776410776174 1561.8608929521558 1869.5755767207256
377.73255989845757 1527.1615811463241 1829.1503561560562
348.28297886187113 1449.5986071067493 1737.3680348859866
314.27702643599815 1330.1285585226951 1594.8462438097388
274.43244573806453 1172.3029581760968 1405.8303042657772
222.46523079573458 955.4851231160599 1145.7971097529644
155.68887065328602 671.3454636685437 804.969009268658
88.57208200289453 383.24595002979515 459.4607594806701
33.393887605119474 144.91375844748342 173.70966008430395
95.51059854031517 30.36237421046586 36.026958295990134
928.3549022933157 670.9917574998301 797.9947879638771
923.8526632361884 1024.4550720118816 1220.5930079412901
980.6421823392021 1448.1029884980735 1726.8744393280404
850.9574173847359 1556.587800738144 1856.8743916275732
748.8210612494696 1625.916357002557 1939.7456783149223
666.9796013463285 1668.560603798369 1990.8559237625634
610.7574598666371 1719.7234424372998 2053.4318446599414
560.4128138766398 1744.2959721604134 2083.6943842959104
484.9122953880793 1643.6602721547374 1964.5925917277257
437.42664545409986 1594.0696591975084 1906.643387299903
403.9776410776174 1561.8608929521558 1869.5755767207256
377.73255989845757 1527.1615811463241 1829.1503561560562
348.28297886187113 1449.5986071067493 1737.3680348859866
314.27702643599815 1330.1285585226951 1594.8462438097388
274.43244573806453 1172.3029581760968 1405.8303042657772
222.46523079573458 955.4851231160599 1145.7971097529644
155.68887065328602 671.3454636685437 804.969009268658
88.57208200289453 383.24595002979515 459.4607594806701
33.393887605119474 144.91375844748342 173.70966008430395

VECTORS L float
61.431760383502436 -80.12617493143789 -95.33314658635081
688.5212678004012 -394.8930093485024 -468.9531129437688
1279.0238127664768 -476.78644763194575 -567.9069572853733
2215.21569108585 -619.0468128617352 -738.8437635510192
3119.86882270842 -703.4105504281572 -840.0973384509982
4021.9412945535487 -763.8456002138098 -912.3697568415247
4851.40961732063 -799.5523013395542 -955.2121573130764
5708.553315563804 -834.7772565576691 -998.7940483853492
6466.496922993319 -854.7863665492573 -1023.6181161617579
6663.936549863365 -808.0660487783663 -968.7701740679679
6969.051715603647 -785.0576867710561 -942.5004627089514
7280.200755127115 -771.9569740637786 -928.2047435812581
7503.384154151182 -760.0462710387523 -914.9379294013369
7337.713168523416 -721.1608946944467 -869.2497741375178
6902.165552666955 -666.6428685731513 -804.1347891775226
6202.6844687006005 -593.4387626713147 -715.9668196487964
5094.820562865817 -484.8320747454767 -584.894648491906
3664.0633178216103 -347.41364320552174 -418.9220984762693
2152.397284568854 -203.46775042621476 -245.2094442329846
892.4437267034573 -84.18377350651454 -101.33448235271207
61.431760383502436 -80.12617493143789 -95.33314658635081
688.5212678004012 -394.8930093485024 -468.9531129437688
1279.0238127664768 -476.78644763194575 -567.9069572853733
2215.21569108585 -619.0468128617352 -738.8437635510192
3119.86882270842 -703.4105504281572 -840.0973384509982
4021.9412945535487 -763.8456002138098 -912.3697568415247
4851.40961732063 -799.5523013395542 -955.2121573130764
5708.553315563804 -834.7772565576691 -998.7940483853492
6466.496922993319 -854.7863665492573 -1023.6181161617579
6663.936549863365 -808.0660487783663 -968.7701740679679
6969.051715603647 -785.0576867710561 -942.5004627089514
7280.200755127115 -771.9569740637786 -928.2047435812581
7503.384154151182 -760.0462710387523 -914.9379294013369
7337.713168523416 -721.1608946944467 -869.2497741375178
6902.165552666955 -666.6428685731513 -804.1347891775226
6202.6844687006005 -593.4387626713147 -715.9668196487964
5094.820562865817 -484.8320747454767 -584.894648491906
3664.0633178216103 -347.41364320552174 -418.9220984762693
2152.397284568854 -203.46775042621476 -245.2094442329846
892.4437267034573 -84.18377350651454 -101.33448235271207

SCALARS mu float
LOOKUP_TABLE default
-3.0983965414176913
-8.561950140844244
-2.930161941449574
-0.6144612400713569
-0.3712099949623448
-0.36323898266610466
-0.3205708711822308
-0.3066012881106599
-0.30571157303830965
-0.24757682902418998
-0.20868861306837508
-0.21162899350784775
-0.2636301334592991
-0.2383662676460072
-0.2917375136083763
-0.35635890990144486
-0.33023502095557283
-0.39657152514911986
-0.40999644864111773
-0.44399595888000803
-3.0983965414176913
-8.561950140844244
-2.930161941449574
-0.6144612400713569
-0.3712099949623448
-0.36323898266610466
-0.3205708711822308
-0.3066012881106599
-0.30571157303830965
-0.24757682902418998
-0.20868861306837508
-0.21162899350784775
-0.2636301334592991
-0.2383662676460072
-0.2917375136083763
-0.35635890990144486
-0.33023502095557283
-0.39657152514911986
-0.40999644864111773
-0.44399595888000803