# vtk DataFile Version 4.0
[MyVLM domain - lattices] 
ASCII
DATASET UNSTRUCTURED_GRID
POINTS 152 float
0.0 -2.2873604333828017 -0.392384273751198
0.0 -4.03536289322922 1.0035917094784006
0.0 -5.792392198242135 2.3249069017315733
0.0 -7.522719304763243 3.6141415191480624
0.0 -9.2260243178253 4.871676797704331
0.0 -10.878994343947303 6.125295961960125
0.0 -12.461727388093015 7.398717285999684
0.0 -13.969180588013348 8.697950619025306
0.0 -15.432468128389791 9.985915519662198
0.0 -16.864177496938787 11.247610804202543
0.0 -18.264191090025346 12.483176627200844
0.0 -19.632254077273107 13.692916683673635
0.0 -20.96810287175347 14.877145104290026
0.0 -22.269605953526263 16.038402135596428
0.0 -23.538176562073225 17.17500354436325
0.0 -24.776909873820145 18.28326064296537
0.0 -25.986265773029498 19.36262536268079
0.0 -27.165492145295033 20.413994038555227
0.0 -28.314047047803964 21.438012532882755
0.0 -29.431930318588176 22.4346810386895
0.0 -30.51914180000506 23.40399974384659
0.0 -31.575681338737585 24.345968831070145
0.0 -32.60154878579428 25.260588477921278
0.0 -33.59674399650924 26.147858856806128
0.0 -34.561266830542095 27.007780134975803
0.0 -35.49511715187806 27.840352474526426
0.0 -36.3982948288279 28.64557603239912
0.0 -37.27079973402793 29.423450960380016
0.0 -38.112631935379554 30.173977177547393
0.0 -38.923793936826875 30.89715169981682
0.0 -39.704286140798075 31.592974047593092
0.0 -40.45410803899289 32.261444826644876
0.0 -41.17325914308794 32.902564618933305
0.0 -41.861738984736704 33.516333982612046
0.0 -42.51954711556951 34.102753452027244
0.0 -43.14668310719357 34.661823537717545
0.0 -43.74287947427085 35.19386301629554
0.0 -44.30728785562909 35.69988292523606
0.0 -44.83860996410907 36.18143050292536
0.0 -45.33616848907079 36.63931293675193
0.0 -45.80035095915687 37.07306838806371
0.0 -46.23095585096836 37.482937023095396
0.0 -46.62034534271976 37.878021243399424
0.0 -46.96869059339973 38.25811706963617
0.0 -47.28175651456084 38.61635414775187
0.0 -47.56347448126461 38.94804724739312
0.0 -47.8148470074067 39.252001619023154
0.0 -48.03493468512284 39.52933680533911
0.0 -48.2245773545785 39.779051923806605
0.0 -48.38542975468892 39.99917493337858
0.0 -48.518924346007616 40.18799869404415
-0.8152906147965383 -0.07181396823779895 2.248001185644762
-0.840508508576773 -1.7515086461423635 3.7253832134057068
-0.8937965186568912 -3.363043944015295 5.220091411368882
-0.9506477078523391 -4.937805845749753 6.694721420472514
-1.020681877210228 -6.476442082890788 8.148501304320751
-1.048954977401727 -7.998837013061945 9.5577338082793
-0.9930987765444168 -9.518992968473146 10.9057316026323
-0.9074282632528687 -11.049364217873652 12.177652267854677
-0.838943182597301 -12.563726866249883 13.40474822504068
-0.780438039247949 -14.04959225775908 14.601902874657593
-0.7250391551380654 -15.5043943021856 15.772174363938822
-0.6716005320170477 -16.928327091280025 16.91533138334332
-0.6190912009117757 -18.321857928970445 18.03081702173596
-0.5668551203523576 -19.68725562254715 19.115927419877632
-0.5160737545272154 -21.023181516462333 20.172257925326672
-0.46824322159258064 -22.326421057806108 21.20363949306203
-0.4244759216876314 -23.596514596337872 22.21061991290928
-0.3845740908079094 -24.834209914689488 23.192308012230423
-0.34771109645469384 -26.039990224658744 24.148127921629445
-0.3130568676883623 -27.213775680554043 25.078174797496185
-0.28047282351476527 -28.355539605635496 25.982480431931243
-0.25028172479700606 -29.4652802860016 26.86104686748286
-0.22269967179244904 -30.54298537807018 27.713888814659455
-0.19756508903558764 -31.58862396203782 28.541043122247846
-0.17527331282135344 -32.602188947024594 29.34251824082965
-0.15618952887338375 -33.58366777955292 30.118329131056868
-0.13996799493970205 -34.533023842180505 30.86851943189791
-0.12575834684109707 -35.450212772670184 31.593142012208297
-0.11252036551224441 -36.335195393637555 32.292243561776644
-0.10008619772204906 -37.18796538291217 32.96583161507228
-0.0884564051429673 -38.00851988887448 33.61390957052306
-0.07764813403823374 -38.796855585653944 34.23648139174713
-0.06766754153321136 -39.55296877589248 34.833551485084286
-0.05846867713071129 -40.276854918975225 35.40512526182861
-0.05000632361003568 -40.96850987322657 35.95120765783685
-0.0422455662862189 -41.62792998859021 36.47180302307676
-0.03513713503927796 -42.255308382716386 36.96668120889486
-0.028610254341892315 -42.85126852364186 37.43509919501846
-0.02259956362415257 -43.417740565769016 37.87475671300429
-0.017476911002663225 -43.95572380013078 38.284462854173796
-0.013355710955940858 -44.4634109562052 38.66637143966428
-0.010110762084772787 -44.94085236281662 39.020422489918545
-0.007505342360435571 -45.397377449526324 39.335497623740075
-0.005475063785670375 -45.833068436391194 39.611498855080676
-0.003985447751437076 -46.24089972989294 39.8567989602559
-0.0029419419370193198 -46.6162517145751 40.07690338258238
-0.00222865752783443 -46.95838663605576 40.27269134349521
-0.0017402354220029323 -47.26920167748658 40.44190186815761
-0.0014049497009942318 -47.54805989106491 40.585294041401646
-0.0011720086804816246 -47.79312969627775 40.70505065588385
-0.0010052173229800666 -48.00282557016707 40.803061264285596
-0.6209246712649916 -1.4740863962190636 2.316420079109826
-0.6503643852126241 -3.1464266077430416 3.7706153106917166
-0.6916665849409614 -4.777207609037566 5.210435864550478
-0.7392485943984627 -6.37393592606377 6.626935811404023
-0.7761138204794831 -7.9413569937038515 8.014459762183076
-0.765770157729804 -9.486776459580701 9.364301185086827
-0.7126976399239822 -11.016997441893345 10.66835243956074
-0.6548892921938138 -12.530115246096718 11.928883452171696
-0.6072679581919687 -14.017075374669435 13.156684952869943
-0.5645539478947554 -15.473791033349773 14.35662739339908
-0.5237398826831674 -16.89932616846192 15.529826319090112
-0.4840093998483088 -18.29386400122225 16.676063375400187
-0.44472987047405005 -19.658131184979062 17.7944725705909
-0.40609832807983987 -20.992386741578493 18.88474521444658
-0.3691188660449235 -22.29548676983734 19.94824455531184
-0.33476967873007946 -23.5664978261602 20.98608302794501
-0.3033937546858278 -24.805491431425825 21.99817539708189
-0.27460694522347623 -26.01276745139296 22.9841642966272
-0.24778798655364606 -27.188409385253816 23.943950216118644
-0.22257363420117282 -28.33237724714523 24.877580808852297
-0.19903295561691423 -29.444660351706737 25.785068809144875
-0.17736802372104568 -30.525253389593402 26.666420544427297
-0.15759928531051376 -31.574140100328435 27.521655393181163
-0.1398144006963529 -32.591306194279824 28.350790385126803
-0.12429856563552642 -33.57674427026909 29.153834340645222
-0.11105907142990716 -34.53043585573828 29.930809274473738
-0.09964737816779967 -35.452350550925985 30.68175141563722
-0.08935451713250306 -36.342457021041334 31.406698107485276
-0.07972746121286005 -37.20073852523195 32.10566930098887
-0.07070347607438114 -38.02719198662311 32.77866866302449
-0.062289202192950394 -38.82181507542203 33.425698970131066
-0.054493378339291916 -39.58460503334001 34.04676350950905
-0.047301081998971 -40.31555865155347 34.6418661052855
-0.040678125277780114 -41.01467255961395 35.21101077420445
-0.03459445871109547 -41.68194372602668 35.754201129060704
-0.029018512997061326 -42.31740971192302 36.27139240624099
-0.023905271017938854 -42.921237256121834 36.762385894158946
-0.01920368173726683 -43.49411563599635 37.22636014402871
-0.015028677985055923 -44.0368964438599 37.662300267651446
-0.01156223323447653 -44.54924046465445 38.07061052579123
-0.008799927390267616 -45.030512095898835 38.45204839998845
-0.006606039166953134 -45.48324882883962 38.803589825933834
-0.00486765230478973 -45.910046699234 39.12214096868723
-0.003547691826415294 -46.30904395085162 39.40992058292473
-0.0025977711331711486 -46.677085666153694 39.670688552957486
-0.001938974799320156 -47.01277956757048 39.906104130581134
-0.0014883348561890108 -47.31656832914457 40.11563975741509
-0.0011794444211239365 -47.588912093169476 40.298747057227935
-0.0009663593930534462 -47.82919698391193 40.45615761863021
-0.0008164597512981341 -48.03652748750387 40.58893867349138

CELLS 100 350
4 0 51 52 1
4 1 52 53 2
4 2 53 54 3
4 3 54 55 4
4 4 55 56 5
4 5 56 57 6
4 6 57 58 7
4 7 58 59 8
4 8 59 60 9
4 9 60 61 10
4 10 61 62 11
4 11 62 63 12
4 12 63 64 13
4 13 64 65 14
4 14 65 66 15
4 15 66 67 16
4 16 67 68 17
4 17 68 69 18
4 18 69 70 19
4 19 70 71 20
4 20 71 72 21
4 21 72 73 22
4 22 73 74 23
4 23 74 75 24
4 24 75 76 25
4 25 76 77 26
4 26 77 78 27
4 27 78 79 28
4 28 79 80 29
4 29 80 81 30
4 30 81 82 31
4 31 82 83 32
4 32 83 84 33
4 33 84 85 34
4 34 85 86 35
4 35 86 87 36
4 36 87 88 37
4 37 88 89 38
4 38 89 90 39
4 39 90 91 40
4 40 91 92 41
4 41 92 93 42
4 42 93 94 43
4 43 94 95 44
4 44 95 96 45
4 45 96 97 46
4 46 97 98 47
4 47 98 99 48
4 48 99 100 49
4 49 100 101 50
1 102
1 103
1 104
1 105
1 106
1 107
1 108
1 109
1 110
1 111
1 112
1 113
1 114
1 115
1 116
1 117
1 118
1 119
1 120
1 121
1 122
1 123
1 124
1 125
1 126
1 127
1 128
1 129
1 130
1 131
1 132
1 133
1 134
1 135
1 136
1 137
1 138
1 139
1 140
1 141
1 142
1 143
1 144
1 145
1 146
1 147
1 148
1 149
1 150
1 151

CELL_TYPES 100
9
9
9
9
9
9
9
9
9
9
9
9
9
9
9
9
9
9
9
9
9
9
9
9
9
9
9
9
9
9
9
9
9
9
9
9
9
9
9
9
9
9
9
9
9
9
9
9
9
9
1
1
1
1
1
1
1
1
1
1
1
1
1
1
1
1
1
1
1
1
1
1
1
1
1
1
1
1
1
1
1
1
1
1
1
1
1
1
1
1
1
1
1
1
1
1
1
1
1
1

CELL_DATA 100

VECTORS S float
-0.0 -0.0 0.0
-3.9873306707367826e-17 -4.611926396847965e-15 5.4051496707874725e-15
-5.862519477603421e-17 -4.6124469298311175e-15 5.404534609027286e-15
-4.430776892608612e-17 9.342554641583282e-15 -1.0708085791924833e-14
-4.348725561194015e-16 3.747676043625483e-14 -4.273730900336102e-14
0.0 -0.0 0.0
0.0 -0.0 0.0
0.0 -0.0 0.0
4.0472863652351476e-16 -3.7394265687671e-14 4.2809804440056874e-14
0.0 -0.0 0.0
-6.605147482946223e-16 7.475229618464491e-14 -8.565252481118969e-14
3.024151848420773e-16 -3.7371035025427315e-14 4.283092987514427e-14
-5.659712008239955e-16 7.474629748994243e-14 -8.565843659141766e-14
2.6818531673792835e-16 -3.737751425639568e-14 4.282550376159152e-14
-2.511162574071376e-16 3.73825244422955e-14 -4.2821233923507035e-14
4.82799649751193e-16 -7.477919552967559e-14 8.563022767442468e-14
2.2994360581772235e-16 -3.7396869628883845e-14 4.280882544153335e-14
0.0 -0.0 0.0
0.0 -0.0 0.0
0.0 -0.0 0.0
2.0351659321328598e-16 -3.7449968684909896e-14 4.2762515060281697e-14
-3.982759725803895e-16 7.491993383657297e-14 -8.550755499553388e-14
3.936349053551499e-16 -7.493812738003474e-14 8.549163226583075e-14
-1.8955017771213127e-16 3.747643128099266e-14 -4.273938975882118e-14
-1.8638682236124327e-16 3.7487461087995404e-14 -4.272972956752412e-14
0.0 -0.0 0.0
1.8053195286881514e-16 -3.750631549687131e-14 4.2713206082526847e-14
-1.7813816921227153e-16 3.751552887476504e-14 -4.270512414013808e-14
3.52220254166589e-16 -7.5049085409113e-14 8.539442482556618e-14
0.0 -0.0 0.0
0.0 -0.0 0.0
0.0 -0.0 0.0
0.0 -0.0 0.0
0.0 -0.0 0.0
-1.7209871523888065e-16 3.756776631436624e-14 -4.265920280509994e-14
0.0 -0.0 0.0
-5.173760270128855e-16 1.1270001125905848e-13 -1.2798049927360864e-13
0.0 -0.0 0.0
-1.6994814218485492e-16 3.755785451306944e-14 -4.26679381947305e-14
0.0 -0.0 0.0
3.3543001174395557e-16 -7.509166362766601e-14 8.535705367149069e-14
0.0 -0.0 0.0
1.6560047708350028e-16 -3.753157122976811e-14 4.2691076412900363e-14
0.0 -0.0 0.0
1.608758807369448e-16 -3.7514863353014357e-14 4.2705777294657937e-14
0.0 -0.0 0.0
0.0 -0.0 0.0
0.0 -0.0 0.0
-3.342871062061942e-17 9.3708239899551e-15 -1.0683395153562711e-14
-6.17095087650119e-18 2.3421324651046156e-15 -2.6713576920368504e-15
-0.0 -0.0 0.0
-3.9873306707367826e-17 -4.611926396847965e-15 5.4051496707874725e-15
-5.862519477603421e-17 -4.6124469298311175e-15 5.404534609027286e-15
-4.430776892608612e-17 9.342554641583282e-15 -1.0708085791924833e-14
-4.348725561194015e-16 3.747676043625483e-14 -4.273730900336102e-14
0.0 -0.0 0.0
0.0 -0.0 0.0
0.0 -0.0 0.0
4.0472863652351476e-16 -3.7394265687671e-14 4.2809804440056874e-14
0.0 -0.0 0.0
-6.605147482946223e-16 7.475229618464491e-14 -8.565252481118969e-14
3.024151848420773e-16 -3.7371035025427315e-14 4.283092987514427e-14
-5.659712008239955e-16 7.474629748994243e-14 -8.565843659141766e-14
2.6818531673792835e-16 -3.737751425639568e-14 4.282550376159152e-14
-2.511162574071376e-16 3.73825244422955e-14 -4.2821233923507035e-14
4.82799649751193e-16 -7.477919552967559e-14 8.563022767442468e-14
2.2994360581772235e-16 -3.7396869628883845e-14 4.280882544153335e-14
0.0 -0.0 0.0
0.0 -0.0 0.0
0.0 -0.0 0.0
2.0351659321328598e-16 -3.7449968684909896e-14 4.2762515060281697e-14
-3.982759725803895e-16 7.491993383657297e-14 -8.550755499553388e-14
3.936349053551499e-16 -7.493812738003474e-14 8.549163226583075e-14
-1.8955017771213127e-16 3.747643128099266e-14 -4.273938975882118e-14
-1.8638682236124327e-16 3.7487461087995404e-14 -4.272972956752412e-14
0.0 -0.0 0.0
1.8053195286881514e-16 -3.750631549687131e-14 4.2713206082526847e-14
-1.7813816921227153e-16 3.751552887476504e-14 -4.270512414013808e-14
3.52220254166589e-16 -7.5049085409113e-14 8.539442482556618e-14
0.0 -0.0 0.0
0.0 -0.0 0.0
0.0 -0.0 0.0
0.0 -0.0 0.0
0.0 -0.0 0.0
-1.7209871523888065e-16 3.756776631436624e-14 -4.265920280509994e-14
0.0 -0.0 0.0
-5.173760270128855e-16 1.1270001125905848e-13 -1.2798049927360864e-13
0.0 -0.0 0.0
-1.6994814218485492e-16 3.755785451306944e-14 -4.26679381947305e-14
0.0 -0.0 0.0
3.3543001174395557e-16 -7.509166362766601e-14 8.535705367149069e-14
0.0 -0.0 0.0
1.6560047708350028e-16 -3.753157122976811e-14 4.2691076412900363e-14
0.0 -0.0 0.0
1.608758807369448e-16 -3.7514863353014357e-14 4.2705777294657937e-14
0.0 -0.0 0.0
0.0 -0.0 0.0
0.0 -0.0 0.0
-3.342871062061942e-17 9.3708239899551e-15 -1.0683395153562711e-14
-6.17095087650119e-18 2.3421324651046156e-15 -2.6713576920368504e-15

SCALARS Gamma float
LOOKUP_TABLE default
0.0
0.0
0.0
35.18095384160898
66.14365689779164
78.49713834173491
86.24270502296902
88.47962431469428
87.93252786542608
85.68216854728354
84.77157737366217
84.8570655690729
87.39369164389988
89.32466088337691
89.89679088807291
91.23560153647506
92.55914810218084
95.0464964615056
96.14379189006534
96.69913719771914
97.86363637017585
100.73283499850292
97.87887669731587
94.65112640852993
93.22247000811988
92.14777665276627
92.40404353298574
92.23687073461532
91.77807443986148
90.7457985400879
91.6239137243576
91.0087490740692
88.78442552911784
86.90820446749892
85.85053212980445
83.85614432779383
80.86988633261933
77.77229103841557
73.92761029747761
69.38304649888472
64.33037681311015
58.620470177004556
50.73335815367026
43.22887882131693
36.563889693020045
29.56357993102493
23.164998550276525
16.992383643311463
11.265744686964178
5.567869760542822
0.0
0.0
0.0
35.18095384160898
66.14365689779164
78.49713834173491
86.24270502296902
88.47962431469428
87.93252786542608
85.68216854728354
84.77157737366217
84.8570655690729
87.39369164389988
89.32466088337691
89.89679088807291
91.23560153647506
92.55914810218084
95.0464964615056
96.14379189006534
96.69913719771914
97.86363637017585
100.73283499850292
97.87887669731587
94.65112640852993
93.22247000811988
92.14777665276627
92.40404353298574
92.23687073461532
91.77807443986148
90.7457985400879
91.6239137243576
91.0087490740692
88.78442552911784
86.90820446749892
85.85053212980445
83.85614432779383
80.86988633261933
77.77229103841557
73.92761029747761
69.38304649888472
64.33037681311015
58.620470177004556
50.73335815367026
43.22887882131693
36.563889693020045
29.56357993102493
23.164998550276525
16.992383643311463
11.265744686964178
5.567869760542822

VECTORS Ftot float
92.32320453364296 -26.017771680761495 -21.831502621381656
112.86239255883073 -58.85125665701003 -49.38206775521656
117.39857887743483 -88.80213316065945 -74.51383718286506
709.9825331395106 88.01736791544205 73.8553409550424
1319.5619916971625 355.12174038144224 297.98252137710193
1710.008462520509 529.9346227796754 444.66794652249655
2081.264014818373 670.8175916883271 562.8827937729066
2385.364691540665 719.4681775306833 603.7054824097862
2629.1735368341 722.613198355654 606.344468224064
2812.5825828250368 704.1153987601405 590.8229714058774
3026.873184354361 693.8876200841726 582.2408460911098
3269.1650418564786 690.5790869890621 579.4646571912648
3606.5654389115048 711.1407608481932 596.7179501428492
3924.6988983637816 729.5925763002525 612.2008616832234
4188.047388356155 724.6800806822181 608.0787884219708
4482.1330552863365 739.3385490233086 620.3787038006036
4779.094242154292 744.5272155874965 624.7325120009156
5137.215687034996 765.004633653411 641.9151059474874
5424.755368303329 769.5945389802464 645.7664938143736
5678.894569926932 772.6429131659108 648.324383469255
5967.388640067011 774.55043597217 649.9249851524494
6360.255406236888 798.9516498563405 670.4000347229347
6384.084974382382 784.7896454104006 658.5167020156156
6368.904913884507 748.0532184286956 627.6911796844958
6456.166956593405 736.9095862944021 618.3405620706347
6555.622886553678 739.1573149163268 620.2266303282785
6746.419821720099 731.1994655760087 613.5492018818533
6898.39354537035 730.7400219124189 613.1636828731882
7021.448305790498 728.5265461620172 611.3063561874063
7091.90009531311 723.656602776585 607.219988488836
7305.797568565376 734.3488251172238 616.1918283113314
7393.067019898836 743.2569802485212 623.6666579964731
7341.231250538869 730.1358626577453 612.6567330654193
7306.402293690374 721.3088613966087 605.2499995627982
7332.140551616449 711.9273022224552 597.3779367198981
7266.934755595665 703.2137258055261 590.066377962218
7103.313108605414 691.8949139060475 580.5687670720004
6918.905856817144 672.3030354281057 564.1292290670893
6655.843322564397 644.4542352436267 540.7613111035632
6315.89026273887 612.3382270174698 513.8127804461085
5916.480281930176 572.1530260354458 480.09339312330724
5441.9951168609705 529.8849607170832 444.6262751040921
4751.433027759839 460.27340546430275 386.2152447658071
4081.4201134542986 393.18410725506266 329.9206393824912
3477.670174569511 332.928361377883 279.3600652406378
2831.9344362188012 261.99479027627444 219.8397318911907
2232.762314780316 202.49142615074607 169.91048099965246
1647.1527400553198 144.61880778059674 121.34958826999669
1098.0422783328481 90.32220800685451 75.78933142566919
546.7824880308118 33.541366019029525 28.14454785574983
92.32320453364296 -26.017771680761495 -21.831502621381656
112.86239255883073 -58.85125665701003 -49.38206775521656
117.39857887743483 -88.80213316065945 -74.51383718286506
709.9825331395106 88.01736791544205 73.8553409550424
1319.5619916971625 355.12174038144224 297.98252137710193
1710.008462520509 529.9346227796754 444.66794652249655
2081.264014818373 670.8175916883271 562.8827937729066
2385.364691540665 719.4681775306833 603.7054824097862
2629.1735368341 722.613198355654 606.344468224064
2812.5825828250368 704.1153987601405 590.8229714058774
3026.873184354361 693.8876200841726 582.2408460911098
3269.1650418564786 690.5790869890621 579.4646571912648
3606.5654389115048 711.1407608481932 596.7179501428492
3924.6988983637816 729.5925763002525 612.2008616832234
4188.047388356155 724.6800806822181 608.0787884219708
4482.1330552863365 739.3385490233086 620.3787038006036
4779.094242154292 744.5272155874965 624.7325120009156
5137.215687034996 765.004633653411 641.9151059474874
5424.755368303329 769.5945389802464 645.7664938143736
5678.894569926932 772.6429131659108 648.324383469255
5967.388640067011 774.55043597217 649.9249851524494
6360.255406236888 798.9516498563405 670.4000347229347
6384.084974382382 784.7896454104006 658.5167020156156
6368.904913884507 748.0532184286956 627.6911796844958
6456.166956593405 736.9095862944021 618.3405620706347
6555.622886553678 739.1573149163268 620.2266303282785
6746.419821720099 731.1994655760087 613.5492018818533
6898.39354537035 730.7400219124189 613.1636828731882
7021.448305790498 728.5265461620172 611.3063561874063
7091.90009531311 723.656602776585 607.219988488836
7305.797568565376 734.3488251172238 616.1918283113314
7393.067019898836 743.2569802485212 623.6666579964731
7341.231250538869 730.1358626577453 612.6567330654193
7306.402293690374 721.3088613966087 605.2499995627982
7332.140551616449 711.9273022224552 597.3779367198981
7266.934755595665 703.2137258055261 590.066377962218
7103.313108605414 691.8949139060475 580.5687670720004
6918.905856817144 672.3030354281057 564.1292290670893
6655.843322564397 644.4542352436267 540.7613111035632
6315.89026273887 612.3382270174698 513.8127804461085
5916.480281930176 572.1530260354458 480.09339312330724
5441.9951168609705 529.8849607170832 444.6262751040921
4751.433027759839 460.27340546430275 386.2152447658071
4081.4201134542986 393.18410725506266 329.9206393824912
3477.670174569511 332.928361377883 279.3600652406378
2831.9344362188012 261.99479027627444 219.8397318911907
2232.762314780316 202.49142615074607 169.91048099965246
1647.1527400553198 144.61880778059674 121.34958826999669
1098.0422783328481 90.32220800685451 75.78933142566919
546.7824880308118 33.541366019029525 28.14454785574983

VECTORS D float
70.31070209748285 19.549096201076065 16.942408070037366
41.38659099954728 21.282143672715993 18.464225137297085
1.4846953282098225 1.1072977047970813 0.9611174370173201
322.5985646860493 313.81325194879537 272.45988569915306
585.7356720015365 700.019501515558 607.8937442708037
667.2977664197929 942.8610197757596 818.9064419790982
703.3223650235338 1143.8805914561556 993.6343875210756
675.4475231173076 1239.7921863580448 1077.0822252943256
623.3998579271213 1272.0779755302078 1105.2634936503014
564.2727435240552 1265.0802425602112 1099.3159368271788
521.4849689962169 1269.4660697864604 1103.891045131765
484.8216020183329 1280.288455008644 1113.6598579446038
469.8765921027269 1330.501253894553 1157.9023603754367
454.18827076825454 1371.7518023005143 1194.4019667865405
430.2149851362598 1379.4656551189096 1201.737312959416
415.6939799236802 1409.13133232178 1228.2229462083285
400.35427892264613 1429.1269774236494 1246.3041394163047
393.2508006097694 1472.0014897219044 1284.2235157798232
380.31795600566664 1488.1728231109082 1299.2925070312237
367.3659723866457 1497.7544324354853 1309.2088924798393
356.5495248755672 1511.0273075471252 1321.6098614733064
354.8987607766929 1558.9198363779324 1364.2399593221066
335.74093454956846 1524.589623160434 1334.8409546894452
313.0552960103772 1466.1121675928232 1284.1856779365714
300.4974624272677 1446.5252921785755 1267.7485297582446
291.7437087939432 1441.855204452274 1264.277348134277
284.1422188057134 1438.6365862338876 1262.060750832488
278.1161300261827 1439.3483063524402 1263.2762680315539
272.1966993100634 1436.549752748481 1261.3923229517163
265.85563277275185 1427.2264159463375 1253.7510236239525
266.15885687733294 1449.2037356736316 1273.815789589913
264.81625577179926 1458.449717553938 1282.3198342691746
258.14836113360724 1434.3537499258437 1261.4334604612307
253.5635946525619 1417.911638439359 1247.1904229191102
250.56442095137484 1407.8562014267573 1238.8157182858452
247.12293801100748 1391.5704569513032 1224.497665085623
242.0955971226972 1364.1933819962026 1200.334081553211
235.72332785433898 1327.6299926169254 1168.0165036464816
227.05130666676268 1276.3497628066611 1122.5846332891256
216.27853934626967 1213.317063202631 1066.8681985109883
203.08610747811016 1136.6679237815547 999.1694950224277
188.1281516786779 1050.424031693585 923.0532197968639
164.40934965313565 916.000561037208 804.6579501554942
141.35066955207273 785.7719392238832 689.9925653752991
120.46141807540279 668.3256379376747 586.6364513860323
96.77999018299809 536.0303143400192 470.3352502754061
75.7734653924973 419.0899918543257 367.59568644325816
55.177164510325326 304.8259948824094 267.2826683217488
35.77799467555628 197.47668698446086 173.10257994187643
15.840206863473801 87.36931712537344 76.56509855068417
70.31070209748285 19.549096201076065 16.942408070037366
41.38659099954728 21.282143672715993 18.464225137297085
1.4846953282098225 1.1072977047970813 0.9611174370173201
322.5985646860493 313.81325194879537 272.45988569915306
585.7356720015365 700.019501515558 607.8937442708037
667.2977664197929 942.8610197757596 818.9064419790982
703.3223650235338 1143.8805914561556 993.6343875210756
675.4475231173076 1239.7921863580448 1077.0822252943256
623.3998579271213 1272.0779755302078 1105.2634936503014
564.2727435240552 1265.0802425602112 1099.3159368271788
521.4849689962169 1269.4660697864604 1103.891045131765
484.8216020183329 1280.288455008644 1113.6598579446038
469.8765921027269 1330.501253894553 1157.9023603754367
454.18827076825454 1371.7518023005143 1194.4019667865405
430.2149851362598 1379.4656551189096 1201.737312959416
415.6939799236802 1409.13133232178 1228.2229462083285
400.35427892264613 1429.1269774236494 1246.3041394163047
393.2508006097694 1472.0014897219044 1284.2235157798232
380.31795600566664 1488.1728231109082 1299.2925070312237
367.3659723866457 1497.7544324354853 1309.2088924798393
356.5495248755672 1511.0273075471252 1321.6098614733064
354.8987607766929 1558.9198363779324 1364.2399593221066
335.74093454956846 1524.589623160434 1334.8409546894452
313.0552960103772 1466.1121675928232 1284.1856779365714
300.4974624272677 1446.5252921785755 1267.7485297582446
291.7437087939432 1441.855204452274 1264.277348134277
284.1422188057134 1438.6365862338876 1262.060750832488
278.1161300261827 1439.3483063524402 1263.2762680315539
272.1966993100634 1436.549752748481 1261.3923229517163
265.85563277275185 1427.2264159463375 1253.7510236239525
266.15885687733294 1449.2037356736316 1273.815789589913
264.81625577179926 1458.449717553938 1282.3198342691746
258.14836113360724 1434.3537499258437 1261.4334604612307
253.5635946525619 1417.911638439359 1247.1904229191102
250.56442095137484 1407.8562014267573 1238.8157182858452
247.12293801100748 1391.5704569513032 1224.497665085623
242.0955971226972 1364.1933819962026 1200.334081553211
235.72332785433898 1327.6299926169254 1168.0165036464816
227.05130666676268 1276.3497628066611 1122.5846332891256
216.27853934626967 1213.317063202631 1066.8681985109883
203.08610747811016 1136.6679237815547 999.1694950224277
188.1281516786779 1050.424031693585 923.0532197968639
164.40934965313565 916.000561037208 804.6579501554942
141.35066955207273 785.7719392238832 689.9925653752991
120.46141807540279 668.3256379376747 586.6364513860323
96.77999018299809 536.0303143400192 470.3352502754061
75.7734653924973 419.0899918543257 367.59568644325816
55.177164510325326 304.8259948824094 267.2826683217488
35.77799467555628 197.47668698446086 173.10257994187643
15.840206863473801 87.36931712537344 76.56509855068417

VECTORS L float
22.012502436160144 -45.56686788183755 -38.77391069141901
71.47580155928347 -80.13340032972604 -67.84629289251367
115.91388354922502 -89.90943086545654 -75.4749546198824
387.38396845346125 -225.7958840333533 -198.60454474411068
733.826319695626 -344.89776113411585 -309.91122289370196
1042.7106961007162 -412.9263969960846 -374.2384954566019
1377.9416497948393 -473.0629997678287 -430.75159374816917
1709.9171684233575 -520.3240088273617 -473.3767428845394
2005.7736789069788 -549.4647771745539 -498.91902542623734
2248.309839300982 -560.9648438000708 -508.49296542130134
2505.3882153581444 -575.5784497022878 -521.6501990406553
2784.343439838146 -589.7093680195815 -534.1952007533387
3136.688846808778 -619.3604930463599 -561.1844102325878
3470.510627595529 -642.1592260002622 -582.2011051033177
3757.8324032198966 -654.7855744366917 -593.6585245374451
4066.439075362657 -669.7927832984712 -607.8442424077249
4378.739963231647 -684.5997618361531 -621.5716274153892
4743.964886425228 -706.9968560684933 -642.3084098323357
5044.437412297662 -718.5782841306618 -653.5260132168504
5311.528597540287 -725.1115192695746 -660.8845090105843
5610.839115191445 -736.4768715749555 -671.684876320857
6005.356645460196 -759.9681865215916 -693.8399245991717
6048.344039832815 -739.7999777500335 -676.3242526738297
6055.84961787413 -718.0589491641277 -656.4944982520757
6155.669494166139 -709.6157058841735 -649.4079676876099
6263.879177759734 -702.6978895359475 -644.0507178059986
6462.277602914386 -707.4371206578793 -648.5115489506351
6620.277415344168 -708.6082844400215 -650.1125851583658
6749.251606480436 -708.0232065864643 -650.0859667643103
6826.044462540358 -703.5698131697523 -646.5310351351162
7039.638711688044 -714.8549105564084 -657.6239612785821
7128.250764127038 -715.1927373054167 -658.6531762727016
7083.082889405262 -704.2178872680988 -648.7767273958119
7052.83869903781 -696.6027770427503 -641.9404233563123
7081.576130665073 -695.9288992043022 -641.4377815659473
7019.811817584658 -688.3567311457774 -634.4312871234052
6861.217511482717 -672.2984680901546 -619.7653144812103
6683.182528962805 -655.3269571888198 -603.8872745793924
6428.792015897636 -631.8955275630346 -581.8233221855625
6099.611723392601 -600.9788361851611 -553.0554180648796
5713.394174452064 -564.5148977461088 -519.0761018991202
5253.866965182294 -520.539070976502 -478.4269446927721
4587.023678106703 -455.72715557290536 -418.4427053896872
3940.0694439022263 -392.5878319688205 -360.0719259928079
3357.2087564941075 -335.39727655979175 -307.2763861453943
2735.154446035803 -274.03552406374484 -250.49551838421547
2156.9888493878193 -216.59856570357948 -197.68520544360564
1591.9755755449944 -160.20718710181265 -145.9330800517521
1062.264283657292 -107.15447897760633 -97.31324851620721
530.942281167338 -53.82795110634392 -48.42055069493435
22.012502436160144 -45.56686788183755 -38.77391069141901
71.47580155928347 -80.13340032972604 -67.84629289251367
115.91388354922502 -89.90943086545654 -75.4749546198824
387.38396845346125 -225.7958840333533 -198.60454474411068
733.826319695626 -344.89776113411585 -309.91122289370196
1042.7106961007162 -412.9263969960846 -374.2384954566019
1377.9416497948393 -473.0629997678287 -430.75159374816917
1709.9171684233575 -520.3240088273617 -473.3767428845394
2005.7736789069788 -549.4647771745539 -498.91902542623734