# vtk DataFile Version 4.0
[MyVLM domain - lattices] 
ASCII
DATASET UNSTRUCTURED_GRID
POINTS 152 float
0.0 0.7836190458745953 -2.1844734746466647
0.0 -0.28761148371910683 -4.148328534942429
0.0 -1.283747992299958 -6.108108592047174
0.0 -2.252928090168358 -8.036021383695816
0.0 -3.195582770647761 -9.931818075777041
0.0 -4.143121410157404 -11.777364456360125
0.0 -5.122357894073492 -13.557179521505097
0.0 -6.140086452324665 -15.267340620733721
0.0 -7.154387057290375 -16.93205029327715
0.0 -8.148300632647441 -18.561099866415788
0.0 -9.121985625344662 -20.154397860761087
0.0 -10.075785367419337 -21.7117460534689
0.0 -11.010054988579675 -23.232939410306585
0.0 -11.927666277872415 -24.71631990309496
0.0 -12.826715182894569 -26.16298683700144
0.0 -13.703031583728574 -27.57534783188297
0.0 -14.55599587998371 -28.953760614191943
0.0 -15.386621392658332 -30.29764014277717
0.0 -16.19563827932887 -31.606564860965353
0.0 -16.98304675821442 -32.880534642767635
0.0 -17.748847041706266 -34.119549365559855
0.0 -18.49303933636789 -35.32360891008253
0.0 -19.215623842934953 -36.492713160440864
0.0 -19.916600756315315 -37.62686200410476
0.0 -20.595970265589028 -38.726055331908796
0.0 -21.253732554008323 -39.79029303805225
0.0 -21.889887798997634 -40.819575020099066
0.0 -22.50443617215359 -41.81390117897791
0.0 -23.09737758199288 -42.773271567506676
0.0 -23.66870865496073 -43.69768813340813
0.0 -24.218428848867116 -44.58715118971581
0.0 -24.746538848543125 -45.44166034104233
0.0 -25.25303931190508 -46.2612152075395
0.0 -25.737930869954546 -47.045815424898414
0.0 -26.201214126778332 -47.79546064434938
0.0 -26.64288965954848 -48.51015053266197
0.0 -27.06331785028604 -49.189677023179314
0.0 -27.463641692906403 -49.833380208056674
0.0 -27.845610364967367 -50.440250199160225
0.0 -28.210136404625622 -51.00976014233952
0.0 -28.556697695953385 -51.54221148136603
0.0 -28.885565750691587 -52.037447458863035
0.0 -29.207030978294494 -52.489526904162055
0.0 -29.52086277688051 -52.89858295532149
0.0 -29.819294102126058 -53.26909991747237
0.0 -30.09702822673926 -53.60413585754248
0.0 -30.352714467402368 -53.904470592908915
0.0 -30.587618484907043 -54.169373393972904
0.0 -30.800608765659323 -54.39949754041252
0.0 -30.989455885949663 -54.59613019060662
0.0 -31.15222989689515 -54.760385601062254
-0.8152906147965383 -2.201378631688055 -0.4610842619754664
-0.840508508576773 -3.3646399869329553 -2.371805300307768
-0.8937965186568912 -4.556800041056422 -4.218411110625978
-0.9506477078523391 -5.735572572350639 -6.025315654416118
-1.020681877210228 -6.90008489446572 -7.7930227773772085
-1.048954977401727 -8.023546884847306 -9.536999763977635
-0.9930987765444168 -9.087093252342804 -11.268138495142688
-0.9074282632528687 -10.073944406057983 -12.996126672192045
-0.838943182597301 -11.01943170416729 -14.700565725972847
-0.780438039247949 -11.940381067170705 -16.371741206755075
-0.7250391551380654 -12.840249779063207 -18.007657050693556
-0.6716005320170477 -13.718776340736648 -19.608464234368782
-0.6190912009117757 -14.575331155311872 -21.1745262557084
-0.5668551203523576 -15.406857466995728 -22.707607933492447
-0.5160737545272154 -16.215158841528808 -24.206667978555085
-0.46824322159258064 -17.00456623433064 -25.669205912619
-0.4244759216876314 -17.77569893049511 -27.094864191268528
-0.3845740908079094 -18.52754944520774 -28.484224486132526
-0.34771109645469384 -19.25946674897449 -29.83766266926462
-0.3130568676883623 -19.971558417604673 -31.15511663174234
-0.28047282351476527 -20.663860392572698 -32.436565622745775
-0.25028172479700606 -21.336374983011794 -33.68200830909621
-0.22269967179244904 -21.98911881938526 -34.891435089191205
-0.19756508903558764 -22.622133559831532 -36.064821911693315
-0.17527331282135344 -23.235428757867307 -37.20216326087709
-0.15618952887338375 -23.82902132674716 -38.303449371870464
-0.13996799493970205 -24.402960601017647 -39.36865176135969
-0.12575834684109707 -24.957306349759207 -40.3977359216501
-0.11252036551224441 -25.49211135651907 -41.39067137814649
-0.10008619772204906 -26.007384139134434 -42.347453213073265
-0.0884564051429673 -26.503128539581915 -43.268079208264176
-0.07764813403823374 -26.979349038794762 -44.152546776651214
-0.06766754153321136 -27.436050618210068 -45.000853042200326
-0.05846867713071129 -27.873239395381674 -45.81299447294017
-0.05000632361003568 -28.290920950374026 -46.58896784721901
-0.0422455662862189 -28.6891002008947 -47.32877032579708
-0.03513713503927796 -29.06751696023736 -48.03255212753931
-0.028610254341892315 -29.42533123218842 -48.70079822448574
-0.02259956362415257 -29.759942526756316 -49.33501001023302
-0.017476911002663225 -30.070004502774474 -49.93596479521609
-0.013355710955940858 -30.3579520892302 -50.502256772528675
-0.010110762084772787 -30.623717478281904 -51.03392509104636
-0.007505342360435571 -30.854731163484328 -51.53822675869891
-0.005475063785670375 -31.050882370054474 -52.015225731337104
-0.003985447751437076 -31.22163665453363 -52.45945706734379
-0.0029419419370193198 -31.373218007989287 -52.867327343800724
-0.00222865752783443 -31.50662040421137 -53.23826268967274
-0.0017402354220029323 -31.619287775254215 -53.57373885147631
-0.0014049497009942318 -31.712078278570893 -53.873260371774904
-0.0011720086804816246 -31.787459595911056 -54.1354025338461
-0.0010052173229800666 -31.84756789657738 -54.35893201976795
-0.6209246712649916 -2.0252560367134427 -1.85393383705485
-0.6503643852126241 -3.1669599449984 -3.753385794973855
-0.6916665849409614 -4.3017242403361875 -5.60941378385866
-0.7392485943984627 -5.41943540765815 -7.427856844356604
-0.7761138204794831 -6.513699939843029 -9.212406269525212
-0.765770157729804 -7.574674964475154 -10.968744844403275
-0.7126976399239822 -8.593194665200064 -12.702164455530376
-0.6548892921938138 -9.571825230036357 -14.411183513563193
-0.6072679581919687 -10.522765750493976 -16.088758869734587
-0.5645539478947554 -11.451522349586728 -17.731711562440346
-0.5237398826831674 -12.359356169020444 -19.339313471177125
-0.4840093998483088 -13.24602035551807 -20.911707116750875
-0.44472987047405005 -14.11053589167186 -22.44945773512551
-0.40609832807983987 -14.952553798292573 -23.952766809529876
-0.3691188660449235 -15.773615249275185 -25.420744542800833
-0.33476967873007946 -16.57497786977369 -26.852664844717186
-0.3033937546858278 -17.356545299968822 -28.248583348646534
-0.27460694522347623 -18.117913531816736 -29.608733308741744
-0.24778798655364606 -18.858970067160097 -30.93317967584423
-0.22257363420117282 -19.5797687788066 -32.22189134647398
-0.19903295561691423 -20.280324063103453 -33.474860008896044
-0.17736802372104568 -20.960643073311747 -34.69208153317321
-0.15759928531051376 -21.62074771711258 -35.8735432708999
-0.1398144006963529 -22.260657246875105 -37.0192341067156
-0.12429856563552642 -22.88038163418009 -38.12914828352546
-0.11105907142990716 -23.47994576703755 -39.20327143223022
-0.09964737816779967 -24.05939060293522 -40.24157990601329
-0.08935451713250306 -24.618758359122662 -41.2440493307343
-0.07972746121286005 -25.158071590489264 -42.21066668432176
-0.07070347607438114 -25.677334442497113 -43.14142957339203
-0.062289202192950394 -26.176550054067533 -44.036336185688036
-0.054493378339291916 -26.655722141432836 -44.89538437564205
-0.047301081998971 -27.114855027829357 -45.71857164723242
-0.040678125277780114 -27.553953254249997 -46.505895378715664
-0.03459445871109547 -27.973020905016625 -47.25735321200745
-0.029018512997061326 -28.37200737415384 -47.97297436448131
-0.023905271017938854 -28.750688015058724 -48.652888535913895
-0.01920368173726683 -29.10813416683849 -49.29763188892164
-0.015028677985055923 -29.443198482273164 -49.90786684473088
-0.01156223323447653 -29.75633798457413 -50.48332954086748
-0.008799927390267616 -30.048409018647664 -51.02352556636927
-0.006606039166953134 -30.315992831785596 -51.530428739032615
-0.00486765230478973 -30.555591794473926 -52.00605841619895
-0.003547691826415294 -30.769714244096356 -52.44896640860457
-0.0025977711331711486 -30.962610789554258 -52.85669862605605
-0.001938974799320156 -31.136157241342946 -53.22817206885896
-0.0014883348561890108 -31.289757186338267 -53.56373107629112
-0.0011794444211239365 -31.422790676505212 -53.86373357551739
-0.0009663593930534462 -31.53608478438185 -54.12770205598527
-0.0008164597512981341 -31.63084603253876 -54.35493993156387

CELLS 100 350
4 0 51 52 1
4 1 52 53 2
4 2 53 54 3
4 3 54 55 4
4 4 55 56 5
4 5 56 57 6
4 6 57 58 7
4 7 58 59 8
4 8 59 60 9
4 9 60 61 10
4 10 61 62 11
4 11 62 63 12
4 12 63 64 13
4 13 64 65 14
4 14 65 66 15
4 15 66 67 16
4 16 67 68 17
4 17 68 69 18
4 18 69 70 19
4 19 70 71 20
4 20 71 72 21
4 21 72 73 22
4 22 73 74 23
4 23 74 75 24
4 24 75 76 25
4 25 76 77 26
4 26 77 78 27
4 27 78 79 28
4 28 79 80 29
4 29 80 81 30
4 30 81 82 31
4 31 82 83 32
4 32 83 84 33
4 33 84 85 34
4 34 85 86 35
4 35 86 87 36
4 36 87 88 37
4 37 88 89 38
4 38 89 90 39
4 39 90 91 40
4 40 91 92 41
4 41 92 93 42
4 42 93 94 43
4 43 94 95 44
4 44 95 96 45
4 45 96 97 46
4 46 97 98 47
4 47 98 99 48
4 48 99 100 49
4 49 100 101 50
1 102
1 103
1 104
1 105
1 106
1 107
1 108
1 109
1 110
1 111
1 112
1 113
1 114
1 115
1 116
1 117
1 118
1 119
1 120
1 121
1 122
1 123
1 124
1 125
1 126
1 127
1 128
1 129
1 130
1 131
1 132
1 133
1 134
1 135
1 136
1 137
1 138
1 139
1 140
1 141
1 142
1 143
1 144
1 145
1 146
1 147
1 148
1 149
1 150
1 151

CELL_TYPES 100
9
9
9
9
9
9
9
9
9
9
9
9
9
9
9
9
9
9
9
9
9
9
9
9
9
9
9
9
9
9
9
9
9
9
9
9
9
9
9
9
9
9
9
9
9
9
9
9
9
9
1
1
1
1
1
1
1
1
1
1
1
1
1
1
1
1
1
1
1
1
1
1
1
1
1
1
1
1
1
1
1
1
1
1
1
1
1
1
1
1
1
1
1
1
1
1
1
1
1
1

CELL_DATA 100

VECTORS S float
-1.578176142689605e-17 -2.2484335281770642e-15 -2.750649394036196e-15
-0.0 -0.0 -0.0
-5.574427866324522e-17 -4.520849609195146e-15 -5.481414901335345e-15
0.0 -0.0 -0.0
0.0 -0.0 -0.0
9.316418112303588e-17 -1.7913505369965484e-14 -2.206561154244064e-14
0.0 -0.0 -0.0
8.144178207010853e-17 -1.7944502240245712e-14 -2.2040457652514066e-14
0.0 -0.0 -0.0
0.0 -0.0 -0.0
9.422844716032469e-17 -1.7968141429017316e-14 -2.202113942403738e-14
0.0 -0.0 -0.0
0.0 -0.0 -0.0
8.910893839583751e-17 -1.798935740800995e-14 -2.2003832543225086e-14
0.0 -0.0 -0.0
1.5167390346515228e-16 -3.599809786659168e-14 -4.3991910765498235e-14
0.0 -0.0 -0.0
0.0 -0.0 -0.0
6.380314245030633e-17 -1.8011879954350178e-14 -2.1985487863938976e-14
0.0 -0.0 -0.0
5.69498234947768e-17 -1.8019911542380068e-14 -2.197892426095321e-14
5.315298163984303e-17 -1.8023612882640047e-14 -2.1975898624711363e-14
1.0361497352744327e-16 -3.605336819502877e-14 -4.394676522243945e-14
0.0 -0.0 -0.0
-4.79127412434546e-17 1.8032398494135444e-14 2.1968702188892362e-14
-4.706292808280474e-17 1.8035260566070092e-14 2.196635446179164e-14
4.472918017238082e-17 -1.8038069568308174e-14 -2.196405273385656e-14
1.2831360585150213e-16 -5.412244656735759e-14 -6.588540366195627e-14
-4.112033205253835e-17 1.8043513553995257e-14 2.1959587762328267e-14
0.0 -0.0 -0.0
3.81900487973884e-17 -1.805194863592876e-14 -2.1952659495201913e-14
3.75485989868258e-17 -1.8054626662218952e-14 -2.195045815323504e-14
3.63677067332543e-17 -1.8057354180012544e-14 -2.1948216427623602e-14
-3.606432410632155e-17 1.8059955370141314e-14 2.1946076604699686e-14
-6.897975950192015e-17 3.612536511101667e-14 4.388766916998194e-14
0.0 -0.0 -0.0
0.0 -0.0 -0.0
-3.2886770878130795e-17 1.8070258446809267e-14 2.1937598890310118e-14
0.0 -0.0 -0.0
9.421794314901444e-17 -5.422519070294771e-14 -6.580092642755864e-14
0.0 -0.0 -0.0
-3.013572702052683e-17 1.8079509590040922e-14 2.1929979292463808e-14
2.971661375326756e-17 -1.808065476423027e-14 -2.1929035709896144e-14
2.919046870792189e-17 -1.8082542216011516e-14 -2.1927480061991025e-14
-5.713845464722364e-17 3.616864717584212e-14 4.3852023493240455e-14
0.0 -0.0 -0.0
-2.7830128135269517e-17 1.8087440710373302e-14 2.1923441358030784e-14
1.3745210908541039e-17 -9.044392377721643e-15 -1.096116642167095e-14
0.0 -0.0 -0.0
0.0 -0.0 -0.0
-1.578176142689605e-17 -2.2484335281770642e-15 -2.750649394036196e-15
-0.0 -0.0 -0.0
-5.574427866324522e-17 -4.520849609195146e-15 -5.481414901335345e-15
0.0 -0.0 -0.0
0.0 -0.0 -0.0
9.316418112303588e-17 -1.7913505369965484e-14 -2.206561154244064e-14
0.0 -0.0 -0.0
8.144178207010853e-17 -1.7944502240245712e-14 -2.2040457652514066e-14
0.0 -0.0 -0.0
0.0 -0.0 -0.0
9.422844716032469e-17 -1.7968141429017316e-14 -2.202113942403738e-14
0.0 -0.0 -0.0
0.0 -0.0 -0.0
8.910893839583751e-17 -1.798935740800995e-14 -2.2003832543225086e-14
0.0 -0.0 -0.0
1.5167390346515228e-16 -3.599809786659168e-14 -4.3991910765498235e-14
0.0 -0.0 -0.0
0.0 -0.0 -0.0
6.380314245030633e-17 -1.8011879954350178e-14 -2.1985487863938976e-14
0.0 -0.0 -0.0
5.69498234947768e-17 -1.8019911542380068e-14 -2.197892426095321e-14
5.315298163984303e-17 -1.8023612882640047e-14 -2.1975898624711363e-14
1.0361497352744327e-16 -3.605336819502877e-14 -4.394676522243945e-14
0.0 -0.0 -0.0
-4.79127412434546e-17 1.8032398494135444e-14 2.1968702188892362e-14
-4.706292808280474e-17 1.8035260566070092e-14 2.196635446179164e-14
4.472918017238082e-17 -1.8038069568308174e-14 -2.196405273385656e-14
1.2831360585150213e-16 -5.412244656735759e-14 -6.588540366195627e-14
-4.112033205253835e-17 1.8043513553995257e-14 2.1959587762328267e-14
0.0 -0.0 -0.0
3.81900487973884e-17 -1.805194863592876e-14 -2.1952659495201913e-14
3.75485989868258e-17 -1.8054626662218952e-14 -2.195045815323504e-14
3.63677067332543e-17 -1.8057354180012544e-14 -2.1948216427623602e-14
-3.606432410632155e-17 1.8059955370141314e-14 2.1946076604699686e-14
-6.897975950192015e-17 3.612536511101667e-14 4.388766916998194e-14
0.0 -0.0 -0.0
0.0 -0.0 -0.0
-3.2886770878130795e-17 1.8070258446809267e-14 2.1937598890310118e-14
0.0 -0.0 -0.0
9.421794314901444e-17 -5.422519070294771e-14 -6.580092642755864e-14
0.0 -0.0 -0.0
-3.013572702052683e-17 1.8079509590040922e-14 2.1929979292463808e-14
2.971661375326756e-17 -1.808065476423027e-14 -2.1929035709896144e-14
2.919046870792189e-17 -1.8082542216011516e-14 -2.1927480061991025e-14
-5.713845464722364e-17 3.616864717584212e-14 4.3852023493240455e-14
0.0 -0.0 -0.0
-2.7830128135269517e-17 1.8087440710373302e-14 2.1923441358030784e-14
1.3745210908541039e-17 -9.044392377721643e-15 -1.096116642167095e-14
0.0 -0.0 -0.0
0.0 -0.0 -0.0

SCALARS Gamma float
LOOKUP_TABLE default
-0.0
-0.0
-0.0
49.354577418444045
53.77901900599575
53.20945756156579
51.659030969543274
47.91618823505241
44.77455284235272
46.56280347006304
51.49254686181361
53.253435764128795
49.776118937559005
44.660847320338284
43.09497290159916
41.61259172766421
41.57965060371847
36.43383824687491
32.46287309776112
34.32746234541774
35.05882765779682
34.45310082945091
35.54880227552868
37.14137363896712
34.84528409774873
37.02083332341732
38.45347554135019
37.62234420912504
36.871516530343705
35.735767608498634
37.28559695708928
37.13691775109716
37.11218230606229
39.14430380473744
39.265679269605926
41.324608283679936
41.57868381052285
41.72467629211796
41.594456215562275
41.11372693995538
40.36042465829023
39.10099576956986
36.939537997591096
34.1718348317487
30.177266701282417
27.343044598825053
24.993644776753623
22.19234145649126
19.484926172862092
16.981270947151568
-0.0
-0.0
-0.0
49.354577418444045
53.77901900599575
53.20945756156579
51.659030969543274
47.91618823505241
44.77455284235272
46.56280347006304
51.49254686181361
53.253435764128795
49.776118937559005
44.660847320338284
43.09497290159916
41.61259172766421
41.57965060371847
36.43383824687491
32.46287309776112
34.32746234541774
35.05882765779682
34.45310082945091
35.54880227552868
37.14137363896712
34.84528409774873
37.02083332341732
38.45347554135019
37.62234420912504
36.871516530343705
35.735767608498634
37.28559695708928
37.13691775109716
37.11218230606229
39.14430380473744
39.265679269605926
41.324608283679936
41.57868381052285
41.72467629211796
41.594456215562275
41.11372693995538
40.36042465829023
39.10099576956986
36.939537997591096
34.1718348317487
30.177266701282417
27.343044598825053
24.993644776753623
22.19234145649126
19.484926172862092
16.981270947151568

VECTORS Ftot float
112.96867179951273 29.895761705034275 -25.08552262045805
136.25797142714498 66.65335806303256 -55.92880816741766
139.89494371845228 99.21099608487971 -83.24791022355292
1208.8421219352942 -14.279052993071232 11.981548100046876
1266.6406196307871 -165.83287664302617 139.15030562823026
1348.754805741909 -208.8200877202402 175.22085858846037
1443.1884217406325 -208.19875466597924 174.69949825179174
1456.0013839439578 -215.74094871664133 181.02815049796973
1470.6233216970124 -226.91245264464956 190.40215532365696
1635.32312549158 -283.3731451138321 237.77830155056174
1931.43706951144 -357.00354488319306 299.56154284046806
2125.4012002792783 -413.97469705265604 347.366015613609
2111.8025308050105 -410.326768249938 344.30503990068735
2009.3767518719974 -377.7097181738526 316.93608521175327
2051.31743914929 -361.35567129929075 303.2134105110525
2087.296188616246 -345.80990952781093 290.168967542234
2185.460642161678 -352.308782656399 295.6221695875001
2003.3950711355553 -304.3949848801653 255.41771954515974
1860.3385916925956 -272.15312148881924 228.36358386501308
2045.3950638185995 -287.03906935024145 240.85437722525668
2166.4147374631784 -291.950290328297 244.9753809365732
2204.0428586633784 -281.37357631487896 236.10046410884658
2346.5136327367477 -295.65883563625505 248.08721993668502
2525.682452357747 -311.7444690180288 261.58466897458425
2437.873811324611 -290.8993274124737 244.0935183415249
2658.5953078598573 -315.4058010557823 264.6568913370808
2832.6364041391685 -323.2519488105971 271.24059102430834
2838.305537802436 -313.4270216897111 262.9964983008293
2844.6136094041235 -305.5932634786023 256.4231946751559
2815.9593485554688 -295.3142373846222 247.7980676708356
2996.227804224053 -310.5018253325182 260.5419671163876
3039.477329474751 -313.54336249288536 263.09411982586363
3091.2820655574096 -312.8190834074017 262.48637751236487
3313.408076423947 -336.6179886865421 282.45603015451456
3376.6452504863532 -332.38133578506086 278.9010562674555
3603.877211706748 -359.2133899400281 301.4158230126173
3675.6554205947346 -362.0514621106444 303.7972483242359
3735.732685984067 -363.93994003098044 305.3818694506763
3766.7420997066506 -372.5375987753332 312.5961617320508
3766.375230399613 -359.04574128874833 301.27514909116104
3735.4216442023016 -352.78252142110745 296.0196836102414
3653.2821801366526 -341.98433494400473 286.958929319921
3481.838861575664 -323.3480213971816 271.3212054962776
3246.7361705402327 -299.16125030798713 251.0260947959653
2888.2928410901027 -262.97099007167685 220.65886077946763
2634.206478990919 -238.27934325174624 199.94010903970425
2421.8742046244483 -218.472283989094 183.32001291770626
2161.5631418157423 -194.04040290563267 162.81923051160678
1905.4574184934183 -175.68212043772488 147.41480246373706
1666.9961288387613 -153.16539783010117 128.5210288283589
112.96867179951273 29.895761705034275 -25.08552262045805
136.25797142714498 66.65335806303256 -55.92880816741766
139.89494371845228 99.21099608487971 -83.24791022355292
1208.8421219352942 -14.279052993071232 11.981548100046876
1266.6406196307871 -165.83287664302617 139.15030562823026
1348.754805741909 -208.8200877202402 175.22085858846037
1443.1884217406325 -208.19875466597924 174.69949825179174
1456.0013839439578 -215.74094871664133 181.02815049796973
1470.6233216970124 -226.91245264464956 190.40215532365696
1635.32312549158 -283.3731451138321 237.77830155056174
1931.43706951144 -357.00354488319306 299.56154284046806
2125.4012002792783 -413.97469705265604 347.366015613609
2111.8025308050105 -410.326768249938 344.30503990068735
2009.3767518719974 -377.7097181738526 316.93608521175327
2051.31743914929 -361.35567129929075 303.2134105110525
2087.296188616246 -345.80990952781093 290.168967542234
2185.460642161678 -352.308782656399 295.6221695875001
2003.3950711355553 -304.3949848801653 255.41771954515974
1860.3385916925956 -272.15312148881924 228.36358386501308
2045.3950638185995 -287.03906935024145 240.85437722525668
2166.4147374631784 -291.950290328297 244.9753809365732
2204.0428586633784 -281.37357631487896 236.10046410884658
2346.5136327367477 -295.65883563625505 248.08721993668502
2525.682452357747 -311.7444690180288 261.58466897458425
2437.873811324611 -290.8993274124737 244.0935183415249
2658.5953078598573 -315.4058010557823 264.6568913370808
2832.6364041391685 -323.2519488105971 271.24059102430834
2838.305537802436 -313.4270216897111 262.9964983008293
2844.6136094041235 -305.5932634786023 256.4231946751559
2815.9593485554688 -295.3142373846222 247.7980676708356
2996.227804224053 -310.5018253325182 260.5419671163876
3039.477329474751 -313.54336249288536 263.09411982586363
3091.2820655574096 -312.8190834074017 262.48637751236487
3313.408076423947 -336.6179886865421 282.45603015451456
3376.6452504863532 -332.38133578506086 278.9010562674555
3603.877211706748 -359.2133899400281 301.4158230126173
3675.6554205947346 -362.0514621106444 303.7972483242359
3735.732685984067 -363.93994003098044 305.3818694506763
3766.7420997066506 -372.5375987753332 312.5961617320508
3766.375230399613 -359.04574128874833 301.27514909116104
3735.4216442023016 -352.78252142110745 296.0196836102414
3653.2821801366526 -341.98433494400473 286.958929319921
3481.838861575664 -323.3480213971816 271.3212054962776
3246.7361705402327 -299.16125030798713 251.0260947959653
2888.2928410901027 -262.97099007167685 220.65886077946763
2634.206478990919 -238.27934325174624 199.94010903970425
2421.8742046244483 -218.472283989094 183.32001291770626
2161.5631418157423 -194.04040290563267 162.81923051160678
1905.4574184934183 -175.68212043772488 147.41480246373706
1666.9961288387613 -153.16539783010117 128.5210288283589

VECTORS D float
88.87332009944582 -24.026804738288835 19.130062859917548
57.31615389167104 -28.489617827190422 22.987163468765416
10.767016233317495 -7.744376177339031 6.277751471270428
501.17693442609794 -469.48207956485385 381.4793825463551
496.72467283496496 -570.8948692305746 464.58038744163235
449.6836304415589 -609.7373835424586 496.90117495552994
394.6867939535278 -614.7574929223059 501.50514742777625
341.61247398833626 -599.3446484007226 489.2259083075384
303.17452227828494 -589.4967077228638 481.5451634135703
309.92328530938096 -659.6789620903811 539.2055461469108
336.0364837781163 -775.1645306375638 633.9331423546189
342.69020218641083 -849.0640466460801 694.8976044546706
310.9819661327761 -822.204195805518 673.1633590402578
268.44022691486884 -752.9325948999701 616.6513924692094
246.44735090236108 -729.6562144762402 597.7650458990316
226.88522307983422 -706.5691076996419 578.9599954335306
219.81547632729743 -716.4266182485926 587.2011570631709
184.5036117649616 -627.2334603416343 514.2402329256705
159.07708179418722 -562.4017531193804 461.21616876396837
162.81759799087203 -596.7266086935813 489.50801128964576
161.09930125664246 -610.7259534147273 501.1347281226367
152.6317325579045 -597.1772973161204 490.1462936625088
154.6599387645499 -623.2201046359208 511.64650846617917
158.3306981996919 -655.8362303979827 538.5462396633368
144.84074599368927 -615.6066494078719 505.6194962924493
152.0684014400226 -661.9259948395053 543.793673065039
153.9617758312365 -685.2655240808177 563.0906977872735
147.33180175693738 -669.5048592569556 550.2606591358692
141.6635244077972 -656.2992460939412 539.5260476547362
134.9709791382872 -636.7159316549902 523.6873503580465
139.2864491238049 -668.1763360458867 549.6921344299877
137.7403568034987 -671.1367206152794 552.2570327603918
135.86907540941266 -671.6777284058239 552.8314304422315
142.9747863069603 -716.3807297930471 589.7619210147296
140.92649912392034 -714.9959360622944 588.7578631501785
148.66037663219564 -763.0302604359165 628.4549353335478
148.36969121805248 -769.7704085905225 634.1490845101538
147.7920130159237 -774.4490917717105 638.1443891958812
148.002787828505 -782.7343284404492 645.1104527860506
143.61811458369496 -766.0392780049077 631.4828619451883
140.150313076462 -753.4318694857261 621.2152185737375
135.0260951117403 -731.1403113773902 602.9521142913221
126.8948696202212 -691.8511794132896 570.6084560470745
116.82505617300497 -640.806281662812 528.5977588775074
102.50098039106867 -565.3245590843838 466.40678435588416
92.507736150025 -512.7328788449697 423.07910277196163
84.37644032082949 -469.7296383927632 387.64695070862194
74.6952120331663 -417.4540244529221 344.54770167414034
66.32318426698131 -371.9204146637938 306.99904690996414
57.67696552053281 -324.36861433400554 267.7724538676595
88.87332009944582 -24.026804738288835 19.130062859917548
57.31615389167104 -28.489617827190422 22.987163468765416
10.767016233317495 -7.744376177339031 6.277751471270428
501.17693442609794 -469.48207956485385 381.4793825463551
496.72467283496496 -570.8948692305746 464.58038744163235
449.6836304415589 -609.7373835424586 496.90117495552994
394.6867939535278 -614.7574929223059 501.50514742777625
341.61247398833626 -599.3446484007226 489.2259083075384
303.17452227828494 -589.4967077228638 481.5451634135703
309.92328530938096 -659.6789620903811 539.2055461469108
336.0364837781163 -775.1645306375638 633.9331423546189
342.69020218641083 -849.0640466460801 694.8976044546706
310.9819661327761 -822.204195805518 673.1633590402578
268.44022691486884 -752.9325948999701 616.6513924692094
246.44735090236108 -729.6562144762402 597.7650458990316
226.88522307983422 -706.5691076996419 578.9599954335306
219.81547632729743 -716.4266182485926 587.2011570631709
184.5036117649616 -627.2334603416343 514.2402329256705
159.07708179418722 -562.4017531193804 461.21616876396837
162.81759799087203 -596.7266086935813 489.50801128964576
161.09930125664246 -610.7259534147273 501.1347281226367
152.6317325579045 -597.1772973161204 490.1462936625088
154.6599387645499 -623.2201046359208 511.64650846617917
158.3306981996919 -655.8362303979827 538.5462396633368
144.84074599368927 -615.6066494078719 505.6194962924493
152.0684014400226 -661.9259948395053 543.793673065039
153.9617758312365 -685.2655240808177 563.0906977872735
147.33180175693738 -669.5048592569556 550.2606591358692
141.6635244077972 -656.2992460939412 539.5260476547362
134.9709791382872 -636.7159316549902 523.6873503580465
139.2864491238049 -668.1763360458867 549.6921344299877
137.7403568034987 -671.1367206152794 552.2570327603918
135.86907540941266 -671.6777284058239 552.8314304422315
142.9747863069603 -716.3807297930471 589.7619210147296
140.92649912392034 -714.9959360622944 588.7578631501785
148.66037663219564 -763.0302604359165 628.4549353335478
148.36969121805248 -769.7704085905225 634.1490845101538
147.7920130159237 -774.4490917717105 638.1443891958812
148.002787828505 -782.7343284404492 645.1104527860506
143.61811458369496 -766.0392780049077 631.4828619451883
140.150313076462 -753.4318694857261 621.2152185737375
135.0260951117403 -731.1403113773902 602.9521142913221
126.8948696202212 -691.8511794132896 570.6084560470745
116.82505617300497 -640.806281662812 528.5977588775074
102.50098039106867 -565.3245590843838 466.40678435588416
92.507736150025 -512.7328788449697 423.07910277196163
84.37644032082949 -469.7296383927632 387.64695070862194
74.6952120331663 -417.4540244529221 344.54770167414034
66.32318426698131 -371.9204146637938 306.99904690996414
57.67696552053281 -324.36861433400554 267.7724538676595

VECTORS L float
24.095351700066917 53.92256644332312 -44.2155854803756
78.94181753547396 95.14297589022297 -78.91597163618309
129.1279274851348 106.95537226221876 -89.52566169482336
707.6651875091965 455.20302657178246 -369.4978344463082
769.9159467958222 405.06199258754856 -325.43008181340224
899.0711753003502 400.91729582221836 -321.6803163670695
1048.5016277871048 406.55873825632665 -326.8056491759845
1114.3889099556216 383.6036996840814 -308.1977578095689
1167.4487994187277 362.5842550782143 -291.14300808991334
1325.399840182199 376.30581697654907 -301.4272445963491
1595.400585733324 418.1609857543706 -334.3715995141507
1782.7109980928674 435.0893495934241 -347.53158884106153
1800.8205646722345 411.87742755558014 -328.85831913957065
1740.9365249571288 375.22287672611776 -299.7153072574563
1804.8700882469288 368.3005431769496 -294.5516353879793
1860.4109655364118 360.759198171831 -288.7910278912966
1965.645165834381 364.11783559219356 -291.5789874756708
1818.8914593705938 322.8384754614691 -258.82251338051077
1701.2615098984083 290.2486316305611 -232.85258489895529
1882.5774658277278 309.68753934333984 -248.65363406438908
2005.315436206536 318.7756630864303 -256.15934718606366
2051.411126105474 315.80372100124146 -254.04582955366226
2191.8536939721985 327.5612689996659 -263.55928852949415
2367.351754158056 344.09176137995394 -276.9615706887526
2293.033065330922 324.70732199539833 -261.5259779509243
2506.526906419835 346.52019378372296 -279.1367817279582
2678.674628307933 362.01357527022066 -291.8501067629653
2690.9737360454983 356.07783756724433 -287.2641608350399
2702.9500849963265 350.7059826153391 -283.1028529795803
2680.9883694171817 341.40169427036807 -275.8892826872109
2856.941355100249 357.6745107133688 -289.1501673136003
2901.7369726712523 357.59335812239385 -289.1629129345279
2955.4129901479973 358.85864499842233 -290.3450529298668
3170.4332901169882 379.76274110650513 -307.3058908602152
3235.718751362434 382.61460027723354 -309.8568068827228
3455.216835074552 403.81687049588857 -327.03911232093066
3527.285729376682 407.7189464798782 -330.351836185918
3587.940672968143 410.50915174073015 -332.7625197452049
3618.739311878145 410.19672966511587 -332.5142910539997
3622.7571158159185 406.99353671615944 -330.2077128540274
3595.27133112584 400.6493480646186 -325.19553496349613
3518.2560850249133 389.15597643338543 -315.9931849714011
3354.9439919554434 368.5031580161081 -299.2872505507969
3129.9111143672276 341.6450313548251 -277.57166408154234
2785.7918606990343 302.35356901270706 -245.74792357641647
2541.698742840894 274.4535355932234 -223.1389937322574
2337.4977643036186 251.25735440366927 -204.3269377909157
2086.867929782576 223.4136215472894 -181.72847116253354
1839.134234226437 196.23829422606886 -159.5842444462271