# vtk DataFile Version 4.0
[MyVLM domain - lattices] 
ASCII
DATASET UNSTRUCTURED_GRID
POINTS 62 float
0.0 1.483512365216455 -1.7847231740309075
0.0 0.7487096283205241 -7.332315501560755
0.0 0.12399312055338685 -12.63040099685948
0.0 -0.7808690299936303 -17.61017125217721
0.0 -1.7309457999245033 -22.313050945544116
0.0 -2.6404751958521926 -26.75416223031368
0.0 -3.514920316752618 -30.93254181473815
0.0 -4.328629862404513 -34.85271271513681
0.0 -5.087966296440428 -38.513553057507444
0.0 -5.793495036716453 -41.914963143426675
0.0 -6.4452153008724355 -45.05694311084569
0.0 -7.0431276766058595 -47.939492856137555
0.0 -7.587251901336983 -50.56260889906257
0.0 -8.077587964751197 -52.926291241439465
0.0 -8.514732512210568 -55.030434678593
0.0 -8.903161295542082 -56.87425001471712
0.0 -9.272908604372795 -58.452441394204165
0.0 -9.623167422420755 -59.7651511157985
0.0 -9.98008111802626 -60.80776939829517
0.0 -10.301298675733053 -61.58776386837947
0.0 -10.54435058512839 -62.11262304659466
-0.8152938918039478 -1.9109054050511534 -1.1861957373364609
-0.9232602711185554 -3.1048259506881886 -6.652833207861503
-1.045017403566863 -4.319896956649401 -11.846823276946004
-0.8624275731409438 -5.209755650470995 -16.82923904648832
-0.7172432011617597 -5.944825836775479 -21.570030201578508
-0.5835709082011334 -6.628127448622729 -26.05103154846734
-0.458823694439046 -7.249370576902738 -30.274057475759943
-0.35706975050238215 -7.835176468452331 -34.23441393937888
-0.27205245991127286 -8.380403947559047 -37.93300746731483
-0.20240159072431146 -8.885230550347856 -41.36980675515892
-0.1506132401889805 -9.350066598573692 -44.54473945211495
-0.11426271706148827 -9.775575238694259 -47.4576886275703
-0.08424963388989035 -10.162432808374056 -50.10853502494663
-0.059335794404298196 -10.510782227834213 -52.49725344355288
-0.038970351202568594 -10.81996917785097 -54.62395925752219
-0.02333805368457717 -11.08551138590325 -56.48944281243489
-0.011931771028020786 -11.278099659442098 -58.098872109720176
-0.005641151376299379 -11.398418595254462 -59.452126436493586
-0.0026418300562744777 -11.419641980389274 -60.55393597788863
-0.0014569859069231085 -11.384290933976324 -61.39680311335278
-0.001005086180947595 -11.335078000694523 -61.97319646884448
-0.6519578110959388 -1.601871509210131 -4.079265688898195
-0.7381041280070318 -2.6751832466423577 -9.432710744105346
-0.7152918662654275 -3.6557292163501796 -14.533594902417455
-0.5923765403635137 -4.496944911457194 -19.390128742740227
-0.4878052910110849 -5.261285106496416 -23.99129980324942
-0.39089797599006726 -5.973486198647651 -28.332746389716714
-0.30596004185303555 -6.637148914402792 -32.41383359691144
-0.23592082890512064 -7.257917175859884 -36.23356624909068
-0.17792026898834412 -7.834795603359699 -39.792119858544424
-0.1323805615924845 -8.368075223044192 -43.08944310951174
-0.0993284839689258 -8.858158561160268 -46.12546502575488
-0.07444213160676699 -9.305550464893473 -48.90009658909386
-0.05384453561032071 -9.710560621839123 -51.41328319325007
-0.036864804602575046 -10.073071836752163 -53.6650455029072
-0.023365651832679663 -10.391791937376913 -55.65561136289766
-0.013226184267224234 -10.658362879493865 -57.386454521923305
-0.006589845901620062 -10.865703848860404 -58.8588235185805
-0.0031061180372151964 -11.007178783422276 -60.07388846965503
-0.0015370559861990949 -11.086647317107014 -61.030968817549855
-0.0009232770329515139 -11.12546950810925 -61.72629820769574

CELLS 40 140
4 0 21 22 1
4 1 22 23 2
4 2 23 24 3
4 3 24 25 4
4 4 25 26 5
4 5 26 27 6
4 6 27 28 7
4 7 28 29 8
4 8 29 30 9
4 9 30 31 10
4 10 31 32 11
4 11 32 33 12
4 12 33 34 13
4 13 34 35 14
4 14 35 36 15
4 15 36 37 16
4 16 37 38 17
4 17 38 39 18
4 18 39 40 19
4 19 40 41 20
1 42
1 43
1 44
1 45
1 46
1 47
1 48
1 49
1 50
1 51
1 52
1 53
1 54
1 55
1 56
1 57
1 58
1 59
1 60
1 61

CELL_TYPES 40
9
9
9
9
9
9
9
9
9
9
9
9
9
9
9
9
9
9
9
9
1
1
1
1
1
1
1
1
1
1
1
1
1
1
1
1
1
1
1
1

CELL_DATA 40

VECTORS S float
1.02129089385983e-18 1.213087246736573e-15 3.3391904366636805e-15
2.460916992717424e-17 -9.633410602365015e-15 -2.6739303683927764e-14
7.091296944800003e-17 -1.9269676028212264e-14 -5.34775544027938e-14
-3.8639096024145e-17 1.9351293895882845e-14 5.344810753769201e-14
-1.9765739833046278e-17 1.9385688206969703e-14 5.343565260987227e-14
0.0 -0.0 -0.0
-1.1209563035918879e-17 1.939853098227913e-14 5.343099416874552e-14
-9.454370177320159e-18 1.9400782667493234e-14 5.3430176962919024e-14
-1.0918490507615759e-17 1.938947931627071e-14 5.343427963784802e-14
-1.301515598849184e-17 1.937433559836691e-14 5.3439771879311306e-14
-1.553230539105462e-17 1.9355726481241413e-14 5.344651418863651e-14
-3.68363463335992e-17 3.8666906908031304e-14 1.0690914845975667e-13
0.0 -0.0 -0.0
4.573242600279018e-17 -3.859205290908482e-14 -1.0693618859838173e-13
0.0 -0.0 -0.0
-2.3706728461016318e-17 1.928148529500074e-14 5.3473339437470707e-14
1.1709688896214699e-17 -9.640926680136805e-15 -2.67366034226064e-14
-2.2010465026674138e-17 1.928489105474962e-14 5.3472111986821047e-14
0.0 -0.0 -0.0
0.0 -0.0 -0.0
1.02129089385983e-18 1.213087246736573e-15 3.3391904366636805e-15
2.460916992717424e-17 -9.633410602365015e-15 -2.6739303683927764e-14
7.091296944800003e-17 -1.9269676028212264e-14 -5.34775544027938e-14
-3.8639096024145e-17 1.9351293895882845e-14 5.344810753769201e-14
-1.9765739833046278e-17 1.9385688206969703e-14 5.343565260987227e-14
0.0 -0.0 -0.0
-1.1209563035918879e-17 1.939853098227913e-14 5.343099416874552e-14
-9.454370177320159e-18 1.9400782667493234e-14 5.3430176962919024e-14
-1.0918490507615759e-17 1.938947931627071e-14 5.343427963784802e-14
-1.301515598849184e-17 1.937433559836691e-14 5.3439771879311306e-14
-1.553230539105462e-17 1.9355726481241413e-14 5.344651418863651e-14
-3.68363463335992e-17 3.8666906908031304e-14 1.0690914845975667e-13
0.0 -0.0 -0.0
4.573242600279018e-17 -3.859205290908482e-14 -1.0693618859838173e-13
0.0 -0.0 -0.0
-2.3706728461016318e-17 1.928148529500074e-14 5.3473339437470707e-14
1.1709688896214699e-17 -9.640926680136805e-15 -2.67366034226064e-14
-2.2010465026674138e-17 1.928489105474962e-14 5.3472111986821047e-14
0.0 -0.0 -0.0
0.0 -0.0 -0.0

SCALARS Gamma float
LOOKUP_TABLE default
0.0
76.15334524699843
88.07549038050266
103.2217457045582
103.99399634359224
105.98455138277819
107.27652566464134
109.94021143675474
111.39727893978903
104.7438482226206
101.44699132989547
99.34467283636886
96.95982992998714
90.63340979582128
82.06205561398804
71.44396930054147
57.2060172670587
40.25166437862413
23.233639032663113
9.463267404840353
0.0
76.15334524699843
88.07549038050266
103.2217457045582
103.99399634359224
105.98455138277819
107.27652566464134
109.94021143675474
111.39727893978903
104.7438482226206
101.44699132989547
99.34467283636886
96.95982992998714
90.63340979582128
82.06205561398804
71.44396930054147
57.2060172670587
40.25166437862413
23.233639032663113
9.463267404840353

VECTORS Ftot float
177.9028492168663 79.73504798288175 -29.021184093556347
1739.1401611585031 -432.7480843771473 157.50742164900052
2275.2201985840816 -829.2608039294704 301.8262490739885
3264.1097568873106 -1233.7550965558435 449.05013152055125
4018.4745851404923 -1254.812629936627 456.7144468782234
4811.093765851054 -1267.5190615406275 461.3392097658189
5551.268507484691 -1276.1829089289697 464.4925923294005
6345.0173505284565 -1298.1254966356491 472.4790411174073
7050.197608919851 -1304.5276246166104 474.80922513843996
7168.857434811313 -1225.2521377918688 445.95530762727157
7424.766138302036 -1186.2896500954703 431.77412185281935
7702.7603489653675 -1158.8813206631953 421.798305768509
7900.141100448296 -1126.0117353984367 409.83475511946193
7701.4929218230045 -1068.797339115966 389.01041790113163
7228.140633565126 -972.6456451178776 354.0140633115553
6486.265617960223 -848.5229922204924 308.83711225875146
5323.601478628621 -689.5678890639529 250.98218612505747
3823.641308145448 -474.4995614568536 172.70371654266117
2243.1319828320325 -263.26637483049234 95.82112412146809
926.6722494513103 -88.86270961959048 32.343381237771844
177.9028492168663 79.73504798288175 -29.021184093556347
1739.1401611585031 -432.7480843771473 157.50742164900052
2275.2201985840816 -829.2608039294704 301.8262490739885
3264.1097568873106 -1233.7550965558435 449.05013152055125
4018.4745851404923 -1254.812629936627 456.7144468782234
4811.093765851054 -1267.5190615406275 461.3392097658189
5551.268507484691 -1276.1829089289697 464.4925923294005
6345.0173505284565 -1298.1254966356491 472.4790411174073
7050.197608919851 -1304.5276246166104 474.80922513843996
7168.857434811313 -1225.2521377918688 445.95530762727157
7424.766138302036 -1186.2896500954703 431.77412185281935
7702.7603489653675 -1158.8813206631953 421.798305768509
7900.141100448296 -1126.0117353984367 409.83475511946193
7701.4929218230045 -1068.797339115966 389.01041790113163
7228.140633565126 -972.6456451178776 354.0140633115553
6486.265617960223 -848.5229922204924 308.83711225875146
5323.601478628621 -689.5678890639529 250.98218612505747
3823.641308145448 -474.4995614568536 172.70371654266117
2243.1319828320325 -263.26637483049234 95.82112412146809
926.6722494513103 -88.86270961959048 32.343381237771844

VECTORS D float
111.96171044035292 -50.20261969901122 18.20375728406692
1007.9418345154918 -1052.5534225153197 380.1327077191822
951.0957200856253 -1549.1535847360285 559.470848128097
989.1461854773552 -2156.6639942020033 781.5516849021429
849.9383154836099 -2293.0104862451044 832.185700545969
750.2781300244912 -2392.837835688699 868.8265512892563
669.0220196567209 -2452.9872925624613 890.716150407146
612.4359204626975 -2526.2769135831436 917.4130115319039
562.1284294693713 -2562.570221703032 929.984276777362
486.48345996715904 -2415.3288656103746 875.7844959849909
438.9891550811141 -2343.6892508094097 848.8977681346911
405.85508673030915 -2298.873889535575 831.5966797918908
379.91592967660114 -2250.0988129232373 812.9777939627045
350.11041355295026 -2135.924767194278 770.9806577603656
315.58040594587686 -1958.9914185786408 706.6834857785265
275.63300613891874 -1726.7099169106832 622.7414741399552
223.3428060441314 -1406.8070949309192 507.3770634093059
156.26100148860206 -988.1569597809861 356.446341531728
88.87754873387958 -563.9409164850447 203.4663360593908
33.496239734043854 -213.1437662462778 76.9156519745643
111.96171044035292 -50.20261969901122 18.20375728406692
1007.9418345154918 -1052.5534225153197 380.1327077191822
951.0957200856253 -1549.1535847360285 559.470848128097
989.1461854773552 -2156.6639942020033 781.5516849021429
849.9383154836099 -2293.0104862451044 832.185700545969
750.2781300244912 -2392.837835688699 868.8265512892563
669.0220196567209 -2452.9872925624613 890.716150407146
612.4359204626975 -2526.2769135831436 917.4130115319039
562.1284294693713 -2562.570221703032 929.984276777362
486.48345996715904 -2415.3288656103746 875.7844959849909
438.9891550811141 -2343.6892508094097 848.8977681346911
405.85508673030915 -2298.873889535575 831.5966797918908
379.91592967660114 -2250.0988129232373 812.9777939627045
350.11041355295026 -2135.924767194278 770.9806577603656
315.58040594587686 -1958.9914185786408 706.6834857785265
275.63300613891874 -1726.7099169106832 622.7414741399552
223.3428060441314 -1406.8070949309192 507.3770634093059
156.26100148860206 -988.1569597809861 356.446341531728
88.87754873387958 -563.9409164850447 203.4663360593908
33.496239734043854 -213.1437662462778 76.9156519745643

VECTORS L float
65.94113877651336 129.93766768189298 -47.22494137762325
731.1983266430112 619.8053381381727 -222.62528607018172
1324.124478498457 719.892780806558 -257.64459905410854
2274.9635714099554 922.90889764616 -332.5015533815918
3168.5362696568823 1038.197856308477 -375.47125366774515
4060.8156358265646 1125.3187741480726 -407.48734152343764
4882.246487827972 1176.804383633492 -426.2235580777455
5732.5814300657585 1228.151416947494 -444.9339704144964
6488.06917945048 1258.0425970864217 -455.1750516389222
6682.373974844157 1190.0767278185065 -429.8291883577195
6985.776983220923 1157.3996007139392 -417.1236462818716
7296.90526223506 1139.9925688723797 -409.7983740233819
7520.225170771696 1124.0870775248004 -403.14303884324244
7351.382508270055 1067.127428078312 -381.97023985923397
6912.56022761925 986.3457734607629 -352.66942246697135
6210.632611821304 878.186924690191 -313.9043618812039
5100.25867258449 717.2392058669658 -256.3948772842482
3667.3803066568457 513.6573983241328 -183.7426249890669
2154.2544340981526 300.6745416545524 -107.6452119379227
893.1760097172667 124.28105662668735 -44.57227073679246
65.94113877651336 129.93766768189298 -47.22494137762325
731.1983266430112 619.8053381381727 -222.62528607018172
1324.124478498457 719.892780806558 -257.64459905410854
2274.9635714099554 922.90889764616 -332.5015533815918
3168.5362696568823 1038.197856308477 -375.47125366774515
4060.8156358265646 1125.3187741480726 -407.48734152343764
4882.246487827972 1176.804383633492 -426.2235580777455
5732.5814300657585 1228.151416947494 -444.9339704144964
6488.06917945048 1258.0425970864217 -455.1750516389222
6682.373974844157 1190.0767278185065 -429.8291883577195
6985.776983220923 1157.3996007139392 -417.1236462818716
7296.90526223506 1139.9925688723797 -409.7983740233819
7520.225170771696 1124.0870775248004 -403.14303884324244
7351.382508270055 1067.127428078312 -381.97023985923397
6912.56022761925 986.3457734607629 -352.66942246697135
6210.632611821304 878.186924690191 -313.9043618812039
5100.25867258449 717.2392058669658 -256.3948772842482
3667.3803066568457 513.6573983241328 -183.7426249890669
2154.2544340981526 300.6745416545524 -107.6452119379227
893.1760097172667 124.28105662668735 -44.57227073679246

SCALARS mu float
LOOKUP_TABLE default
-3.288254374650511
-9.045561761875275
-2.9253126973665453
-0.5712308816533186
-0.35571425973632537
-0.3554005803479705
-0.31976410135255207
-0.306597170490343
-0.3060890671790264
-0.2480154401868967
-0.20908387936631612
-0.2121426179067689
-0.2649822766013493
-0.2391352783980454
-0.29328058463706064
-0.35857814853832415
-0.3329761527037964
-0.3989269314369294
-0.41227722913950265
-0.4461592534663591
-3.288254374650511
-9.045561761875275
-2.9253126973665453
-0.5712308816533186
-0.35571425973632537
-0.3554005803479705
-0.31976410135255207
-0.306597170490343
-0.3060890671790264
-0.2480154401868967
-0.20908387936631612
-0.2121426179067689
-0.2649822766013493
-0.2391352783980454
-0.29328058463706064
-0.35857814853832415
-0.3329761527037964
-0.3989269314369294
-0.41227722913950265
-0.4461592534663591