# vtk DataFile Version 4.0
[MyVLM domain - lattices] 
ASCII
DATASET UNSTRUCTURED_GRID
POINTS 152 float
0.0 -1.4999999999999833 -1.7708707379400672
0.0 -3.7363636363635964 -1.8250854161503465
0.0 -5.931651205936857 -1.9422959226345684
0.0 -8.085862708719768 -2.0669177328625685
0.0 -10.198998144712323 -2.1984531786117167
0.0 -12.271057513914528 -2.3006338360205647
0.0 -14.302040816326382 -2.3424976972091676
0.0 -16.291948051947884 -2.316199461221053
0.0 -18.240779220779036 -2.2701442065185398
0.0 -20.14853432281983 -2.223914587662422
0.0 -22.015213358070277 -2.1773276458756143
0.0 -23.840816326530366 -2.129986935469805
0.0 -25.625343228200105 -2.081482387979731
0.0 -27.3687940630795 -2.0284979470470166
0.0 -29.07116883116853 -1.9732322230064883
0.0 -30.732467532467215 -1.9205004555720633
0.0 -32.35269016697554 -1.871018097648483
0.0 -33.931836734693526 -1.8236150669333993
0.0 -35.46990723562116 -1.7774482500802096
0.0 -36.966901669758435 -1.732517395111204
0.0 -38.42282003710536 -1.6888222567780498
0.0 -39.83766233766193 -1.6463625965617885
0.0 -41.21142857142815 -1.6051381826728368
0.0 -42.544118738404016 -1.565148790050986
0.0 -43.83573283858953 -1.5263942003654032
0.0 -45.08627087198469 -1.4888742020146304
0.0 -46.295732838589494 -1.4525885901265831
0.0 -47.46411873840396 -1.4175371665585543
0.0 -48.59142857142807 -1.3837200369463478
0.0 -49.67766233766183 -1.351141096735496
0.0 -50.72282003710523 -1.3198009719931012
0.0 -51.726901669758284 -1.2896988719443432
0.0 -52.68990723562097 -1.260834036892888
0.0 -53.61183673469332 -1.2332057382208894
0.0 -54.49269016697533 -1.206813278388986
0.0 -55.33246753246695 -1.1816559909363038
0.0 -56.131168831168246 -1.157317742549122
0.0 -56.88879406307919 -1.1324787175379678
0.0 -57.60534322819977 -1.1051191396351352
0.0 -58.280816326530015 -1.0741853005398034
0.0 -58.91521335806989 -1.0402800877948726
0.0 -59.50853432281942 -1.003089986646928
0.0 -60.060779220778606 -0.950732655758971
0.0 -60.57194805194743 -0.8834743712478319
0.0 -61.042040816325894 -0.8102837433755745
0.0 -61.47105751391403 -0.7372769059977632
0.0 -61.85899814471179 -0.6660134938685904
0.0 -62.205862708719216 -0.5950320477905102
0.0 -62.511651205936275 -0.5256391271196629
0.0 -62.77636363636299 -0.4604090486137446
0.0 -62.999999999999346 -0.4015703252868842
-0.8152906147965383 -1.4999999999999858 1.6759076874023586
-0.840508508576773 -3.7363636363635995 1.727961053119005
-0.8937965186568912 -5.93165120593686 1.8370990402078535
-0.9506477078523391 -8.085862708719771 1.954493725696862
-1.020681877210228 -10.198998144712327 2.079137418187983
-1.048954977401727 -12.271057513914531 2.1800955487444513
-0.9930987765444168 -14.302040816326386 2.2355843555156865
-0.9074282632528687 -16.291948051947884 2.2262284358623337
-0.838943182597301 -18.240779220779036 2.1928249280901015
-0.780438039247949 -20.14853432281983 2.15480273165904
-0.7250391551380654 -22.015213358070277 2.1161539742594857
-0.6716005320170477 -23.840816326530366 2.076576702730467
-0.6190912009117757 -25.625343228200105 2.035343921216671
-0.5668551203523576 -27.3687940630795 1.9889259921580413
-0.5160737545272154 -29.07116883116853 1.9394054938862502
-0.46824322159258064 -30.732467532467215 1.8917833829559163
-0.4244759216876314 -32.35269016697554 1.8467747481983707
-0.3845740908079094 -33.931836734693526 1.8032162463559123
-0.34771109645469384 -35.46990723562116 1.7603561333212845
-0.3130568676883623 -36.966901669758435 1.7183186269394086
-0.28047282351476527 -38.42282003710536 1.677145228850141
-0.25028172479700606 -39.83766233766193 1.636838605410863
-0.22269967179244904 -41.21142857142815 1.5974179598265004
-0.19756508903558764 -42.544118738404016 1.5589313947719308
-0.17527331282135344 -43.83573283858953 1.5213899416980299
-0.15618952887338375 -45.08627087198469 1.484813130348961
-0.13996799493970205 -46.295732838589494 1.4492579273521935
-0.12575834684109707 -47.46411873840396 1.4147933480970813
-0.11252036551224441 -48.59142857142807 1.3814803417740367
-0.10008619772204906 -49.67766233766183 1.3493287439342494
-0.0884564051429673 -50.72282003710523 1.3183429909102011
-0.07764813403823374 -51.726901669758284 1.288528256837911
-0.06766754153321136 -52.68990723562097 1.2598902937854852
-0.05846867713071129 -53.61183673469332 1.2324361656956329
-0.05000632361003568 -54.49269016697533 1.2061723158717732
-0.0422455662862189 -55.33246753246695 1.18110442279349
-0.03513713503927796 -56.131168831168246 1.156932048730898
-0.028610254341892315 -56.88879406307919 1.1326852496039324
-0.02259956362415257 -57.60534322819977 1.1053612382192894
-0.017476911002663225 -58.280816326530015 1.0734053937070824
-0.013355710955940858 -58.91521335806989 1.0396293298798656
-0.010110762084772787 -59.50853432281942 1.0039547489864502
-0.007505342360435571 -60.060779220778606 0.9518676351673319
-0.005475063785670375 -60.57194805194743 0.8832400767209548
-0.003985447751437076 -61.042040816325894 0.8090019568815898
-0.0029419419370193198 -61.47105751391403 0.7363401214857502
-0.00222865752783443 -61.85899814471179 0.6664023126037812
-0.0017402354220029323 -62.205862708719216 0.596237037202711
-0.0014049497009942318 -62.511651205936275 0.5268352101555964
-0.0011720086804816246 -62.77636363636299 0.461046264907314
-0.0010052173229800666 -62.999999999999346 0.40133683730174263
-0.6209246712649916 -2.618181818181792 0.82695625843421
-0.6503643852126241 -4.834007421150229 0.8659748676494577
-0.6916665849409614 -7.008756957328314 0.920695580277126
-0.7392485943984627 -9.142430426716047 0.9794403150225317
-0.7761138204794831 -11.235027829313427 1.034826485770628
-0.765770157729804 -13.286549165120457 1.0754885224438353
-0.7126976399239822 -15.296994434137133 1.0908426519629804
-0.6548892921938138 -17.266363636363458 1.083852053014714
-0.6072679581919687 -19.194656771799433 1.0686030231333081
-0.5645539478947554 -21.081873840445052 1.0514534855271926
-0.5237398826831674 -22.92801484230032 1.0338596812030552
-0.4840093998483088 -24.733079777365237 1.0155365685489848
-0.44472987047405005 -26.497068645639796 0.9953536756371737
-0.40609832807983987 -28.219981447124013 0.9729080360099215
-0.3691188660449235 -29.90181818181787 0.9499792439934941
-0.33476967873007946 -31.542578849721377 0.9280194800302898
-0.3033937546858278 -33.142263450834534 0.9069174773851205
-0.27460694522347623 -34.70087198515734 0.8862067277522475
-0.24778798655364606 -36.218404452689796 0.8657573294488332
-0.22257363420117282 -37.6948608534319 0.8456314894349246
-0.19903295561691423 -39.130241187383646 0.8258458311803971
-0.17736802372104568 -40.52454545454504 0.8064086145596833
-0.15759928531051376 -41.87777365491608 0.7873451363839339
-0.1398144006963529 -43.18992578849677 0.768677627374187
-0.12429856563552642 -44.46100185528711 0.7504176017201176
-0.11105907142990716 -45.69100185528709 0.7325937976202811
-0.09964737816779967 -46.87992578849673 0.7152535087078356
-0.08935451713250306 -48.02777365491601 0.6984454832635564
-0.07972746121286005 -49.13454545454494 0.682195765430377
-0.07070347607438114 -50.200241187383526 0.6665091419755944
-0.062289202192950394 -51.22486085343175 0.6513892374133613
-0.054493378339291916 -52.20840445268962 0.6368403428791198
-0.047301081998971 -53.15087198515715 0.622867450416197
-0.040678125277780114 -54.05226345083432 0.6094758035115426
-0.03459445871109547 -54.91257884972114 0.5966701183338123
-0.029018512997061326 -55.73181818181761 0.5843919601359674
-0.023905271017938854 -56.50998144712372 0.5723819293646754
-0.01920368173726683 -57.24706864563949 0.55956770078707
-0.015028677985055923 -57.9430797773649 0.5446244319505219
-0.01156223323447653 -58.59801484229995 0.5280798478032709
-0.008799927390267616 -59.21187384044466 0.5109227702696432
-0.006606039166953134 -59.78465677179902 0.489205563756931
-0.00486765230478973 -60.316363636363015 0.4588895135822572
-0.003547691826415294 -60.806994434136676 0.42287099827302843
-0.0025977711331711486 -61.25654916511996 0.3860581982160852
-0.001938974799320156 -61.66502782931291 0.3506171128002802
-0.0014883348561890108 -62.03243042671549 0.31585906347004705
-0.0011794444211239365 -62.358756957327735 0.2810681958955937
-0.0009663593930534462 -62.644007421149624 0.24719953118191557
-0.0008164597512981341 -62.88818181818117 0.2156462415908176

CELLS 100 350
4 0 51 52 1
4 1 52 53 2
4 2 53 54 3
4 3 54 55 4
4 4 55 56 5
4 5 56 57 6
4 6 57 58 7
4 7 58 59 8
4 8 59 60 9
4 9 60 61 10
4 10 61 62 11
4 11 62 63 12
4 12 63 64 13
4 13 64 65 14
4 14 65 66 15
4 15 66 67 16
4 16 67 68 17
4 17 68 69 18
4 18 69 70 19
4 19 70 71 20
4 20 71 72 21
4 21 72 73 22
4 22 73 74 23
4 23 74 75 24
4 24 75 76 25
4 25 76 77 26
4 26 77 78 27
4 27 78 79 28
4 28 79 80 29
4 29 80 81 30
4 30 81 82 31
4 31 82 83 32
4 32 83 84 33
4 33 84 85 34
4 34 85 86 35
4 35 86 87 36
4 36 87 88 37
4 37 88 89 38
4 38 89 90 39
4 39 90 91 40
4 40 91 92 41
4 41 92 93 42
4 42 93 94 43
4 43 94 95 44
4 44 95 96 45
4 45 96 97 46
4 46 97 98 47
4 47 98 99 48
4 48 99 100 49
4 49 100 101 50
1 102
1 103
1 104
1 105
1 106
1 107
1 108
1 109
1 110
1 111
1 112
1 113
1 114
1 115
1 116
1 117
1 118
1 119
1 120
1 121
1 122
1 123
1 124
1 125
1 126
1 127
1 128
1 129
1 130
1 131
1 132
1 133
1 134
1 135
1 136
1 137
1 138
1 139
1 140
1 141
1 142
1 143
1 144
1 145
1 146
1 147
1 148
1 149
1 150
1 151

CELL_TYPES 100
9
9
9
9
9
9
9
9
9
9
9
9
9
9
9
9
9
9
9
9
9
9
9
9
9
9
9
9
9
9
9
9
9
9
9
9
9
9
9
9
9
9
9
9
9
9
9
9
9
9
1
1
1
1
1
1
1
1
1
1
1
1
1
1
1
1
1
1
1
1
1
1
1
1
1
1
1
1
1
1
1
1
1
1
1
1
1
1
1
1
1
1
1
1
1
1
1
1
1
1

CELL_DATA 100

VECTORS S float
-3.45437645067816e-18 -8.763681363601095e-16 1.4431861306518085e-16
9.81571743119805e-18 1.7519616801780105e-15 -2.9321927590661683e-16
-0.0 -0.0 0.0
-7.170037079417e-20 4.3840965465628563e-16 -7.079686340838923e-17
0.0 -0.0 0.0
2.186057381042858e-17 -7.015061045798852e-15 1.1293974380938602e-15
-1.90596827765315e-17 7.0140923998407076e-15 -1.1354481358186427e-15
-3.609721511518592e-17 1.4026885164728338e-14 -2.2789430232377464e-15
0.0 -0.0 0.0
0.0 -0.0 0.0
8.619258933240455e-17 -2.8049132254347338e-14 4.5861004744763415e-15
4.4055168078812e-17 -1.4024115528063863e-14 2.2957862562230323e-15
-4.403720805564375e-17 1.402366409125708e-14 -2.29854256355465e-15
0.0 -0.0 0.0
0.0 -0.0 0.0
-3.622581280217448e-17 1.40222206951899e-14 -2.307467486759865e-15
0.0 -0.0 0.0
0.0 -0.0 0.0
1.4641379903259858e-17 -7.01040637870468e-15 1.1580526626868153e-15
1.399249349726334e-17 -7.010236376045191e-15 1.1590893391983497e-15
0.0 -0.0 0.0
-2.503402292360694e-17 1.4019838499197058e-14 -2.3220451095332393e-15
0.0 -0.0 0.0
0.0 -0.0 0.0
-2.2874426250192698e-17 1.4019067150661298e-14 -2.3267197344012042e-15
4.2623512134842005e-17 -2.8037627291275862e-14 4.65652295796256e-15
2.048774487924486e-17 -1.4018582114342499e-14 2.329662527561743e-15
1.9845684251922438e-17 -1.4018351004765503e-14 2.3310583417378396e-15
0.0 -0.0 0.0
1.8623462003759338e-17 -1.401787744344492e-14 2.3339144979626256e-15
1.812291554584618e-17 -1.4017637678527344e-14 2.3353580475039977e-15
-1.764685492259604e-17 1.4017395333627279e-14 -2.3368158647815174e-15
-1.740552341898681e-17 1.4017156311778057e-14 -2.3382509949776775e-15
1.681773601570087e-17 -1.4016907268893056e-14 2.339747746144305e-15
1.6481389994529898e-17 -1.401666389729138e-14 2.3412076564737472e-15
0.0 -0.0 0.0
0.0 -0.0 0.0
-3.114368862916804e-17 2.8031796374727575e-14 -4.6915870473417264e-15
-1.526644761186335e-17 1.4015668011456048e-14 -2.3471703953492565e-15
-1.497166700448312e-17 1.4015443570874219e-14 -2.348512102886975e-15
-1.4847913628473158e-17 1.4015229848023849e-14 -2.3497879868407768e-15
-2.893218605333158e-17 2.8030036048875668e-14 -4.702106865401605e-15
0.0 -0.0 0.0
-1.3796579973344999e-17 1.4014624302254087e-14 -2.35340329260185e-15
0.0 -0.0 0.0
0.0 -0.0 0.0
0.0 -0.0 0.0
6.58674448719341e-18 -7.007000533927544e-15 1.1785576211967426e-15
6.5333065001375195e-18 -7.006941183438732e-15 1.1789107268496405e-15
-6.46441913265474e-18 7.006889362409739e-15 -1.179219067170833e-15
-3.45437645067816e-18 -8.763681363601095e-16 1.4431861306518085e-16
9.81571743119805e-18 1.7519616801780105e-15 -2.9321927590661683e-16
-0.0 -0.0 0.0
-7.170037079417e-20 4.3840965465628563e-16 -7.079686340838923e-17
0.0 -0.0 0.0
2.186057381042858e-17 -7.015061045798852e-15 1.1293974380938602e-15
-1.90596827765315e-17 7.0140923998407076e-15 -1.1354481358186427e-15
-3.609721511518592e-17 1.4026885164728338e-14 -2.2789430232377464e-15
0.0 -0.0 0.0
0.0 -0.0 0.0
8.619258933240455e-17 -2.8049132254347338e-14 4.5861004744763415e-15
4.4055168078812e-17 -1.4024115528063863e-14 2.2957862562230323e-15
-4.403720805564375e-17 1.402366409125708e-14 -2.29854256355465e-15
0.0 -0.0 0.0
0.0 -0.0 0.0
-3.622581280217448e-17 1.40222206951899e-14 -2.307467486759865e-15
0.0 -0.0 0.0
0.0 -0.0 0.0
1.4641379903259858e-17 -7.01040637870468e-15 1.1580526626868153e-15
1.399249349726334e-17 -7.010236376045191e-15 1.1590893391983497e-15
0.0 -0.0 0.0
-2.503402292360694e-17 1.4019838499197058e-14 -2.3220451095332393e-15
0.0 -0.0 0.0
0.0 -0.0 0.0
-2.2874426250192698e-17 1.4019067150661298e-14 -2.3267197344012042e-15
4.2623512134842005e-17 -2.8037627291275862e-14 4.65652295796256e-15
2.048774487924486e-17 -1.4018582114342499e-14 2.329662527561743e-15
1.9845684251922438e-17 -1.4018351004765503e-14 2.3310583417378396e-15
0.0 -0.0 0.0
1.8623462003759338e-17 -1.401787744344492e-14 2.3339144979626256e-15
1.812291554584618e-17 -1.4017637678527344e-14 2.3353580475039977e-15
-1.764685492259604e-17 1.4017395333627279e-14 -2.3368158647815174e-15
-1.740552341898681e-17 1.4017156311778057e-14 -2.3382509949776775e-15
1.681773601570087e-17 -1.4016907268893056e-14 2.339747746144305e-15
1.6481389994529898e-17 -1.401666389729138e-14 2.3412076564737472e-15
0.0 -0.0 0.0
0.0 -0.0 0.0
-3.114368862916804e-17 2.8031796374727575e-14 -4.6915870473417264e-15
-1.526644761186335e-17 1.4015668011456048e-14 -2.3471703953492565e-15
-1.497166700448312e-17 1.4015443570874219e-14 -2.348512102886975e-15
-1.4847913628473158e-17 1.4015229848023849e-14 -2.3497879868407768e-15
-2.893218605333158e-17 2.8030036048875668e-14 -4.702106865401605e-15
0.0 -0.0 0.0
-1.3796579973344999e-17 1.4014624302254087e-14 -2.35340329260185e-15
0.0 -0.0 0.0
0.0 -0.0 0.0
0.0 -0.0 0.0
6.58674448719341e-18 -7.007000533927544e-15 1.1785576211967426e-15
6.5333065001375195e-18 -7.006941183438732e-15 1.1789107268496405e-15
-6.46441913265474e-18 7.006889362409739e-15 -1.179219067170833e-15

SCALARS Gamma float
LOOKUP_TABLE default
-0.0
-0.0
-0.0
50.85802074649182
54.41599422080168
54.52594916684144
52.427079914493056
47.76191085763788
44.778842584137884
47.312713936337644
53.77699303673492
54.44388762812216
50.434438650441734
45.51226495819016
44.5126405701331
43.74057618704261
40.09267598657094
38.00446887745989
33.33627639181426
33.67267047603099
33.253551859711
34.866727902395944
36.55608550414807
34.520196523313736
36.63154871174744
37.78965687012469
37.908560287210136
38.03743500856887
38.25320703616603
38.53715721746201
38.87774520305659
39.184299694353186
37.23063309361018
37.551941664092375
37.876205501625485
38.18825997046379
38.447642488094374
40.77423712967295
40.70895928889995
40.30246645612767
39.61590584231862
38.43753616839859
36.39167410346282
33.734561782012854
31.063770922900122
28.45817011972007
25.65263164455837
22.931674222387553
20.16396979609931
17.596534736615165
-0.0
-0.0
-0.0
50.85802074649182
54.41599422080168
54.52594916684144
52.427079914493056
47.76191085763788
44.778842584137884
47.312713936337644
53.77699303673492
54.44388762812216
50.434438650441734
45.51226495819016
44.5126405701331
43.74057618704261
40.09267598657094
38.00446887745989
33.33627639181426
33.67267047603099
33.253551859711
34.866727902395944
36.55608550414807
34.520196523313736
36.63154871174744
37.78965687012469
37.908560287210136
38.03743500856887
38.25320703616603
38.53715721746201
38.87774520305659
39.184299694353186
37.23063309361018
37.551941664092375
37.876205501625485
38.18825997046379
38.447642488094374
40.77423712967295
40.70895928889995
40.30246645612767
39.61590584231862
38.43753616839859
36.39167410346282
33.734561782012854
31.063770922900122
28.45817011972007
25.65263164455837
22.931674222387553
20.16396979609931
17.596534736615165

VECTORS Ftot float
114.62899673000423 -6.839290035933686 -38.78754123988343
138.06405235245356 -15.221376966831915 -86.32471846154196
141.63535351065218 -22.611228214537 -128.23464749233122
1257.9906778863512 2.4443553026291656 13.86262778848699
1288.589714530301 37.98708040539691 215.4354384834845
1383.8641373572852 49.599248557556955 281.29131661117384
1467.0733191601264 48.65943661091222 275.961378204308
1457.548180865638 47.72812150399978 270.67962777014014
1474.494580778969 51.1985453173939 290.3613792494107
1664.4598654622127 65.39937426173215 370.89828226493745
2019.9465595725098 85.3426281654575 484.00209555315536
2177.1440314456877 95.52616376958383 541.755795884267
2140.8618854259503 95.42444478197902 541.1789188391539
2049.7834054032814 87.68248359335807 497.27207510194177
2120.6542443957924 85.18539396700713 483.11037610206176
2192.4197055607574 84.85980817142986 481.26388729887856
2109.3077317415123 76.91524239814225 436.20801586407515
2090.5465847180344 73.22253764788579 415.2656465487297
1912.4983419245534 63.24284459303027 358.66799476136225
2007.406582727473 64.31810853872572 364.7661196278753
2054.581274594515 64.35838171575146 364.9945201645596
2230.921409461827 65.63773730221861 372.25010624291707
2413.9968447274923 69.58731285234575 394.64926225555985
2348.417786795496 66.2909497553568 375.9546581527477
2562.6497387501254 71.17568475278061 403.65736693728775
2717.578670851072 71.09909526323922 403.22300635767795
2795.5160019626464 71.02325489149524 402.7928942362132
2871.8266416354336 71.39679667296096 404.9113549503073
2953.1110119698774 71.73021708210665 406.80227605498476
3037.9068895001624 72.38616327596658 410.52233177887007
3125.647785747416 73.26498364192972 415.5063697430666
3209.234346611003 74.06342298423826 420.0345442691686
3102.1648741282056 71.3956368203807 404.90477709945543
3181.308134568142 71.57143955644311 405.90180396032525
3258.4033010274466 72.66832302774124 412.1225392493376
3332.7349639350214 73.93097735416764 419.28340777526125
3401.302773445265 74.48660560218129 422.4345321566871
3652.5995777726807 79.85728172817646 452.8931500290986
3690.0403186729923 79.9965202507029 453.6828109304931
3693.5625213497465 79.41011472606928 450.35713993971524
3667.1959945778576 79.03706189718721 448.2414522135193
3592.3133600114666 76.24995210448733 432.43496711690193
3431.4622390463473 71.44878737777584 405.20620888931313
3206.3565240797425 66.24142842673388 375.6738087420451
2973.939950788179 61.04972009642521 346.2301676756076
2741.8373195099 56.59184903755302 320.94832458522575
2486.0400667433187 51.00674518778093 289.27362666133627
2233.903890018989 45.54505091620057 258.2988192346123
1973.0525593170398 40.15672176103088 227.74008605878223
1728.4729781732742 35.00430475005415 198.5192771373408
114.62899673000423 -6.839290035933686 -38.78754123988343
138.06405235245356 -15.221376966831915 -86.32471846154196
141.63535351065218 -22.611228214537 -128.23464749233122
1257.9906778863512 2.4443553026291656 13.86262778848699
1288.589714530301 37.98708040539691 215.4354384834845
1383.8641373572852 49.599248557556955 281.29131661117384
1467.0733191601264 48.65943661091222 275.961378204308
1457.548180865638 47.72812150399978 270.67962777014014
1474.494580778969 51.1985453173939 290.3613792494107
1664.4598654622127 65.39937426173215 370.89828226493745
2019.9465595725098 85.3426281654575 484.00209555315536
2177.1440314456877 95.52616376958383 541.755795884267
2140.8618854259503 95.42444478197902 541.1789188391539
2049.7834054032814 87.68248359335807 497.27207510194177
2120.6542443957924 85.18539396700713 483.11037610206176
2192.4197055607574 84.85980817142986 481.26388729887856
2109.3077317415123 76.91524239814225 436.20801586407515
2090.5465847180344 73.22253764788579 415.2656465487297
1912.4983419245534 63.24284459303027 358.66799476136225
2007.406582727473 64.31810853872572 364.7661196278753
2054.581274594515 64.35838171575146 364.9945201645596
2230.921409461827 65.63773730221861 372.25010624291707
2413.9968447274923 69.58731285234575 394.64926225555985
2348.417786795496 66.2909497553568 375.9546581527477
2562.6497387501254 71.17568475278061 403.65736693728775
2717.578670851072 71.09909526323922 403.22300635767795
2795.5160019626464 71.02325489149524 402.7928942362132
2871.8266416354336 71.39679667296096 404.9113549503073
2953.1110119698774 71.73021708210665 406.80227605498476
3037.9068895001624 72.38616327596658 410.52233177887007
3125.647785747416 73.26498364192972 415.5063697430666
3209.234346611003 74.06342298423826 420.0345442691686
3102.1648741282056 71.3956368203807 404.90477709945543
3181.308134568142 71.57143955644311 405.90180396032525
3258.4033010274466 72.66832302774124 412.1225392493376
3332.7349639350214 73.93097735416764 419.28340777526125
3401.302773445265 74.48660560218129 422.4345321566871
3652.5995777726807 79.85728172817646 452.8931500290986
3690.0403186729923 79.9965202507029 453.6828109304931
3693.5625213497465 79.41011472606928 450.35713993971524
3667.1959945778576 79.03706189718721 448.2414522135193
3592.3133600114666 76.24995210448733 432.43496711690193
3431.4622390463473 71.44878737777584 405.20620888931313
3206.3565240797425 66.24142842673388 375.6738087420451
2973.939950788179 61.04972009642521 346.2301676756076
2741.8373195099 56.59184903755302 320.94832458522575
2486.0400667433187 51.00674518778093 289.27362666133627
2233.903890018989 45.54505091620057 258.2988192346123
1973.0525593170398 40.15672176103088 227.74008605878223
1728.4729781732742 35.00430475005415 198.5192771373408

VECTORS D float
90.41642954101368 4.70198281271111 30.71676068374933
58.73028716084458 5.835703565692719 36.83389809214132
11.880193340195737 1.7330628087028876 10.784995368178798
523.1230136425798 100.05566444743472 619.0650132328099
508.9259340506548 119.93485861817314 739.0384218728921
467.9422192635331 130.6264759702576 802.3067762886166
406.465982008566 130.74820545340654 800.8581394441226
342.7140419857594 124.44199741143184 760.5115912027834
306.14467316276205 123.48401980398702 753.3216537800307
318.3678960506561 140.84080592233553 857.9955113583422
355.46693583203285 171.009746859985 1039.2350576185238
352.63660442956615 182.50178603735353 1108.0694727966948
319.2795906273148 176.5278724843384 1070.8992053197296
276.2376424562474 162.20742631204783 983.2457845318777
257.19100314226444 159.58655487126637 966.6355037843747
243.5151787998916 158.9723596475554 962.2341328194395
213.32878824640812 145.96407936762876 882.9029240810321
195.27064714593806 139.57789461757312 843.1966730395043
164.3396936366304 122.27262005516741 738.1137518433617
161.20774591783265 124.50360017924184 751.0585587740204
155.37386431411403 124.24817139021248 749.0228531094704
156.42892514644447 129.22287854772432 778.5239980569559
160.523361828249 136.69083054520203 823.0240108218729
148.47318030574914 130.06493842247852 782.6818679524067
154.7900317577696 139.23696495147942 837.4156971014804
153.85230422830904 141.99154517768088 853.5442287150178
151.00215891802134 142.6225520956748 856.8933227816076
148.85539633276258 143.66732396934103 862.7089258621983
147.08648849877923 144.85545465373858 869.3648962115258
145.95436448606165 146.47540758268977 878.5909416139784
145.3110491013403 148.41703378659625 889.7234183393281
144.680075497166 150.21616954744115 899.9794624142569
136.64081664909858 144.0550140819174 862.5521166373776
135.87238856189708 145.3001850079338 869.4843949733571
136.00427105994248 147.38372255199664 881.419705682506
136.34585392049868 149.58973022879846 894.0730548966699
136.09152104619662 151.03527597780348 902.1722210572044
143.8060268573486 161.35680427807853 963.1372892541144
142.69419959188568 161.71067865296698 964.6955145954475
140.44555478844157 160.63817294173538 957.7606780691665
137.9374199702425 159.12245136448416 948.2087998721928
132.69701936499757 154.28799195578227 918.9197279562854
124.37155389785691 145.6590502793506 867.0928552372733
114.7289469435135 135.25926479138187 804.8025250549308
105.2141561123972 124.7914323925839 742.1888719147585
96.51186666443071 115.09406817726286 684.2336450271746
86.68009164113533 103.87322916141154 617.2943403918892
77.20105871768969 92.9125632015556 551.9712100740522
67.77919046511606 81.87906691401372 486.27853724569195
58.980216277042764 71.47751595249011 424.3942345175168
90.41642954101368 4.70198281271111 30.71676068374933
58.73028716084458 5.835703565692719 36.83389809214132
11.880193340195737 1.7330628087028876 10.784995368178798
523.1230136425798 100.05566444743472 619.0650132328099
508.9259340506548 119.93485861817314 739.0384218728921
467.9422192635331 130.6264759702576 802.3067762886166
406.465982008566 130.74820545340654 800.8581394441226
342.7140419857594 124.44199741143184 760.5115912027834
306.14467316276205 123.48401980398702 753.3216537800307
318.3678960506561 140.84080592233553 857.9955113583422
355.46693583203285 171.009746859985 1039.2350576185238
352.63660442956615 182.50178603735353 1108.0694727966948
319.2795906273148 176.5278724843384 1070.8992053197296
276.2376424562474 162.20742631204783 983.2457845318777
257.19100314226444 159.58655487126637 966.6355037843747
243.5151787998916 158.9723596475554 962.2341328194395
213.32878824640812 145.96407936762876 882.9029240810321
195.27064714593806 139.57789461757312 843.1966730395043
164.3396936366304 122.27262005516741 738.1137518433617
161.20774591783265 124.50360017924184 751.0585587740204
155.37386431411403 124.24817139021248 749.0228531094704
156.42892514644447 129.22287854772432 778.5239980569559
160.523361828249 136.69083054520203 823.0240108218729
148.47318030574914 130.06493842247852 782.6818679524067
154.7900317577696 139.23696495147942 837.4156971014804
153.85230422830904 141.99154517768088 853.5442287150178
151.00215891802134 142.6225520956748 856.8933227816076
148.85539633276258 143.66732396934103 862.7089258621983
147.08648849877923 144.85545465373858 869.3648962115258
145.95436448606165 146.47540758268977 878.5909416139784
145.3110491013403 148.41703378659625 889.7234183393281
144.680075497166 150.21616954744115 899.9794624142569
136.64081664909858 144.0550140819174 862.5521166373776
135.87238856189708 145.3001850079338 869.4843949733571
136.00427105994248 147.38372255199664 881.419705682506
136.34585392049868 149.58973022879846 894.0730548966699
136.09152104619662 151.03527597780348 902.1722210572044
143.8060268573486 161.35680427807853 963.1372892541144
142.69419959188568 161.71067865296698 964.6955145954475
140.44555478844157 160.63817294173538 957.7606780691665
137.9374199702425 159.12245136448416 948.2087998721928
132.69701936499757 154.28799195578227 918.9197279562854
124.37155389785691 145.6590502793506 867.0928552372733
114.7289469435135 135.25926479138187 804.8025250549308
105.2141561123972 124.7914323925839 742.1888719147585
96.51186666443071 115.09406817726286 684.2336450271746
86.68009164113533 103.87322916141154 617.2943403918892
77.20105871768969 92.9125632015556 551.9712100740522
67.77919046511606 81.87906691401372 486.27853724569195
58.980216277042764 71.47751595249011 424.3942345175168

VECTORS L float
24.212567188990537 -11.541272848644795 -69.50430192363275
79.33376519160899 -21.05708053252464 -123.1586165536833
129.75516017045646 -24.344291023239894 -139.01964286051006
734.8676642437715 -97.61130914480552 -605.2023854443228
779.6637804796462 -81.94777821277624 -523.6029833894077
915.9219180937523 -81.02722741270064 -521.0154596774428
1060.6073371515604 -82.0887688424943 -524.8967612398144
1114.8341388798783 -76.71387590743204 -489.83196343264325
1168.349907616207 -72.28547448659316 -462.9602745306203
1346.091969411557 -75.44143166060337 -487.0972290934046
1664.4796237404776 -85.6671186945275 -555.2329620653686
1824.5074270161213 -86.9756222677697 -566.3136769124276
1821.5822947986353 -81.10342770235938 -529.720286480576
1773.5457629470345 -74.52494271868976 -485.9737094299357
1863.4632412535284 -74.4011609042593 -483.52512768231315
1948.9045267608658 -74.11255147612556 -480.970245520561
1895.9789434951042 -69.04883696948644 -446.6949082169566
1895.2759375720968 -66.35535696968735 -427.9310264907748
1748.1586482879231 -59.02977546213715 -379.4457570819995
1846.1988368096409 -60.185491640516155 -386.2924391461452
1899.2074102804013 -59.889789674461035 -384.02833294491086
2074.492484315382 -63.5851412455057 -406.2738918140389
2253.4734828992437 -67.10351769285631 -428.37474856631326
2199.944606489747 -63.773988667121685 -406.727209799659
2407.8597069923558 -68.06128019869884 -433.75833016419284
2563.7263666227627 -70.89244991444167 -450.32122235733993
2644.513843044625 -71.59929720417956 -454.1004285453943
2722.971245302671 -72.2705272963801 -457.797570911891
2806.0245234710983 -73.12523757163193 -462.562620156541
2891.952525014101 -74.08924430672317 -468.0686098351082
2980.336736646076 -75.15205014466659 -474.2170485962617
3064.554271113837 -76.1527465632029 -479.94491814508814
2965.5240574791073 -72.65937726153673 -457.6473395379224
3045.4357460062456 -73.72874545149071 -463.58259101303173
3122.3990299675047 -74.71539952425542 -469.29716643316874
3196.389110014522 -75.65875287463079 -474.78964712140845
3265.211252399068 -76.54867037562222 -479.7376889005174
3508.7935509153317 -81.49952254990201 -510.2441392250155
3547.3461190811067 -81.71415840226412 -511.0127036649547
3553.1169665613047 -81.2280582156661 -507.4035381294513
3529.2585746076156 -80.085389467297 -499.96734765867376
3459.61634064647 -78.03803985129498 -486.48476083938374
3307.09068514849 -74.21026290157477 -461.8866463479603
3091.62757713623 -69.01783636464799 -429.1287163128858
2868.7257946757813 -63.74171229615867 -395.9587042391508
2645.32545284547 -58.50221913970983 -363.28532044194884
2399.3599751021834 -52.8664839736306 -328.02071373055304
2156.702831301299 -47.36751228535503 -293.67239083943997