# vtk DataFile Version 4.0
[MyVLM domain - lattices] 
ASCII
DATASET UNSTRUCTURED_GRID
POINTS 152 float
0.0 -1.1510439466716933 2.015212393634636
0.0 -0.4371076714393352 4.135249313278729
0.0 0.2035830497231701 6.238233197137555
0.0 0.8232605812048334 8.30515301930817
0.0 1.4223925781497742 10.335838567238211
0.0 2.0350602108292595 12.317885309399978
0.0 2.6903582495738148 14.24070361542035
0.0 3.3956588658026123 16.101610234340843
0.0 4.105476164477498 17.917160678034296
0.0 4.801408469608816 19.694052608821558
0.0 5.483627706210294 21.432223451115103
0.0 6.152506411369632 23.131537612503855
0.0 6.80842992339774 24.791854841312514
0.0 7.45451431598546 26.412040979469836
0.0 8.088693571225047 27.992847995997703
0.0 8.706442843889318 29.535922799873465
0.0 9.307089828163027 31.041510090402202
0.0 9.891734041751706 32.50920967586705
0.0 10.46116775204585 33.93873319452028
0.0 11.015391195827048 35.33008056018046
0.0 11.55440460355334 36.68325168896771
0.0 12.078208199359231 37.99824649930375
0.0 12.586802201055667 39.27506491191186
0.0 13.080186820130066 40.513706849816934
0.0 13.558362261746296 41.714172238345434
0.0 14.021328724744672 42.87646100512538
0.0 14.469086401641981 44.00057308008641
0.0 14.901635478631457 45.08650839545974
0.0 15.318975856447896 46.134266987374936
0.0 15.721103874569636 47.14385018815292
0.0 16.108018944685984 48.11525821192127
0.0 16.479721809882246 49.04849078821907
0.0 16.836213184039483 49.94354765721485
0.0 17.177493751834533 50.80042856970662
0.0 17.503564168740027 51.61913328712186
0.0 17.814425061024345 52.39966158151752
0.0 18.110467466092548 53.14187112691768
0.0 18.39293160501159 53.84531051977004
0.0 18.663715446629404 54.50928895590838
0.0 18.923809152857434 55.13344604586988
0.0 19.172646194735563 55.717987989332826
0.0 19.41052117976531 56.2628075579359
0.0 19.64859985639814 56.76384075159945
0.0 19.88663200692899 57.221178642120194
0.0 20.116189894490994 57.63788867485992
0.0 20.33152623324066 58.016062690793476
0.0 20.53117544590543 58.3562341164241
0.0 20.716510854897727 58.65790310327158
0.0 20.886304696029736 58.92151652095502
0.0 21.0381379028429 59.14795483766003
0.0 21.169916358104437 59.33798024972641
-0.8152906132198464 2.087868298850524 0.8363447448642465
-0.840508508580286 2.901663877055231 2.920035850611834
-0.8937965186637556 3.755052607368992 4.945603990251922
-0.9506477078574832 4.602151253977439 6.929749295872761
-1.02068187720969 5.4420128967034795 8.872816418233036
-1.0489549773990687 6.245568549420913 10.785385603022979
-0.9930987765435385 6.99234817186795 12.674907335592119
-0.9074282632533693 7.664144841146204 14.548008393933038
-0.8389431825969345 8.299295327062644 16.390735334958098
-0.7804380392478915 8.916056823082354 18.196443083684755
-0.7250391551382538 9.518180702132225 19.963766252029995
-0.6716005320172311 10.105383221053815 21.69280811405767
-0.6190912009116674 10.676981227206184 23.383817316994534
-0.5668551203522249 11.229657946224208 25.03800106798328
-0.5160737545271722 11.765370361597455 26.65464708328475
-0.46824322159258325 12.288817835295443 28.232044935021996
-0.42447592168765613 12.800672331016143 29.769950048410447
-0.38457409080794247 13.299840663685213 31.268760310277717
-0.3477110964547294 13.785616424912599 32.72873283225101
-0.31305686768839563 14.258116341290545 34.14982512932521
-0.2804728235147938 14.717379411603762 35.532023007103504
-0.25028172479702737 15.16340814140861 36.875325553637964
-0.22269967179246206 15.59622057581504 38.17972620104568
-0.19756508903559172 16.015861916551682 39.44520849724291
-0.17527331282134875 16.422342529791514 40.671768669251236
-0.15618952887337012 16.815680767491006 41.859400037504756
-0.1399679949396797 17.195930160769628 43.0080831182694
-0.12575834684106657 17.563155562879466 44.117794306891795
-0.11252036551220733 17.917414247324984 45.18851275752111
-0.1000861977220127 18.25871545650097 46.22023510620075
-0.08845640514293837 18.587063359196286 47.21295983561564
-0.07764813403821604 18.902462817508393 48.16668517610705
-0.06766754153320646 19.20491923661325 49.081409160351804
-0.05846867713071907 19.4944392544457 49.95712937233921
-0.05000632361005495 19.771028925730445 50.79384360832971
-0.04224556628624775 20.03469358649284 51.591549926168874
-0.03513713503931205 20.285150917615862 52.3503510816119
-0.02861025434192226 20.52148946980722 53.0705788150712
-0.022599563624171346 20.74088754609297 53.753260140255406
-0.017476911002667815 20.94188428071019 54.39892676881851
-0.0133557109559299 21.127121726425923 55.00661707219594
-0.010110762084749267 21.29652630742267 55.57635782979519
-0.007505342360414162 21.436459310081453 56.11311312740729
-0.005475063785658977 21.546800536717523 56.616926713411694
-0.0039854477514337135 21.637820717965436 57.08406034757326
-0.0029419419370200197 21.716273279831736 57.51205598384631
-0.0022286575278371427 21.783236747067694 57.90052107132442
-0.0017402354220080998 21.83593762343985 58.25046508008145
-0.0014049497010025483 21.875307064340095 58.56154909727126
-0.0011720086804935075 21.90402266135187 58.832798559257995
-0.0010052173229957839 21.924402293977437 59.06336982689615
-0.6209246706750498 1.6725556137007798 2.177450436667701
-0.6503643852165156 2.467078103944563 4.246300254125944
-0.6916665849454646 3.2623069018709123 6.271180759352472
-0.73924859440019 4.047268201424671 8.25608609110797
-0.7761138204782846 4.8150246409190265 10.203541242550779
-0.7657701577284777 5.554896078033708 12.117433467583204
-0.7126976399238405 6.25693701930236 14.001382629792081
-0.6548892921938638 6.923931941863331 15.854375262381067
-0.6072679581918097 7.5691176355651635 17.671593567848053
-0.5645539478948045 8.198468593932857 19.450863008385113
-0.5237398826833068 8.813353235892256 21.191685520235247
-0.4840093998483369 9.413503709943422 22.894158593371625
-0.4447298704739596 9.997857719959297 24.55866887196447
-0.40609832807977386 10.566036601334439 26.18535417865895
-0.3691188660449083 11.119712625724132 27.773605856348926
-0.3347696787300898 11.660250396373387 29.322927230071624
-0.3033937546858495 12.18754535675235 30.833356355291713
-0.27460694522350193 12.701159132448874 32.305052787246694
-0.24778798655367185 13.200969655810292 33.73806095492868
-0.22257363420119602 13.687035382257912 35.1323595823043
-0.19903295561693296 14.15937193274371 36.48794298381199
-0.17736802372105853 14.617987069010729 37.80480833440832
-0.15759928531052017 15.062904562285736 39.08294698207432
-0.1398144006963527 15.494145302613244 40.3223513234556
-0.12429856563551955 15.911720109792316 41.52301742046735
-0.11105907142989367 16.31565598889607 42.68493544406678
-0.09964737816777985 16.70599738140259 43.80808921887871
-0.08935451713247772 17.082790095711587 44.89246207200917
-0.07972746121283251 17.446058605311922 45.93804509583667
-0.07070347607435665 17.79580740829342 46.944836653190414
-0.06228920219293291 18.13203991058528 47.91283550441354
-0.05449337833928344 18.454760144535832 48.84204018185131
-0.04730108199897208 18.763972801131356 49.73244897812432
-0.04067812527779026 19.059682807637873 50.584060099854405
-0.03459445871111351 19.341894595804273 51.396871934016886
-0.029018512997084925 19.610553254930373 52.17090446647218
-0.023905271017962866 19.865415029171672 52.90624641709212
-0.0192036817372851 20.105472262417695 53.60326454270729
-0.015028677985064689 20.32948000998704 54.262411966125
-0.011562233234474143 20.537934171125166 54.88350819478076
-0.008799927390254687 20.73176393450583 55.46621503165527
-0.006606039166936287 20.90725973608448 56.01188264764285
-0.004867652304777427 21.060626425465507 56.52189236452207
-0.003547691826409759 21.194585708183606 56.99525356249187
-0.00259777113317015 21.313749765140393 57.430287544989014
-0.001938974799321436 21.420153969980547 57.82625349659122
-0.0014883348561919659 21.51315117654072 58.18338695923916
-0.001179444421128993 21.592068701783415 58.50193276953559
-0.000966359393061021 21.657803971993566 58.78156429102534
-0.0008164597513084843 21.711666140866907 59.0218050307311

CELLS 100 350
4 0 51 52 1
4 1 52 53 2
4 2 53 54 3
4 3 54 55 4
4 4 55 56 5
4 5 56 57 6
4 6 57 58 7
4 7 58 59 8
4 8 59 60 9
4 9 60 61 10
4 10 61 62 11
4 11 62 63 12
4 12 63 64 13
4 13 64 65 14
4 14 65 66 15
4 15 66 67 16
4 16 67 68 17
4 17 68 69 18
4 18 69 70 19
4 19 70 71 20
4 20 71 72 21
4 21 72 73 22
4 22 73 74 23
4 23 74 75 24
4 24 75 76 25
4 25 76 77 26
4 26 77 78 27
4 27 78 79 28
4 28 79 80 29
4 29 80 81 30
4 30 81 82 31
4 31 82 83 32
4 32 83 84 33
4 33 84 85 34
4 34 85 86 35
4 35 86 87 36
4 36 87 88 37
4 37 88 89 38
4 38 89 90 39
4 39 90 91 40
4 40 91 92 41
4 41 92 93 42
4 42 93 94 43
4 43 94 95 44
4 44 95 96 45
4 45 96 97 46
4 46 97 98 47
4 47 98 99 48
4 48 99 100 49
4 49 100 101 50
1 102
1 103
1 104
1 105
1 106
1 107
1 108
1 109
1 110
1 111
1 112
1 113
1 114
1 115
1 116
1 117
1 118
1 119
1 120
1 121
1 122
1 123
1 124
1 125
1 126
1 127
1 128
1 129
1 130
1 131
1 132
1 133
1 134
1 135
1 136
1 137
1 138
1 139
1 140
1 141
1 142
1 143
1 144
1 145
1 146
1 147
1 148
1 149
1 150
1 151

CELL_TYPES 100
9
9
9
9
9
9
9
9
9
9
9
9
9
9
9
9
9
9
9
9
9
9
9
9
9
9
9
9
9
9
9
9
9
9
9
9
9
9
9
9
9
9
9
9
9
9
9
9
9
9
1
1
1
1
1
1
1
1
1
1
1
1
1
1
1
1
1
1
1
1
1
1
1
1
1
1
1
1
1
1
1
1
1
1
1
1
1
1
1
1
1
1
1
1
1
1
1
1
1
1

CELL_DATA 100

VECTORS S float
-0.0 0.0 0.0
4.053920803104116e-17 -3.4967879931254647e-15 -6.185299365260388e-15
-0.0 0.0 0.0
1.2843326862805999e-19 4.325264147549395e-16 7.757459566540745e-16
-3.853730741046754e-17 -6.908459872573869e-15 -1.241853811048439e-14
-4.49269036341098e-17 -6.916162743909414e-15 -1.241422837753794e-14
-7.768482090299183e-17 -1.3856336048637739e-14 -2.4815105950250136e-14
7.306696763327472e-17 1.3872778207222105e-14 2.4805931810310624e-14
-3.6672602381412167e-17 -6.945446007837455e-15 -1.2397896055743828e-14
0.0 0.0 0.0
0.0 0.0 0.0
-8.747595402875625e-17 -1.3909243563084105e-14 -2.4785456590641738e-14
8.748651052262304e-17 1.3915128829837598e-14 2.4782152906997714e-14
0.0 0.0 0.0
7.543496539259674e-17 1.3928544837911925e-14 2.4774654694073732e-14
0.0 0.0 0.0
0.0 0.0 0.0
0.0 0.0 0.0
0.0 0.0 0.0
5.5228092018904824e-17 1.395190582081806e-14 2.4761559740274666e-14
0.0 0.0 0.0
0.0 0.0 0.0
0.0 0.0 0.0
0.0 0.0 0.0
-4.5372187457502416e-17 -1.3965384710366198e-14 -2.4753980249697043e-14
0.0 0.0 0.0
4.0513560427835776e-17 1.3971813239316168e-14 2.475036081360042e-14
0.0 0.0 0.0
3.792864637862224e-17 1.3976809478245954e-14 2.4747543821012095e-14
3.689284359987926e-17 1.3978835266866459e-14 2.474640116150665e-14
3.5873449128339976e-17 1.3981512321622646e-14 2.47448902451047e-14
0.0 0.0 0.0
3.4375619134300336e-17 1.3986918863560921e-14 2.474183675411526e-14
3.321282916242822e-17 1.3989719693264973e-14 2.474025478361469e-14
3.2509021877212096e-17 1.3992467593422279e-14 2.4738701678884444e-14
0.0 0.0 0.0
3.103340641566548e-17 1.3998499725905547e-14 2.4735290766389312e-14
-3.059595445125394e-17 -1.400106153168296e-14 -2.473384132762064e-14
0.0 0.0 0.0
-2.937618002174442e-17 -1.400603115311751e-14 -2.4731028998492266e-14
-2.910152976349791e-17 -1.4008350854386807e-14 -2.4729715453026993e-14
-2.836520192434504e-17 -1.4010635593247878e-14 -2.4728421960061496e-14
2.752071133222264e-17 1.4012832296196254e-14 2.4727178176966394e-14
0.0 0.0 0.0
0.0 0.0 0.0
-5.3006927710238e-17 -2.8036965132376174e-14 -4.944795288196269e-14
-2.612774009405877e-17 -1.402008277522788e-14 -2.472306945472734e-14
2.576644381130338e-17 1.4021525231938378e-14 2.472225178269174e-14
-2.5549788638440688e-17 -1.4022787668481619e-14 -2.4721535958740444e-14
-1.2637519187534519e-17 -7.011944374254835e-15 -1.2360455821774688e-14
-0.0 0.0 0.0
4.053920803104116e-17 -3.4967879931254647e-15 -6.185299365260388e-15
-0.0 0.0 0.0
1.2843326862805999e-19 4.325264147549395e-16 7.757459566540745e-16
-3.853730741046754e-17 -6.908459872573869e-15 -1.241853811048439e-14
-4.49269036341098e-17 -6.916162743909414e-15 -1.241422837753794e-14
-7.768482090299183e-17 -1.3856336048637739e-14 -2.4815105950250136e-14
7.306696763327472e-17 1.3872778207222105e-14 2.4805931810310624e-14
-3.6672602381412167e-17 -6.945446007837455e-15 -1.2397896055743828e-14
0.0 0.0 0.0
0.0 0.0 0.0
-8.747595402875625e-17 -1.3909243563084105e-14 -2.4785456590641738e-14
8.748651052262304e-17 1.3915128829837598e-14 2.4782152906997714e-14
0.0 0.0 0.0
7.543496539259674e-17 1.3928544837911925e-14 2.4774654694073732e-14
0.0 0.0 0.0
0.0 0.0 0.0
0.0 0.0 0.0
0.0 0.0 0.0
5.5228092018904824e-17 1.395190582081806e-14 2.4761559740274666e-14
0.0 0.0 0.0
0.0 0.0 0.0
0.0 0.0 0.0
0.0 0.0 0.0
-4.5372187457502416e-17 -1.3965384710366198e-14 -2.4753980249697043e-14
0.0 0.0 0.0
4.0513560427835776e-17 1.3971813239316168e-14 2.475036081360042e-14
0.0 0.0 0.0
3.792864637862224e-17 1.3976809478245954e-14 2.4747543821012095e-14
3.689284359987926e-17 1.3978835266866459e-14 2.474640116150665e-14
3.5873449128339976e-17 1.3981512321622646e-14 2.47448902451047e-14
0.0 0.0 0.0
3.4375619134300336e-17 1.3986918863560921e-14 2.474183675411526e-14
3.321282916242822e-17 1.3989719693264973e-14 2.474025478361469e-14
3.2509021877212096e-17 1.3992467593422279e-14 2.4738701678884444e-14
0.0 0.0 0.0
3.103340641566548e-17 1.3998499725905547e-14 2.4735290766389312e-14
-3.059595445125394e-17 -1.400106153168296e-14 -2.473384132762064e-14
0.0 0.0 0.0
-2.937618002174442e-17 -1.400603115311751e-14 -2.4731028998492266e-14
-2.910152976349791e-17 -1.4008350854386807e-14 -2.4729715453026993e-14
-2.836520192434504e-17 -1.4010635593247878e-14 -2.4728421960061496e-14
2.752071133222264e-17 1.4012832296196254e-14 2.4727178176966394e-14
0.0 0.0 0.0
0.0 0.0 0.0
-5.3006927710238e-17 -2.8036965132376174e-14 -4.944795288196269e-14
-2.612774009405877e-17 -1.402008277522788e-14 -2.472306945472734e-14
2.576644381130338e-17 1.4021525231938378e-14 2.472225178269174e-14
-2.5549788638440688e-17 -1.4022787668481619e-14 -2.4721535958740444e-14
-1.2637519187534519e-17 -7.011944374254835e-15 -1.2360455821774688e-14

SCALARS Gamma float
LOOKUP_TABLE default
-0.0
-0.0
-0.0
51.32640352991432
55.00500367325249
55.057433905275495
52.82358420488087
48.06652858395296
45.046934987752955
47.6833188965369
54.3246448231887
54.96976137970603
51.08049300662396
46.18252080902197
45.184453928481375
44.422001379326296
40.789633493175664
38.50324456620091
33.793552626213206
34.1259270310807
33.68727092515802
35.27364142169788
36.92780766231099
34.83169399839924
36.92456731336948
38.181002104974056
38.30277880285064
38.419015134284074
38.62133169505595
38.90894393168341
39.24110763965511
39.539509740064794
37.55810637740183
37.87105932921188
38.18683345477309
38.490335662281126
38.744356704720346
41.0941026015354
41.02153753235891
40.60645948908597
39.91022364721934
38.71963376553312
36.65587967556302
33.977028087794345
31.28906540129016
28.659809656183548
25.834109956208295
23.088975805574897
20.302294239947013
17.717304856928
-0.0
-0.0
-0.0
51.32640352991432
55.00500367325249
55.057433905275495
52.82358420488087
48.06652858395296
45.046934987752955
47.6833188965369
54.3246448231887
54.96976137970603
51.08049300662396
46.18252080902197
45.184453928481375
44.422001379326296
40.789633493175664
38.50324456620091
33.793552626213206
34.1259270310807
33.68727092515802
35.27364142169788
36.92780766231099
34.83169399839924
36.92456731336948
38.181002104974056
38.30277880285064
38.419015134284074
38.62133169505595
38.90894393168341
39.24110763965511
39.539509740064794
37.55810637740183
37.87105932921188
38.18683345477309
38.490335662281126
38.744356704720346
41.0941026015354
41.02153753235891
40.60645948908597
39.91022364721934
38.71963376553312
36.65587967556302
33.977028087794345
31.28906540129016
28.659809656183548
25.834109956208295
23.088975805574897
20.302294239947013
17.717304856928

VECTORS Ftot float
116.04959617108287 -34.236034020477376 19.766183457707754
139.61328790656657 -76.17896365021856 43.9819451700403
142.9820819007132 -113.14449337348566 65.32400370650562
1277.792977316944 10.690775794659107 -6.172322282892356
1306.2718279722114 192.58916938339544 -111.19140878650954
1400.4583092365758 250.47539729927794 -144.61203805611623
1481.0976782965517 244.4564266365897 -141.13698372376874
1469.314793609052 239.14109323636492 -138.06817455431639
1486.6503800640883 256.5825805095305 -148.13802192654592
1680.1237444523917 329.17347877010155 -190.04839657800323
2041.9470265270493 430.2358479931249 -248.396782653857
2199.8514256829662 480.3089902615578 -277.30652482170706
2169.1249283447314 483.0528817217396 -278.89071129487013
2080.901489818859 445.4615635384803 -257.1873536225726
2153.365822104004 433.0453229435343 -250.0188337727574
2227.0186589902523 431.80912691828246 -249.30511566480706
2146.2004655901524 392.20086780957536 -226.43727660626263
2117.893489679266 371.5416160439344 -214.50965203811361
1938.761453011353 320.9238558068796 -185.28547453947417
2034.911022489317 326.5205699133529 -188.5167389354239
2081.823379660584 326.6457911592446 -188.5890354554477
2257.471824440246 332.4376068908642 -191.93294182719498
2439.024045132021 351.9686604305818 -203.2092008459079
2370.004025267172 334.9371489880311 -193.37605312984508
2583.5091092786106 359.2025846422259 -207.38570893679795
2745.7309911842813 360.4540518500772 -208.1082438661329
2824.668781131104 360.0763443726248 -207.89017435235084
2900.6950332963197 361.8064437168231 -208.8890476744485
2981.5497093285767 363.3971529473638 -209.80744407690358
3067.199622529341 366.7924687870191 -211.7677305909124
3154.811215378722 371.1148215813955 -214.26324214027812
3238.241096240142 375.03634689426167 -216.52733583529536
3129.3594345795696 361.24336840881017 -208.5639559937932
3208.163568584336 362.33236189627274 -209.19268667692546
3284.918879741829 367.6963761342 -212.2896017411298
3358.849728587908 373.9589952872027 -215.90532659494795
3427.735249191517 376.6434504249297 -217.45519749134212
3681.3921553136624 403.67109539453514 -233.0596155901054
3718.4953534487804 404.3051418884927 -233.42568250407055
3721.524725560014 401.28522976137526 -231.68213542455027
3694.548591678983 399.16173724552453 -230.45613644890173
3618.70869511313 385.41337486955945 -222.51851573022176
3456.3939765519117 361.1183140768537 -208.49175584157481
3229.4056879013274 334.77237154674145 -193.28091882976014
2995.4986982064233 308.5547297633344 -178.14415628859294
2761.2400902617765 285.9672821636146 -165.10328733658818
2503.594979633015 257.74769211199913 -148.8106994238671
2249.1924995196455 230.09047999474885 -132.84280056293812
1986.5507145559716 202.8633207037295 -117.12319281699935
1740.2987419639815 176.83839261678412 -102.09769358036081
116.04959617108287 -34.236034020477376 19.766183457707754
139.61328790656657 -76.17896365021856 43.9819451700403
142.9820819007132 -113.14449337348566 65.32400370650562
1277.792977316944 10.690775794659107 -6.172322282892356
1306.2718279722114 192.58916938339544 -111.19140878650954
1400.4583092365758 250.47539729927794 -144.61203805611623
1481.0976782965517 244.4564266365897 -141.13698372376874
1469.314793609052 239.14109323636492 -138.06817455431639
1486.6503800640883 256.5825805095305 -148.13802192654592
1680.1237444523917 329.17347877010155 -190.04839657800323
2041.9470265270493 430.2358479931249 -248.396782653857
2199.8514256829662 480.3089902615578 -277.30652482170706
2169.1249283447314 483.0528817217396 -278.89071129487013
2080.901489818859 445.4615635384803 -257.1873536225726
2153.365822104004 433.0453229435343 -250.0188337727574
2227.0186589902523 431.80912691828246 -249.30511566480706
2146.2004655901524 392.20086780957536 -226.43727660626263
2117.893489679266 371.5416160439344 -214.50965203811361
1938.761453011353 320.9238558068796 -185.28547453947417
2034.911022489317 326.5205699133529 -188.5167389354239
2081.823379660584 326.6457911592446 -188.5890354554477
2257.471824440246 332.4376068908642 -191.93294182719498
2439.024045132021 351.9686604305818 -203.2092008459079
2370.004025267172 334.9371489880311 -193.37605312984508
2583.5091092786106 359.2025846422259 -207.38570893679795
2745.7309911842813 360.4540518500772 -208.1082438661329
2824.668781131104 360.0763443726248 -207.89017435235084
2900.6950332963197 361.8064437168231 -208.8890476744485
2981.5497093285767 363.3971529473638 -209.80744407690358
3067.199622529341 366.7924687870191 -211.7677305909124
3154.811215378722 371.1148215813955 -214.26324214027812
3238.241096240142 375.03634689426167 -216.52733583529536
3129.3594345795696 361.24336840881017 -208.5639559937932
3208.163568584336 362.33236189627274 -209.19268667692546
3284.918879741829 367.6963761342 -212.2896017411298
3358.849728587908 373.9589952872027 -215.90532659494795
3427.735249191517 376.6434504249297 -217.45519749134212
3681.3921553136624 403.67109539453514 -233.0596155901054
3718.4953534487804 404.3051418884927 -233.42568250407055
3721.524725560014 401.28522976137526 -231.68213542455027
3694.548591678983 399.16173724552453 -230.45613644890173
3618.70869511313 385.41337486955945 -222.51851573022176
3456.3939765519117 361.1183140768537 -208.49175584157481
3229.4056879013274 334.77237154674145 -193.28091882976014
2995.4986982064233 308.5547297633344 -178.14415628859294
2761.2400902617765 285.9672821636146 -165.10328733658818
2503.594979633015 257.74769211199913 -148.8106994238671
2249.1924995196455 230.09047999474885 -132.84280056293812
1986.5507145559716 202.8633207037295 -117.12319281699935
1740.2987419639815 176.83839261678412 -102.09769358036081

VECTORS D float
91.91094804069641 27.495764167486257 -14.994982384598666
60.261552678994995 33.225108110358775 -18.388471886919348
12.86242209419652 10.27181358110685 -5.714436938541438
533.9682225448381 555.8221439080969 -309.99367301552417
519.4583067448493 663.5377074122823 -370.73946297788325
476.63355413970186 718.8679355974547 -402.2176128772081
412.7459000061416 715.399139590212 -400.75891669882054
347.3268365652321 678.0641752714381 -380.2321196661793
310.3514401874535 671.575294987005 -377.1423252357408
323.4648923163861 766.4781215525677 -430.6976506658482
361.9958910447429 929.9223868197715 -522.8096678374608
358.4115239219723 989.870372080422 -556.7660390144927
325.88022269660684 960.8779604710281 -540.6814647428992
282.6592991179131 884.5716387826296 -497.9199446544417
263.30309356418104 869.9845943258516 -489.9152718772055
249.50369282390676 866.5929995599279 -488.18369335507373
219.03969249016316 796.6750808459664 -448.93970825148364
199.22568929170802 756.9692606323968 -426.62081294781575
167.65555354601906 662.771949787588 -373.6251014023377
164.44293979980142 674.4053987354041 -380.3606306229504
158.44115887935777 672.3386511142174 -379.2711710523281
159.24152369416345 697.6085945315378 -393.6047316261199
163.165011211024 736.3946596088455 -415.5708514784934
150.73265719755835 699.4760339649822 -394.8138914993793
156.953216425552 747.5230688270775 -422.01570985454987
156.71029889025047 764.7075116482763 -431.8006848383316
153.83655233091216 767.7350162763948 -433.6455056953454
151.57949325899475 772.5934273035532 -436.4789730859578
149.71495132070595 778.2377577855852 -439.7591709910389
148.60374751369218 786.6026790621576 -444.5604681707709
147.9005024603703 796.2799779739867 -450.1334988486889
147.2113501451863 805.1786420689226 -455.2712974121736
138.95850903660903 771.2722261414463 -436.2044314169778
138.18198171023616 777.4870506608875 -439.82632408651176
138.2548665120681 787.8035868861697 -445.77160245152845
138.551101018698 798.8161844368192 -452.11381625446506
138.25337029418253 805.831353355804 -456.21943799584676
146.11106985285517 860.2487203420328 -487.1408979341688
144.96015184692536 861.467868325174 -487.94200679069354
142.65831885979844 855.1293057399238 -484.45855016077104
140.06570541015392 846.2935165934208 -479.5547548880791
134.78966890656503 820.3973483936021 -464.97555099778964
126.32203356373594 774.035445691719 -438.78461530709467
116.51849909708871 718.3503331471566 -407.2929420870446
106.86113506458831 662.4832612685956 -375.6819106428976
98.00421420150657 610.6253478506761 -346.32933197076414
88.01898571901191 550.8694416866922 -312.48283802786426
78.37414510360348 492.4472244397242 -279.3791061832503
68.80728627267237 433.82272921653214 -246.14821827177923
59.87465673560483 378.6096762940412 -214.84213002676398
91.91094804069641 27.495764167486257 -14.994982384598666
60.261552678994995 33.225108110358775 -18.388471886919348
12.86242209419652 10.27181358110685 -5.714436938541438
533.9682225448381 555.8221439080969 -309.99367301552417
519.4583067448493 663.5377074122823 -370.73946297788325
476.63355413970186 718.8679355974547 -402.2176128772081
412.7459000061416 715.399139590212 -400.75891669882054
347.3268365652321 678.0641752714381 -380.2321196661793
310.3514401874535 671.575294987005 -377.1423252357408
323.4648923163861 766.4781215525677 -430.6976506658482
361.9958910447429 929.9223868197715 -522.8096678374608
358.4115239219723 989.870372080422 -556.7660390144927
325.88022269660684 960.8779604710281 -540.6814647428992
282.6592991179131 884.5716387826296 -497.9199446544417
263.30309356418104 869.9845943258516 -489.9152718772055
249.50369282390676 866.5929995599279 -488.18369335507373
219.03969249016316 796.6750808459664 -448.93970825148364
199.22568929170802 756.9692606323968 -426.62081294781575
167.65555354601906 662.771949787588 -373.6251014023377
164.44293979980142 674.4053987354041 -380.3606306229504
158.44115887935777 672.3386511142174 -379.2711710523281
159.24152369416345 697.6085945315378 -393.6047316261199
163.165011211024 736.3946596088455 -415.5708514784934
150.73265719755835 699.4760339649822 -394.8138914993793
156.953216425552 747.5230688270775 -422.01570985454987
156.71029889025047 764.7075116482763 -431.8006848383316
153.83655233091216 767.7350162763948 -433.6455056953454
151.57949325899475 772.5934273035532 -436.4789730859578
149.71495132070595 778.2377577855852 -439.7591709910389
148.60374751369218 786.6026790621576 -444.5604681707709
147.9005024603703 796.2799779739867 -450.1334988486889
147.2113501451863 805.1786420689226 -455.2712974121736
138.95850903660903 771.2722261414463 -436.2044314169778
138.18198171023616 777.4870506608875 -439.82632408651176
138.2548665120681 787.8035868861697 -445.77160245152845
138.551101018698 798.8161844368192 -452.11381625446506
138.25337029418253 805.831353355804 -456.21943799584676
146.11106985285517 860.2487203420328 -487.1408979341688
144.96015184692536 861.467868325174 -487.94200679069354
142.65831885979844 855.1293057399238 -484.45855016077104
140.06570541015392 846.2935165934208 -479.5547548880791
134.78966890656503 820.3973483936021 -464.97555099778964
126.32203356373594 774.035445691719 -438.78461530709467
116.51849909708871 718.3503331471566 -407.2929420870446
106.86113506458831 662.4832612685956 -375.6819106428976
98.00421420150657 610.6253478506761 -346.32933197076414
88.01898571901191 550.8694416866922 -312.48283802786426
78.37414510360348 492.4472244397242 -279.3791061832503
68.80728627267237 433.82272921653214 -246.14821827177923
59.87465673560483 378.6096762940412 -214.84213002676398

VECTORS L float
24.138648130386436 -61.73179818796363 34.76116584230643
79.35173522757158 -109.40407176057735 62.37041705695966
130.11965980651672 -123.41630695459251 71.03844064504705
743.8247547721057 -545.1313681134379 303.8213507326319
786.8135212273622 -470.94853802888696 259.54805419137375
923.8247550968737 -468.3925382981768 257.6055748210918
1068.3517782904103 -470.94271295362256 259.6219329750518
1121.9879570438202 -438.92308203507315 242.16394511186297
1176.298939876635 -414.9927144774744 229.00430330919488
1356.6588521360059 -437.3046427824663 240.64925408784507
1679.9511354823064 -499.6865388266468 274.4128851836038
1841.4399017609935 -509.5613818188644 279.45951419278566
1843.2447056481244 -477.82507874928865 261.790753448029
1798.242190700946 -439.11007524414964 240.73259103186933
1890.062728539823 -436.93927138231726 239.89643810444815
1977.5149661663456 -434.78387264164536 238.87857769026664
1927.1607730999892 -404.47421303639123 222.50243164522107
1918.6678003875581 -385.4276445884623 212.11116090970208
1771.1058994653342 -341.8480939807085 188.3396268628635
1870.4680826895158 -347.8848288220514 191.8438916875266
1923.3822207812266 -345.69285995497296 190.68213559688039
2098.2303007460832 -365.1709876406738 201.67178979892495
2275.8590339209977 -384.4259991782638 212.3616506325856
2219.2713680696133 -364.5388849769511 201.43783836953415
2426.5558928530586 -388.32048418485164 214.63000091775191
2589.0206922940315 -404.253459798199 223.69244097219882
2670.832228800192 -407.65867190377 225.7553313429946
2749.115540037325 -410.78698358672995 227.58992541150926
2831.8347580078703 -414.84060483822157 229.95172691413526
2918.5958750156487 -419.8102102751385 232.79273757985862
3006.910712918352 -425.16515639259126 235.8702567084108
3091.029746094956 -430.142295174661 238.74396157687843
2990.4009255429605 -410.02885773263625 227.6404754231847
3069.9815868741002 -415.1546887646147 230.6336374095862
3146.664013229761 -420.1072107519698 233.48200071039872
3220.2986275692097 -424.8571891496164 236.208489659517
3289.481878897335 -429.18790293087466 238.7642405045048
3535.2810854608074 -456.57762494749784 254.08128234406337
3573.5352016018555 -457.1627264366813 254.51632428662288
3578.8664067002164 -453.84407597854835 252.7764147362207
3554.4828862688296 -447.1317793478963 249.09861843917747
3483.9190262065654 -434.9839735240427 242.45703526756796
3330.0719429881756 -412.9171316148655 230.29285946552
3112.887188804239 -383.57796160041505 214.01202325728454
2888.637563141835 -353.9285315052613 197.53775435430478
2663.2358760602706 -324.6580656870616 181.226044634176
2415.575993914003 -293.1217495746931 163.6721386039972
2170.818354416042 -262.35674444497545 146.53630562031216
1917.7434282832996 -230.95940851280278 129.02502545477992
1680.4240852283772 -201.77128367725712 112.74443644640316
24.138648130386436 -61.73179818796363 34.76116584230643
79.35173522757158 -109.40407176057735 62.37041705695966
130.11965980651672 -123.41630695459251 71.03844064504705