# vtk DataFile Version 4.0
[MyVLM domain - lattices] 
ASCII
DATASET UNSTRUCTURED_GRID
POINTS 152 float
0.0 2.287360433382785 0.3923842737511951
0.0 4.035362893229192 -1.0035917094784006
0.0 5.792392198242096 -2.32490690173157
0.0 7.522719304763192 -3.614141519148057
0.0 9.226024317825239 -4.871676797704323
0.0 10.878994343947234 -6.125295961960114
0.0 12.461727388092937 -7.398717285999669
0.0 13.969180588013263 -8.69795061902529
0.0 15.432468128389694 -9.985915519662178
0.0 16.86417749693868 -11.24761080420252
0.0 18.264191090025232 -12.48317662720082
0.0 19.632254077272982 -13.692916683673607
0.0 20.96810287175334 -14.877145104289996
0.0 22.26960595352612 -16.03840213559639
0.0 23.53817656207308 -17.175003544363214
0.0 24.776909873819992 -18.28326064296533
0.0 25.98626577302934 -19.362625362680753
0.0 27.16549214529486 -20.41399403855518
0.0 28.314047047803793 -21.43801253288271
0.0 29.43193031858799 -22.434681038689455
0.0 30.51914180000487 -23.40399974384654
0.0 31.57568133873739 -24.34596883107009
0.0 32.60154878579408 -25.260588477921228
0.0 33.596743996509026 -26.14785885680607
0.0 34.56126683054188 -27.00778013497574
0.0 35.49511715187784 -27.84035247452637
0.0 36.39829482882767 -28.645576032399063
0.0 37.270799734027705 -29.423450960379956
0.0 38.11263193537932 -30.17397717754732
0.0 38.923793936826634 -30.89715169981675
0.0 39.70428614079783 -31.592974047593028
0.0 40.45410803899264 -32.2614448266448
0.0 41.17325914308769 -32.90256461893323
0.0 41.86173898473645 -33.516333982611975
0.0 42.519547115569246 -34.102753452027166
0.0 43.146683107193304 -34.661823537717474
0.0 43.74287947427058 -35.19386301629545
0.0 44.30728785562882 -35.69988292523599
0.0 44.8386099641088 -36.18143050292528
0.0 45.336168489070516 -36.63931293675185
0.0 45.800350959156596 -37.073068388063625
0.0 46.23095585096807 -37.48293702309531
0.0 46.620345342719475 -37.87802124339933
0.0 46.968690593399444 -38.258117069636086
0.0 47.28175651456055 -38.61635414775179
0.0 47.56347448126432 -38.948047247393035
0.0 47.81484700740641 -39.25200161902307
0.0 48.03493468512256 -39.52933680533902
0.0 48.2245773545782 -39.77905192380652
0.0 48.38542975468862 -39.99917493337849
0.0 48.51892434600732 -40.187998694044055
-0.8152906147965383 0.07181396823780117 -2.248001185644755
-0.840508508576773 1.751508646142356 -3.7253832134056957
-0.8937965186568912 3.3630439440152777 -5.220091411368868
-0.9506477078523391 4.937805845749726 -6.694721420472496
-1.020681877210228 6.476442082890752 -8.14850130432073
-1.048954977401727 7.998837013061903 -9.557733808279277
-0.9930987765444168 9.518992968473093 -10.905731602632272
-0.9074282632528687 11.049364217873588 -12.177652267854647
-0.838943182597301 12.56372686624981 -13.404748225040649
-0.780438039247949 14.049592257758997 -14.601902874657556
-0.7250391551380654 15.504394302185508 -15.772174363938785
-0.6716005320170477 16.92832709127993 -16.915331383343283
-0.6190912009117757 18.32185792897034 -18.030817021735913
-0.5668551203523576 19.68725562254703 -19.115927419877586
-0.5160737545272154 21.02318151646221 -20.172257925326626
-0.46824322159258064 22.326421057805977 -21.20363949306198
-0.4244759216876314 23.59651459633773 -22.210619912909227
-0.3845740908079094 24.83420991468934 -23.19230801223037
-0.34771109645469384 26.039990224658595 -24.14812792162939
-0.3130568676883623 27.21377568055388 -25.07817479749613
-0.28047282351476527 28.35553960563532 -25.98248043193118
-0.25028172479700606 29.465280286001423 -26.861046867482795
-0.22269967179244904 30.542985378069996 -27.7138888146594
-0.19756508903558764 31.588623962037637 -28.54104312224778
-0.17527331282135344 32.602188947024395 -29.34251824082958
-0.15618952887338375 33.58366777955271 -30.118329131056797
-0.13996799493970205 34.53302384218029 -30.868519431897848
-0.12575834684109707 35.45021277266997 -31.593142012208222
-0.11252036551224441 36.335195393637335 -32.292243561776566
-0.10008619772204906 37.18796538291195 -32.965831615072204
-0.0884564051429673 38.00851988887425 -33.613909570522985
-0.07764813403823374 38.79685558565371 -34.23648139174705
-0.06766754153321136 39.552968775892246 -34.83355148508421
-0.05846867713071129 40.27685491897498 -35.40512526182852
-0.05000632361003568 40.968509873226324 -35.95120765783677
-0.0422455662862189 41.627929988589955 -36.47180302307668
-0.03513713503927796 42.25530838271613 -36.96668120889477
-0.028610254341892315 42.85126852364161 -37.43509919501838
-0.02259956362415257 43.41774056576876 -37.8747567130042
-0.017476911002663225 43.955723800130514 -38.284462854173704
-0.013355710955940858 44.46341095620493 -38.66637143966419
-0.010110762084772787 44.94085236281635 -39.02042248991846
-0.007505342360435571 45.39737744952605 -39.33549762373998
-0.005475063785670375 45.83306843639092 -39.61149885508059
-0.003985447751437076 46.240899729892654 -39.856798960255816
-0.0029419419370193198 46.616251714574815 -40.07690338258229
-0.00222865752783443 46.95838663605547 -40.272691343495126
-0.0017402354220029323 47.26920167748629 -40.44190186815751
-0.0014049497009942318 47.54805989106462 -40.58529404140156
-0.0011720086804816246 47.79312969627747 -40.70505065588375
-0.0010052173229800666 48.00282557016677 -40.8030612642855
-0.6209246712649916 1.4740863962190558 -2.31642007910982
-0.6503643852126241 3.1464266077430234 -3.7706153106917073
-0.6916665849409614 4.7772076090375375 -5.210435864550465
-0.7392485943984627 6.373935926063733 -6.626935811404008
-0.7761138204794831 7.9413569937038035 -8.014459762183057
-0.765770157729804 9.486776459580645 -9.364301185086806
-0.7126976399239822 11.01699744189328 -10.668352439560714
-0.6548892921938138 12.530115246096646 -11.928883452171668
-0.6072679581919687 14.017075374669348 -13.156684952869913
-0.5645539478947554 15.473791033349679 -14.356627393399044
-0.5237398826831674 16.899326168461815 -15.529826319090079
-0.4840093998483088 18.29386400122214 -16.67606337540015
-0.44472987047405005 19.658131184978945 -17.79447257059086
-0.40609832807983987 20.99238674157837 -18.884745214446532
-0.3691188660449235 22.2954867698372 -19.948244555311792
-0.33476967873007946 23.566497826160056 -20.986083027944964
-0.3033937546858278 24.805491431425676 -21.998175397081837
-0.27460694522347623 26.012767451392804 -22.984164296627146
-0.24778798655364606 27.18840938525365 -23.94395021611859
-0.22257363420117282 28.332377247145057 -24.87758080885224
-0.19903295561691423 29.444660351706563 -25.785068809144818
-0.17736802372104568 30.525253389593217 -26.666420544427236
-0.15759928531051376 31.574140100328247 -27.5216553931811
-0.1398144006963529 32.591306194279625 -28.35079038512674
-0.12429856563552642 33.57674427026888 -29.153834340645158
-0.11105907142990716 34.53043585573807 -29.930809274473667
-0.09964737816779967 35.45235055092577 -30.681751415637148
-0.08935451713250306 36.34245702104112 -31.4066981074852
-0.07972746121286005 37.20073852523173 -32.105669300988794
-0.07070347607438114 38.02719198662288 -32.77866866302441
-0.062289202192950394 38.82181507542179 -33.42569897013099
-0.054493378339291916 39.58460503333977 -34.04676350950898
-0.047301081998971 40.31555865155322 -34.64186610528542
-0.040678125277780114 41.01467255961369 -35.211010774204375
-0.03459445871109547 41.681943726026425 -35.75420112906062
-0.029018512997061326 42.31740971192277 -36.27139240624091
-0.023905271017938854 42.92123725612157 -36.76238589415886
-0.01920368173726683 43.49411563599609 -37.22636014402863
-0.015028677985055923 44.03689644385964 -37.66230026765136
-0.01156223323447653 44.549240464654176 -38.070610525791146
-0.008799927390267616 45.03051209589856 -38.452048399988364
-0.006606039166953134 45.48324882883934 -38.80358982593375
-0.00486765230478973 45.910046699233725 -39.12214096868714
-0.003547691826415294 46.30904395085134 -39.409920582924634
-0.0025977711331711486 46.67708566615341 -39.67068855295739
-0.001938974799320156 47.012779567570206 -39.90610413058104
-0.0014883348561890108 47.31656832914428 -40.115639757414996
-0.0011794444211239365 47.588912093169185 -40.29874705722784
-0.0009663593930534462 47.829196983911636 -40.456157618630115
-0.0008164597512981341 48.036527487503584 -40.58893867349129

CELLS 100 350
4 0 51 52 1
4 1 52 53 2
4 2 53 54 3
4 3 54 55 4
4 4 55 56 5
4 5 56 57 6
4 6 57 58 7
4 7 58 59 8
4 8 59 60 9
4 9 60 61 10
4 10 61 62 11
4 11 62 63 12
4 12 63 64 13
4 13 64 65 14
4 14 65 66 15
4 15 66 67 16
4 16 67 68 17
4 17 68 69 18
4 18 69 70 19
4 19 70 71 20
4 20 71 72 21
4 21 72 73 22
4 22 73 74 23
4 23 74 75 24
4 24 75 76 25
4 25 76 77 26
4 26 77 78 27
4 27 78 79 28
4 28 79 80 29
4 29 80 81 30
4 30 81 82 31
4 31 82 83 32
4 32 83 84 33
4 33 84 85 34
4 34 85 86 35
4 35 86 87 36
4 36 87 88 37
4 37 88 89 38
4 38 89 90 39
4 39 90 91 40
4 40 91 92 41
4 41 92 93 42
4 42 93 94 43
4 43 94 95 44
4 44 95 96 45
4 45 96 97 46
4 46 97 98 47
4 47 98 99 48
4 48 99 100 49
4 49 100 101 50
1 102
1 103
1 104
1 105
1 106
1 107
1 108
1 109
1 110
1 111
1 112
1 113
1 114
1 115
1 116
1 117
1 118
1 119
1 120
1 121
1 122
1 123
1 124
1 125
1 126
1 127
1 128
1 129
1 130
1 131
1 132
1 133
1 134
1 135
1 136
1 137
1 138
1 139
1 140
1 141
1 142
1 143
1 144
1 145
1 146
1 147
1 148
1 149
1 150
1 151

CELL_TYPES 100
9
9
9
9
9
9
9
9
9
9
9
9
9
9
9
9
9
9
9
9
9
9
9
9
9
9
9
9
9
9
9
9
9
9
9
9
9
9
9
9
9
9
9
9
9
9
9
9
9
9
1
1
1
1
1
1
1
1
1
1
1
1
1
1
1
1
1
1
1
1
1
1
1
1
1
1
1
1
1
1
1
1
1
1
1
1
1
1
1
1
1
1
1
1
1
1
1
1
1
1

CELL_DATA 100

VECTORS S float
-0.0 0.0 -0.0
-4.059351827527512e-17 4.612572400935643e-15 -5.404593041714202e-15
-0.0 0.0 -0.0
0.0 0.0 -0.0
-2.1974247121041476e-16 -1.8743283712679642e-14 2.1364329988526684e-14
1.01130067907688e-15 7.496787328302305e-14 -8.546047225178525e-14
-1.0256776237750349e-15 -7.492549486388776e-14 8.549745771632437e-14
-4.615420762050548e-16 -3.7429609288823774e-14 4.2778330906934115e-14
0.0 0.0 -0.0
0.0 0.0 -0.0
3.349973929881172e-16 3.739349240486065e-14 -4.281108233039179e-14
3.078534988743947e-16 3.738709487556088e-14 -4.2816873201744956e-14
-2.8186839417223467e-16 -3.737178502832887e-14 4.283041561542458e-14
0.0 0.0 -0.0
5.032645481519953e-16 7.477367916282962e-14 -8.563492687209965e-14
-2.4235628907324166e-16 -3.739555434632061e-14 4.2809905937128525e-14
-4.62278480710211e-16 -7.480781993970424e-14 8.560533538054808e-14
2.2387697188800674e-16 3.741662003653931e-14 -4.279159604324158e-14
4.313134573532863e-16 7.485317151998263e-14 -8.556584454817603e-14
-2.0916317382166663e-16 -3.7436529255660356e-14 4.277425388995193e-14
2.0218865152257943e-16 3.744789207338752e-14 -4.27643398966286e-14
0.0 0.0 -0.0
-3.925197129185778e-16 -7.493917425064806e-14 8.549071974224473e-14
-1.8952505733454951e-16 -3.747919547490311e-14 4.2736965902973384e-14
-3.7524162307401623e-16 -7.49933328402357e-14 8.544329285777201e-14
1.8796872997683252e-16 3.750743203214206e-14 -4.2712193550508026e-14
0.0 0.0 -0.0
1.795468947154313e-16 3.7526153072908946e-14 -4.2695782768869207e-14
-1.7742463723651408e-16 -3.753497277521201e-14 4.268803821971044e-14
1.7594505987166873e-16 3.7543334566981756e-14 -4.268069049011325e-14
0.0 0.0 -0.0
0.0 0.0 -0.0
0.0 0.0 -0.0
-1.7402254460949946e-16 -3.7566214304604955e-14 4.2660561725787504e-14
-1.7149960144577048e-16 -3.756795639759066e-14 4.26590378206154e-14
0.0 0.0 -0.0
-1.725190694085931e-16 -3.756989381513407e-14 4.2657327432406097e-14
0.0 0.0 -0.0
0.0 0.0 -0.0
-1.6994872275612496e-16 -3.75592342875157e-14 4.2666723625706294e-14
3.370547214224938e-16 7.51067971271565e-14 -8.53437314075028e-14
0.0 0.0 -0.0
1.6659555985573578e-16 3.7540001230148815e-14 -4.2683659886953536e-14
-1.6419581768644212e-16 -3.753121526613305e-14 4.2691394778876704e-14
1.6191034070670335e-16 3.752364851966503e-14 -4.269805445918441e-14
7.75874268892954e-17 1.8757872310777445e-14 -2.1352512112397306e-14
7.548272630353762e-17 1.875418462451025e-14 -2.1355758670066704e-14
3.6271956675876206e-17 9.375314437251231e-15 -1.0679445457719544e-14
3.3746142062670075e-17 9.373570103661629e-15 -1.0680984806946212e-14
6.24781689122485e-18 2.3428410163604062e-15 -2.6707361195707114e-15
-0.0 0.0 -0.0
-4.059351827527512e-17 4.612572400935643e-15 -5.404593041714202e-15
-0.0 0.0 -0.0
0.0 0.0 -0.0
-2.1974247121041476e-16 -1.8743283712679642e-14 2.1364329988526684e-14
1.01130067907688e-15 7.496787328302305e-14 -8.546047225178525e-14
-1.0256776237750349e-15 -7.492549486388776e-14 8.549745771632437e-14
-4.615420762050548e-16 -3.7429609288823774e-14 4.2778330906934115e-14
0.0 0.0 -0.0
0.0 0.0 -0.0
3.349973929881172e-16 3.739349240486065e-14 -4.281108233039179e-14
3.078534988743947e-16 3.738709487556088e-14 -4.2816873201744956e-14
-2.8186839417223467e-16 -3.737178502832887e-14 4.283041561542458e-14
0.0 0.0 -0.0
5.032645481519953e-16 7.477367916282962e-14 -8.563492687209965e-14
-2.4235628907324166e-16 -3.739555434632061e-14 4.2809905937128525e-14
-4.62278480710211e-16 -7.480781993970424e-14 8.560533538054808e-14
2.2387697188800674e-16 3.741662003653931e-14 -4.279159604324158e-14
4.313134573532863e-16 7.485317151998263e-14 -8.556584454817603e-14
-2.0916317382166663e-16 -3.7436529255660356e-14 4.277425388995193e-14
2.0218865152257943e-16 3.744789207338752e-14 -4.27643398966286e-14
0.0 0.0 -0.0
-3.925197129185778e-16 -7.493917425064806e-14 8.549071974224473e-14
-1.8952505733454951e-16 -3.747919547490311e-14 4.2736965902973384e-14
-3.7524162307401623e-16 -7.49933328402357e-14 8.544329285777201e-14
1.8796872997683252e-16 3.750743203214206e-14 -4.2712193550508026e-14
0.0 0.0 -0.0
1.795468947154313e-16 3.7526153072908946e-14 -4.2695782768869207e-14
-1.7742463723651408e-16 -3.753497277521201e-14 4.268803821971044e-14
1.7594505987166873e-16 3.7543334566981756e-14 -4.268069049011325e-14
0.0 0.0 -0.0
0.0 0.0 -0.0
0.0 0.0 -0.0
-1.7402254460949946e-16 -3.7566214304604955e-14 4.2660561725787504e-14
-1.7149960144577048e-16 -3.756795639759066e-14 4.26590378206154e-14
0.0 0.0 -0.0
-1.725190694085931e-16 -3.756989381513407e-14 4.2657327432406097e-14
0.0 0.0 -0.0
0.0 0.0 -0.0
-1.6994872275612496e-16 -3.75592342875157e-14 4.2666723625706294e-14
3.370547214224938e-16 7.51067971271565e-14 -8.53437314075028e-14
0.0 0.0 -0.0
1.6659555985573578e-16 3.7540001230148815e-14 -4.2683659886953536e-14
-1.6419581768644212e-16 -3.753121526613305e-14 4.2691394778876704e-14
1.6191034070670335e-16 3.752364851966503e-14 -4.269805445918441e-14
7.75874268892954e-17 1.8757872310777445e-14 -2.1352512112397306e-14
7.548272630353762e-17 1.875418462451025e-14 -2.1355758670066704e-14
3.6271956675876206e-17 9.375314437251231e-15 -1.0679445457719544e-14
3.3746142062670075e-17 9.373570103661629e-15 -1.0680984806946212e-14
6.24781689122485e-18 2.3428410163604062e-15 -2.6707361195707114e-15

SCALARS Gamma float
LOOKUP_TABLE default
0.0
0.0
0.0
34.90486899324595
65.79777868853671
78.15687556907214
85.9288198857106
88.11639548534735
87.50719462612842
85.17511448565793
84.02749030396393
84.67970017926467
87.13925623719996
89.05864927229597
89.5957673978315
90.91664546109496
92.26018579622789
94.66059050669016
95.76454517238821
96.34462889297774
97.54977956568639
100.46792530914806
97.65165611248564
94.45763711555219
93.0364541631295
91.99905327818958
92.2659314630893
92.10567368823925
91.65137099953711
90.60919320374218
91.47323274492307
90.85100321324364
88.66534217308379
86.80577606261451
85.76642923307539
83.79265503508684
80.8220658587997
77.73735445040421
73.89577114148582
69.36274776577156
64.31649354280043
58.62152609416257
50.73496771644819
43.2337048629175
36.567834215247245
29.568501780613715
23.172168975374284
16.998570162076295
11.2703928860654
5.57040117918481
0.0
0.0
0.0
34.90486899324595
65.79777868853671
78.15687556907214
85.9288198857106
88.11639548534735
87.50719462612842
85.17511448565793
84.02749030396393
84.67970017926467
87.13925623719996
89.05864927229597
89.5957673978315
90.91664546109496
92.26018579622789
94.66059050669016
95.76454517238821
96.34462889297774
97.54977956568639
100.46792530914806
97.65165611248564
94.45763711555219
93.0364541631295
91.99905327818958
92.2659314630893
92.10567368823925
91.65137099953711
90.60919320374218
91.47323274492307
90.85100321324364
88.66534217308379
86.80577606261451
85.76642923307539
83.79265503508684
80.8220658587997
77.73735445040421
73.89577114148582
69.36274776577156
64.31649354280043
58.62152609416257
50.73496771644819
43.2337048629175
36.567834215247245
29.568501780613715
23.172168975374284
16.998570162076295
11.2703928860654
5.57040117918481

VECTORS Ftot float
91.7004270918585 25.92652772829091 21.754939854516536
112.16507059262334 58.68977769304393 49.24657081610996
116.73892935648387 88.61806118568272 74.35938245655237
703.3198727899477 -86.50934314086948 -72.5899579228927
1310.690202880837 -352.7502121481351 -295.992572911209
1700.3673789115117 -527.7995059294796 -442.87637076097917
2072.4500128166133 -667.4807443167324 -560.0828463741093
2375.175645182026 -714.4781185509902 -599.5183257603758
2616.4756442034404 -716.5366754476931 -601.2456600931567
2796.11137843616 -697.3317525898964 -585.1308164063913
3001.4453243151847 -683.6584790493897 -573.657577621566
3262.442292592092 -688.1625850227781 -577.4369712826195
3596.296992721534 -707.4840226087772 -593.6495824348464
3913.2713019378975 -725.4391099021639 -608.715689560483
4174.296042715852 -720.0739735391265 -604.2138056170426
4466.749851120127 -734.537271770358 -616.3499538284759
4763.966886147663 -739.9101516043769 -620.8583353155611
5117.652573054328 -758.6536957134663 -636.5860362644531
5404.56986777196 -763.0565610650171 -640.2804789570628
5658.9289095067725 -766.2740970610098 -642.9803122245999
5949.170542315423 -768.9165379713919 -645.1975834179092
6344.406556408577 -793.8354599950792 -666.1070416973207
6369.999014369864 -780.3978737170016 -654.8315680074729
6356.467423926578 -744.280627885766 -624.5256003513438
6444.248319877707 -733.2399910673474 -615.2614060690464
6545.7002733963145 -737.798571463696 -619.0865091983145
6735.301781230676 -739.1298108257791 -620.2035516560471
6889.756699992993 -727.6084562313492 -610.5359872651983
7012.990283019499 -725.3333872922033 -608.626977757458
7082.494030401362 -720.313375936896 -604.414688080714
7294.824391752144 -730.4755899183034 -612.9417980844576
7381.023672548455 -738.9611505242764 -620.0620288592619
7332.160265616896 -726.2655117431386 -609.4091230404492
7298.5627194400595 -717.6790634343462 -602.2042374314187
7325.663464674463 -708.6908549787806 -594.6622350314091
7262.064886114314 -700.5066941798963 -587.7949087235696
7099.734399640068 -689.6051917994997 -578.6474620969005
6916.4166170900335 -670.3019279411011 -562.4501005128004
6653.514497931125 -642.3469586508145 -538.9930960917486
6314.528106185543 -610.5738649820772 -512.33230491295
5915.673039787454 -570.5180365949935 -478.7214740868474
5442.5309864679775 -528.5196736686693 -443.4806632453189
4751.951903697235 -459.1540365704445 -385.2759827398213
4082.2358812752996 -392.2366756309001 -329.1256498560923
3478.350065547751 -332.1176818397095 -278.6798243391549
2832.649638467982 -261.33332084748287 -219.28469313745777
2233.637381031632 -202.02013970530643 -169.51502471710606
1647.8781690652386 -144.30803274308624 -121.08881705064313
1098.5655660895643 -90.16533094307228 -75.65769593930972
547.0393021140994 -33.56467867254991 -28.164109494720694
91.7004270918585 25.92652772829091 21.754939854516536
112.16507059262334 58.68977769304393 49.24657081610996
116.73892935648387 88.61806118568272 74.35938245655237
703.3198727899477 -86.50934314086948 -72.5899579228927
1310.690202880837 -352.7502121481351 -295.992572911209
1700.3673789115117 -527.7995059294796 -442.87637076097917
2072.4500128166133 -667.4807443167324 -560.0828463741093
2375.175645182026 -714.4781185509902 -599.5183257603758
2616.4756442034404 -716.5366754476931 -601.2456600931567
2796.11137843616 -697.3317525898964 -585.1308164063913
3001.4453243151847 -683.6584790493897 -573.657577621566
3262.442292592092 -688.1625850227781 -577.4369712826195
3596.296992721534 -707.4840226087772 -593.6495824348464
3913.2713019378975 -725.4391099021639 -608.715689560483
4174.296042715852 -720.0739735391265 -604.2138056170426
4466.749851120127 -734.537271770358 -616.3499538284759
4763.966886147663 -739.9101516043769 -620.8583353155611
5117.652573054328 -758.6536957134663 -636.5860362644531
5404.56986777196 -763.0565610650171 -640.2804789570628
5658.9289095067725 -766.2740970610098 -642.9803122245999
5949.170542315423 -768.9165379713919 -645.1975834179092
6344.406556408577 -793.8354599950792 -666.1070416973207
6369.999014369864 -780.3978737170016 -654.8315680074729
6356.467423926578 -744.280627885766 -624.5256003513438
6444.248319877707 -733.2399910673474 -615.2614060690464
6545.7002733963145 -737.798571463696 -619.0865091983145
6735.301781230676 -739.1298108257791 -620.2035516560471
6889.756699992993 -727.6084562313492 -610.5359872651983
7012.990283019499 -725.3333872922033 -608.626977757458
7082.494030401362 -720.313375936896 -604.414688080714
7294.824391752144 -730.4755899183034 -612.9417980844576
7381.023672548455 -738.9611505242764 -620.0620288592619
7332.160265616896 -726.2655117431386 -609.4091230404492
7298.5627194400595 -717.6790634343462 -602.2042374314187
7325.663464674463 -708.6908549787806 -594.6622350314091
7262.064886114314 -700.5066941798963 -587.7949087235696
7099.734399640068 -689.6051917994997 -578.6474620969005
6916.4166170900335 -670.3019279411011 -562.4501005128004
6653.514497931125 -642.3469586508145 -538.9930960917486
6314.528106185543 -610.5738649820772 -512.33230491295
5915.673039787454 -570.5180365949935 -478.7214740868474
5442.5309864679775 -528.5196736686693 -443.4806632453189
4751.951903697235 -459.1540365704445 -385.2759827398213
4082.2358812752996 -392.2366756309001 -329.1256498560923
3478.350065547751 -332.1176818397095 -278.6798243391549
2832.649638467982 -261.33332084748287 -219.28469313745777
2233.637381031632 -202.02013970530643 -169.51502471710606
1647.8781690652386 -144.30803274308624 -121.08881705064313
1098.5655660895643 -90.16533094307228 -75.65769593930972
547.0393021140994 -33.56467867254991 -28.164109494720694

VECTORS D float
69.71063513792653 -19.43995578524253 -16.859135525515676
40.795437996583956 -21.046357674119506 -18.26851312275863
1.060894166307562 -0.7939018561830546 -0.6893894195191621
317.8900529768682 -310.3063803299251 -269.5244427912957
579.5037798432126 -695.016706104509 -603.789293735766
661.2122487212209 -937.5984875172605 -814.6582668216881
697.0187013531081 -1137.7061149855642 -988.6642181817135
668.5836027913056 -1231.6282627365342 -1070.4200988760385
616.3166740250726 -1262.183431845019 -1097.1145841798407
557.1432442468791 -1253.6338294870893 -1089.8240770883017
511.2979428456061 -1251.8548514901108 -1089.4361661625182
482.5648128399465 -1275.7179135989013 -1110.4693978954667
466.52813433261883 -1324.0916577675314 -1152.2692121170548
450.52494670596974 -1364.359293582443 -1188.0832684073082
426.36424336589187 -1371.0769386796567 -1194.6748464548925
411.8591192830216 -1400.2295878628245 -1220.8049482573908
396.80475134427854 -1420.474965501478 -1239.1657678687895
388.38412469347304 -1459.904193484397 -1274.4962861511187
375.50309657837545 -1475.823856441108 -1289.1608480359214
362.8449323194049 -1486.098240941235 -1298.8763432103744
352.564151577715 -1500.500056188211 -1312.2914986065198
351.40978226093165 -1549.4332314829262 -1355.880017604423
332.8294428342392 -1516.3703354731083 -1327.6867831198408
310.6527247940538 -1458.9968103824835 -1278.124195857038
298.11784658161434 -1439.2818897985562 -1261.9443373683146
290.03835712822433 -1437.2384267703499 -1260.8250709661152
284.2634874404736 -1442.8824484644558 -1266.410003057679
276.242278651736 -1433.2537415185081 -1258.5528913736587
270.3086572969486 -1430.3534610362926 -1256.5655635750732
263.875165012884 -1420.669044838309 -1248.579278255974
263.8565037914789 -1441.7102154432437 -1267.5623577239473
262.2927259581815 -1450.1516560405632 -1275.4203068487695
255.8188258203564 -1426.8515884615647 -1255.2169873328344
251.32312270311454 -1410.7904806679426 -1241.294523656651
248.6811363134558 -1401.8793043653764 -1233.5742800060934
245.49924798864913 -1386.4440975134191 -1220.1390196069106
240.63541884146113 -1359.7097897012504 -1196.5737492774263
234.40978563461601 -1323.6598404400488 -1164.736050557822
225.60894676335585 -1272.0197846937835 -1119.122994251044
215.05406747329334 -1209.676467570628 -1064.013588006958
201.9136988074024 -1133.241393777485 -996.5122697407875
187.0606933104532 -1047.4619398286711 -920.8028600188127
163.50372980048158 -913.5084049430607 -802.7865403449789
140.5419746393123 -783.6166492868291 -688.3590685728805
119.74803457764973 -666.4312313562765 -585.2150211375313
96.18830619332668 -534.4631907485341 -469.1686500850119
75.3102444325086 -417.90545704196296 -366.7297236021115
54.83717321530841 -303.9768962716729 -266.67020716669975
35.559244689013916 -196.95223721570522 -172.73178912225953
15.753834271394158 -87.20165625800324 -76.45876670764898
69.71063513792653 -19.43995578524253 -16.859135525515676
40.795437996583956 -21.046357674119506 -18.26851312275863
1.060894166307562 -0.7939018561830546 -0.6893894195191621
317.8900529768682 -310.3063803299251 -269.5244427912957
579.5037798432126 -695.016706104509 -603.789293735766
661.2122487212209 -937.5984875172605 -814.6582668216881
697.0187013531081 -1137.7061149855642 -988.6642181817135
668.5836027913056 -1231.6282627365342 -1070.4200988760385
616.3166740250726 -1262.183431845019 -1097.1145841798407
557.1432442468791 -1253.6338294870893 -1089.8240770883017
511.2979428456061 -1251.8548514901108 -1089.4361661625182
482.5648128399465 -1275.7179135989013 -1110.4693978954667
466.52813433261883 -1324.0916577675314 -1152.2692121170548
450.52494670596974 -1364.359293582443 -1188.0832684073082
426.36424336589187 -1371.0769386796567 -1194.6748464548925
411.8591192830216 -1400.2295878628245 -1220.8049482573908
396.80475134427854 -1420.474965501478 -1239.1657678687895
388.38412469347304 -1459.904193484397 -1274.4962861511187
375.50309657837545 -1475.823856441108 -1289.1608480359214
362.8449323194049 -1486.098240941235 -1298.8763432103744
352.564151577715 -1500.500056188211 -1312.2914986065198
351.40978226093165 -1549.4332314829262 -1355.880017604423
332.8294428342392 -1516.3703354731083 -1327.6867831198408
310.6527247940538 -1458.9968103824835 -1278.124195857038
298.11784658161434 -1439.2818897985562 -1261.9443373683146
290.03835712822433 -1437.2384267703499 -1260.8250709661152
284.2634874404736 -1442.8824484644558 -1266.410003057679
276.242278651736 -1433.2537415185081 -1258.5528913736587
270.3086572969486 -1430.3534610362926 -1256.5655635750732
263.875165012884 -1420.669044838309 -1248.579278255974
263.8565037914789 -1441.7102154432437 -1267.5623577239473
262.2927259581815 -1450.1516560405632 -1275.4203068487695
255.8188258203564 -1426.8515884615647 -1255.2169873328344
251.32312270311454 -1410.7904806679426 -1241.294523656651
248.6811363134558 -1401.8793043653764 -1233.5742800060934
245.49924798864913 -1386.4440975134191 -1220.1390196069106
240.63541884146113 -1359.7097897012504 -1196.5737492774263
234.40978563461601 -1323.6598404400488 -1164.736050557822
225.60894676335585 -1272.0197846937835 -1119.122994251044
215.05406747329334 -1209.676467570628 -1064.013588006958
201.9136988074024 -1133.241393777485 -996.5122697407875
187.0606933104532 -1047.4619398286711 -920.8028600188127
163.50372980048158 -913.5084049430607 -802.7865403449789
140.5419746393123 -783.6166492868291 -688.3590685728805
119.74803457764973 -666.4312313562765 -585.2150211375313
96.18830619332668 -534.4631907485341 -469.1686500850119
75.3102444325086 -417.90545704196296 -366.7297236021115
54.83717321530841 -303.9768962716729 -266.67020716669975
35.559244689013916 -196.95223721570522 -172.73178912225953
15.753834271394158 -87.20165625800324 -76.45876670764898

VECTORS L float
21.989791953931995 45.366483513533446 38.614075380032205
71.36963259603941 79.73613536716343 67.51508393886861
115.67803519017635 89.4119630418658 75.04877187607154
385.4298198130794 223.79703718905554 196.9344848684029
731.1864230376248 342.2664939563739 307.796720824557
1039.1551301902912 409.79898158778116 371.781896060709
1375.4313114635052 470.2253706688318 428.58137180760417
1706.5920423907207 517.1501441855446 470.9017731156631
2000.1589701783685 545.6467563973256 495.8689240866837
2238.9681341892806 556.3020768971928 504.6932606819106
2490.1473814695787 568.1963724407211 515.7785885409521
2779.877479752147 587.5553285761232 533.0324266128472
3129.7688583889158 616.6076351587542 558.6196296822084
3462.7463552319277 638.9201836802791 579.3675788468253
3747.9317993499617 651.0029651405304 590.4610408378501
4054.890731837105 665.6923160924669 604.4549944289151
4367.162134803386 680.5648138971012 618.3074325532285
4729.2684483608555 701.2504977709308 637.9102498866658
5029.066771193586 712.7672953760909 648.8803690788584
5296.083977187367 719.8241438802254 655.8960309857749
5596.606390737709 731.5835182168189 667.0939151886105
5992.996774147645 755.597771487847 689.7729759071024
6037.169571535625 735.9724617561067 672.8552151123679
6045.814699132525 714.7161824967178 653.5985955056946
6146.130473296093 706.0418987312088 646.6829312992683
6255.661916268091 699.4398553066541 641.7385617678008
6451.038293790203 703.7526376386767 646.2064514016322
6613.514421341256 705.6452852871591 648.0169041084606
6742.681625722553 705.0200737440899 647.9385858176156
6818.6188653884765 700.3556689014137 644.1645901752604
7030.967887960665 711.2346255249408 654.6205596394904
7118.730946590272 711.1905055162872 655.358277989508
7076.341439796542 700.586076718426 645.8078642923853
7047.239596736946 693.1114172335964 639.0902862252324
7076.982328361008 693.1884493865958 638.9120449746844
7016.565638125666 685.9374033335228 632.3441108833407
6859.098980798608 670.1045979017508 617.9262871805258
6682.006831455417 653.3579124989476 602.2859500450215
6427.90555116777 629.6728260429695 580.129898159296
6099.474038712251 599.1026025885507 551.681283094008
5713.759340980053 562.7233571824918 517.7907956539401