# vtk DataFile Version 4.0
[MyVLM domain - lattices] 
ASCII
DATASET UNSTRUCTURED_GRID
POINTS 62 float
0.0 1.4835123652164572 -1.7847231740309033
0.0 0.7487096283205485 -7.332315501560738
0.0 0.12399312055343259 -12.63040099685945
0.0 -0.7808690299935637 -17.610171252177164
0.0 -1.7309457999244175 -22.313050945544063
0.0 -2.640475195852088 -26.754162230313614
0.0 -3.514920316752496 -30.93254181473808
0.0 -4.328629862404375 -34.85271271513673
0.0 -5.087966296440275 -38.51355305750735
0.0 -5.793495036716285 -41.914963143426576
0.0 -6.445215300872254 -45.05694311084557
0.0 -7.043127676605665 -47.93949285613744
0.0 -7.587251901336778 -50.56260889906245
0.0 -8.077587964750984 -52.926291241439344
0.0 -8.514732512210344 -55.030434678592876
0.0 -8.90316129554185 -56.874250014716985
0.0 -9.272908604372557 -58.45244139420403
0.0 -9.623167422420511 -59.76515111579837
0.0 -9.98008111802601 -60.807769398295015
0.0 -10.3012986757328 -61.58776386837932
0.0 -10.544350585128136 -62.112623046594514
-0.8152938918039478 -1.910905405051144 -1.1861957373364578
-0.9232602711185554 -3.1048259506881557 -6.652833207861487
-1.045017403566863 -4.319896956649346 -11.846823276945978
-0.8624275731409438 -5.209755650470919 -16.829239046488276
-0.7172432011617597 -5.944825836775384 -21.570030201578454
-0.5835709082011334 -6.628127448622616 -26.051031548467275
-0.458823694439046 -7.249370576902608 -30.27405747575987
-0.35706975050238215 -7.835176468452185 -34.234413939378804
-0.27205245991127286 -8.380403947558886 -37.93300746731474
-0.20240159072431146 -8.885230550347682 -41.36980675515882
-0.1506132401889805 -9.350066598573505 -44.54473945211485
-0.11426271706148827 -9.77557523869406 -47.45768862757019
-0.08424963388989035 -10.162432808373847 -50.10853502494651
-0.059335794404298196 -10.510782227833994 -52.497253443552765
-0.038970351202568594 -10.81996917785074 -54.623959257522046
-0.02333805368457717 -11.085511385903011 -56.48944281243475
-0.011931771028020786 -11.278099659441857 -58.098872109720034
-0.005641151376299379 -11.398418595254213 -59.452126436493444
-0.0026418300562744777 -11.419641980389022 -60.55393597788848
-0.0014569859069231085 -11.384290933976072 -61.39680311335263
-0.001005086180947595 -11.335078000694267 -61.97319646884432
-0.6519578110959388 -1.601871509210112 -4.079265688898184
-0.7381041280070318 -2.675183246642316 -9.432710744105325
-0.7152918662654275 -3.655729216350116 -14.533594902417422
-0.5923765403635137 -4.496944911457112 -19.39012874274018
-0.4878052910110849 -5.261285106496314 -23.99129980324936
-0.39089797599006726 -5.973486198647532 -28.332746389716643
-0.30596004185303555 -6.637148914402656 -32.41383359691136
-0.23592082890512064 -7.257917175859733 -36.23356624909059
-0.17792026898834412 -7.834795603359533 -39.79211985854433
-0.1323805615924845 -8.368075223044013 -43.08944310951164
-0.0993284839689258 -8.858158561160076 -46.12546502575477
-0.07444213160676699 -9.305550464893269 -48.90009658909375
-0.05384453561032071 -9.71056062183891 -51.413283193249946
-0.036864804602575046 -10.073071836751943 -53.66504550290707
-0.023365651832679663 -10.39179193737668 -55.655611362897524
-0.013226184267224234 -10.658362879493627 -57.38645452192316
-0.006589845901620062 -10.86570384886016 -58.85882351858035
-0.0031061180372151964 -11.00717878342203 -60.0738884696549
-0.0015370559861990949 -11.086647317106761 -61.030968817549706
-0.0009232770329515139 -11.125469508108992 -61.72629820769559

CELLS 40 140
4 0 21 22 1
4 1 22 23 2
4 2 23 24 3
4 3 24 25 4
4 4 25 26 5
4 5 26 27 6
4 6 27 28 7
4 7 28 29 8
4 8 29 30 9
4 9 30 31 10
4 10 31 32 11
4 11 32 33 12
4 12 33 34 13
4 13 34 35 14
4 14 35 36 15
4 15 36 37 16
4 16 37 38 17
4 17 38 39 18
4 18 39 40 19
4 19 40 41 20
1 42
1 43
1 44
1 45
1 46
1 47
1 48
1 49
1 50
1 51
1 52
1 53
1 54
1 55
1 56
1 57
1 58
1 59
1 60
1 61

CELL_TYPES 40
9
9
9
9
9
9
9
9
9
9
9
9
9
9
9
9
9
9
9
9
1
1
1
1
1
1
1
1
1
1
1
1
1
1
1
1
1
1
1
1

CELL_DATA 40

VECTORS S float
-1.565665887177692e-17 -1.1901212289285751e-15 -3.347408073871888e-15
0.0 -0.0 -0.0
-2.358480575274112e-16 9.20155675833567e-15 2.6889947859064432e-14
3.662030131619722e-16 -1.8468310242391505e-14 -5.375836381372849e-14
2.8859038560369676e-16 -1.8487956726582805e-14 -5.375208311731373e-14
2.481713583420144e-16 -1.8476586938320316e-14 -5.375619419074283e-14
2.1843154028648766e-16 -1.84527619415671e-14 -5.376450624878206e-14
0.0 -0.0 -0.0
0.0 -0.0 -0.0
1.7816111244543877e-16 -1.8357731258498304e-14 -5.37971767794931e-14
0.0 -0.0 -0.0
1.6805282551129647e-16 -1.8293622210423523e-14 -5.381904321386066e-14
-1.651519391862765e-16 1.8273893729888053e-14 5.3825754064118845e-14
1.6285819544137406e-16 -1.8263746256665507e-14 -5.382920506254555e-14
1.6191330752079087e-16 -1.8265894890612427e-14 -5.382847885377416e-14
0.0 -0.0 -0.0
7.822641771915608e-17 -9.150351674335224e-15 -2.6908335359324583e-14
0.0 -0.0 -0.0
6.893878166229049e-17 -9.177217371069657e-15 -2.6899209945922882e-14
-7.11863084191854e-18 1.1485151757589201e-15 3.361939425344035e-15
-1.565665887177692e-17 -1.1901212289285751e-15 -3.347408073871888e-15
0.0 -0.0 -0.0
-2.358480575274112e-16 9.20155675833567e-15 2.6889947859064432e-14
3.662030131619722e-16 -1.8468310242391505e-14 -5.375836381372849e-14
2.8859038560369676e-16 -1.8487956726582805e-14 -5.375208311731373e-14
2.481713583420144e-16 -1.8476586938320316e-14 -5.375619419074283e-14
2.1843154028648766e-16 -1.84527619415671e-14 -5.376450624878206e-14
0.0 -0.0 -0.0
0.0 -0.0 -0.0
1.7816111244543877e-16 -1.8357731258498304e-14 -5.37971767794931e-14
0.0 -0.0 -0.0
1.6805282551129647e-16 -1.8293622210423523e-14 -5.381904321386066e-14
-1.651519391862765e-16 1.8273893729888053e-14 5.3825754064118845e-14
1.6285819544137406e-16 -1.8263746256665507e-14 -5.382920506254555e-14
1.6191330752079087e-16 -1.8265894890612427e-14 -5.382847885377416e-14
0.0 -0.0 -0.0
7.822641771915608e-17 -9.150351674335224e-15 -2.6908335359324583e-14
0.0 -0.0 -0.0
6.893878166229049e-17 -9.177217371069657e-15 -2.6899209945922882e-14
-7.11863084191854e-18 1.1485151757589201e-15 3.361939425344035e-15

SCALARS Gamma float
LOOKUP_TABLE default
0.0
56.538470873814475
79.65125504496854
88.96916811237868
88.28327555346833
92.84258273686399
94.54784645383846
98.20486665329669
102.57489901688646
94.25472468380644
93.39932686822603
92.11043955570828
91.92165281455668
87.3160117617076
80.36546439892372
70.66391438912981
56.96375334513898
40.25056660863161
23.217351896157943
9.470801846388163
0.0
56.538470873814475
79.65125504496854
88.96916811237868
88.28327555346833
92.84258273686399
94.54784645383846
98.20486665329669
102.57489901688646
94.25472468380644
93.39932686822603
92.11043955570828
91.92165281455668
87.3160117617076
80.36546439892372
70.66391438912981
56.96375334513898
40.25056660863161
23.217351896157943
9.470801846388163

VECTORS Ftot float
112.03205724715764 62.12169163313945 -22.610446656726538
1114.2485032775455 -272.7620386222874 99.27726309628083
1890.6043104275816 -761.4543058420837 277.1467020803516
2754.706453698175 -918.6326781557864 334.35495107295026
3374.466728523174 -904.8850071091467 329.35120802149015
4182.5925467432535 -953.1085322254391 346.90313575520923
4871.079750307364 -953.4727994206382 347.0357181715813
5651.493490406687 -983.7901818487276 358.0703429562711
6477.912379871636 -1025.6267550416517 373.29761030219476
6442.193294977928 -938.592566093045 341.6197561614014
6829.177476277346 -933.5647867123178 339.7897941223594
7135.922201053799 -926.0984561091498 337.0722720236154
7481.868133299349 -938.171073255827 341.4663453146977
7413.295162697323 -908.7934673799261 330.7737712218659
7070.600509916088 -863.3217198276236 314.22340861276075
6407.1830537892665 -772.4805591548477 281.1599300816768
5293.486811283457 -643.5158471443689 234.2206136391495
3817.948304939365 -447.8482048219132 163.00341602472986
2237.8531303375676 -251.5510899059539 91.55710912298852
925.277517016736 -87.67000278022185 31.909271450035945
112.03205724715764 62.12169163313945 -22.610446656726538
1114.2485032775455 -272.7620386222874 99.27726309628083
1890.6043104275816 -761.4543058420837 277.1467020803516
2754.706453698175 -918.6326781557864 334.35495107295026
3374.466728523174 -904.8850071091467 329.35120802149015
4182.5925467432535 -953.1085322254391 346.90313575520923
4871.079750307364 -953.4727994206382 347.0357181715813
5651.493490406687 -983.7901818487276 358.0703429562711
6477.912379871636 -1025.6267550416517 373.29761030219476
6442.193294977928 -938.592566093045 341.6197561614014
6829.177476277346 -933.5647867123178 339.7897941223594
7135.922201053799 -926.0984561091498 337.0722720236154
7481.868133299349 -938.171073255827 341.4663453146977
7413.295162697323 -908.7934673799261 330.7737712218659
7070.600509916088 -863.3217198276236 314.22340861276075
6407.1830537892665 -772.4805591548477 281.1599300816768
5293.486811283457 -643.5158471443689 234.2206136391495
3817.948304939365 -447.8482048219132 163.00341602472986
2237.8531303375676 -251.5510899059539 91.55710912298852
925.277517016736 -87.67000278022185 31.909271450035945

VECTORS D float
54.159682510519744 -30.194775774811916 10.481985824359294
536.996897279112 -680.6603183326564 236.20267470092153
680.4011581902362 -1321.680895275868 458.23789359389565
639.7771096137295 -1654.1440361307195 572.6277990308753
532.7882009354967 -1703.7963960402126 588.878974683989
483.32101506463295 -1831.2424321255478 631.6491884572425
429.362238594859 -1870.7629653585864 643.8174981801009
398.5722145737965 -1950.3082937914883 669.6610663258042
379.97521152859827 -2045.9426514400457 700.8422818792865
323.36977827433026 -1884.8860068329604 644.268802949229
301.9188602400795 -1879.3848464883608 641.0709470104821
285.3208534953401 -1869.6541429186454 636.4047646520235
279.3806995416599 -1896.26412797614 644.6406562442533
266.7274830937564 -1842.8451330132887 626.0671064545586
251.9462526147183 -1749.8433284813516 594.5411879666035
227.61912670068784 -1577.40314434192 536.3857939771281
190.15771147155982 -1311.3044694994298 446.4702942114297
135.59597145869597 -931.2732595504452 317.6242267500906
78.31009336808214 -535.8869358725697 183.02952053779282
30.110692664014614 -205.62402266476263 70.30961225970235
54.159682510519744 -30.194775774811916 10.481985824359294
536.996897279112 -680.6603183326564 236.20267470092153
680.4011581902362 -1321.680895275868 458.23789359389565
639.7771096137295 -1654.1440361307195 572.6277990308753
532.7882009354967 -1703.7963960402126 588.878974683989
483.32101506463295 -1831.2424321255478 631.6491884572425
429.362238594859 -1870.7629653585864 643.8174981801009
398.5722145737965 -1950.3082937914883 669.6610663258042
379.97521152859827 -2045.9426514400457 700.8422818792865
323.36977827433026 -1884.8860068329604 644.268802949229
301.9188602400795 -1879.3848464883608 641.0709470104821
285.3208534953401 -1869.6541429186454 636.4047646520235
279.3806995416599 -1896.26412797614 644.6406562442533
266.7274830937564 -1842.8451330132887 626.0671064545586
251.9462526147183 -1749.8433284813516 594.5411879666035
227.61912670068784 -1577.40314434192 536.3857939771281
190.15771147155982 -1311.3044694994298 446.4702942114297
135.59597145869597 -931.2732595504452 317.6242267500906
78.31009336808214 -535.8869358725697 183.02952053779282
30.110692664014614 -205.62402266476263 70.30961225970235

VECTORS L float
57.87237473663789 92.31646740795136 -33.09243248108583
577.2516059984337 407.8982797103689 -136.92541160464063
1210.2031522373459 560.2265894337839 -181.09119151354398
2114.9293440844463 735.5113579749333 -238.27284795792505
2841.6785275876773 798.9113889310664 -259.527766662499
3699.2715316786202 878.1338999001089 -284.7460527020335
4441.717511712506 917.2901659379485 -296.78178000851966
5252.921275832891 966.5181119427613 -311.59072336953324
6097.937168343039 1020.3158963983939 -327.5446715770917
6118.823516703601 946.2934407399155 -302.64904678782756
6527.2586160372675 945.8200597760436 -301.28115288812285
6850.601347558458 943.5556868094955 -299.3324926284079
7202.48743375769 958.0930547203129 -303.1743109295554
7146.567679603567 934.051665633363 -295.29333523269287
6818.65425730137 886.5216086537281 -280.3177793538428
6179.563927088579 804.9225851870724 -255.22586389545125
5103.329099811898 667.7886223550609 -212.24968057228008
3682.3523334806696 483.4250547285321 -154.6208107253608
2159.5430369694855 284.3358459666158 -91.47241141480433
895.1668243527214 117.95401988454077 -38.4003408096664
57.87237473663789 92.31646740795136 -33.09243248108583
577.2516059984337 407.8982797103689 -136.92541160464063
1210.2031522373459 560.2265894337839 -181.09119151354398
2114.9293440844463 735.5113579749333 -238.27284795792505
2841.6785275876773 798.9113889310664 -259.527766662499
3699.2715316786202 878.1338999001089 -284.7460527020335
4441.717511712506 917.2901659379485 -296.78178000851966
5252.921275832891 966.5181119427613 -311.59072336953324
6097.937168343039 1020.3158963983939 -327.5446715770917
6118.823516703601 946.2934407399155 -302.64904678782756
6527.2586160372675 945.8200597760436 -301.28115288812285
6850.601347558458 943.5556868094955 -299.3324926284079
7202.48743375769 958.0930547203129 -303.1743109295554
7146.567679603567 934.051665633363 -295.29333523269287
6818.65425730137 886.5216086537281 -280.3177793538428
6179.563927088579 804.9225851870724 -255.22586389545125
5103.329099811898 667.7886223550609 -212.24968057228008
3682.3523334806696 483.4250547285321 -154.6208107253608
2159.5430369694855 284.3358459666158 -91.47241141480433
895.1668243527214 117.95401988454077 -38.4003408096664

SCALARS mu float
LOOKUP_TABLE default
-2.6713411599502965
-5.311304469421986
-0.8175809010386819
-0.18813406811184505
-0.196998385964444
-0.15584713246877238
-0.21399488945783543
-0.22076554465484996
-0.2220132888122184
-0.22081634065927047
-0.21052886258097248
-0.21397891535985317
-0.21582174895184628
-0.23591466884832685
-0.2221859954780845
-0.27125991031436086
-0.2294447336326918
-0.3116093306702703
-0.3304861322478449
-0.36869208592355585
-2.6713411599502965
-5.311304469421986
-0.8175809010386819
-0.18813406811184505
-0.196998385964444
-0.15584713246877238
-0.21399488945783543
-0.22076554465484996
-0.2220132888122184
-0.22081634065927047
-0.21052886258097248
-0.21397891535985317
-0.21582174895184628
-0.23591466884832685
-0.2221859954780845
-0.27125991031436086
-0.2294447336326918
-0.3116093306702703
-0.3304861322478449
-0.36869208592355585