# vtk DataFile Version 4.0
[MyVLM domain - lattices] 
ASCII
DATASET UNSTRUCTURED_GRID
POINTS 152 float
0.0 -1.1697031529913058 -2.00443949880621
0.0 -3.3626771205627453 -2.4461710042898863
0.0 -5.504259948315409 -2.9428085057212954
0.0 -7.604103787640443 -3.4396119323956373
0.0 -9.662295057717792 -3.9360911767888354
0.0 -11.685131704257847 -4.396528813892604
0.0 -13.677990223505867 -4.790433218297949
0.0 -15.642232937676193 -5.110078276798221
0.0 -17.569454393104028 -5.403133685948277
0.0 -19.456254097510996 -5.688884595784146
0.0 -21.30266382135533 -5.967150827083673
0.0 -23.108752406708348 -6.23754195705936
0.0 -24.874591061211767 -6.49965414710735
0.0 -26.60075561200926 -6.750221719216489
0.0 -28.286864274422772 -6.991409881890369
0.0 -29.93208089085097 -7.227960720531865
0.0 -31.536281224200724 -7.460578818708482
0.0 -33.099668457131564 -7.688111870297208
0.0 -34.6223889947397 -7.909729570737637
0.0 -36.104442880780596 -8.125431671880168
0.0 -37.54583015784117 -8.335217932202344
0.0 -38.94655086733982 -8.539088116808841
0.0 -40.306605049526375 -8.737041997431485
0.0 -41.62599274348213 -8.929079352429232
0.0 -42.904713987119834 -9.11519996678819
0.0 -44.1427688171837 -9.2954036321216
0.0 -45.340157269249396 -9.469690146669846
0.0 -46.496879377724035 -9.638059315300454
0.0 -47.61293512426416 -9.800511242044383
0.0 -48.688323832432744 -9.957049763166593
0.0 -49.72304539351438 -10.107675495222821
0.0 -50.71709994482568 -10.252387659451895
0.0 -51.67048761828651 -10.391185507698971
0.0 -52.58320854042004 -10.52406832241555
0.0 -53.45526283235272 -10.651035416659457
0.0 -54.28665060981425 -10.772086134094858
0.0 -55.07744413359623 -10.886810663408111
0.0 -55.827872587288006 -10.993909239875684
0.0 -56.53828670135775 -11.091392772169783
0.0 -57.20886945033169 -11.17822356018635
0.0 -57.83951614388666 -11.254995332251823
0.0 -58.43028122328826 -11.321399336606362
0.0 -58.983228035456094 -11.365733751377347
0.0 -59.49831034202769 -11.388260807349079
0.0 -59.97397076017488 -11.397812861441379
0.0 -60.40914723439923 -11.400413129693671
0.0 -60.80356893696788 -11.39759755250375
0.0 -61.15748964760721 -11.387926873523162
0.0 -61.470682484666 -11.372687802535603
0.0 -61.74270042273056 -11.35441554664276
0.0 -61.97315648457705 -11.335304762738645
-0.8152906147965383 -1.7682299453737116 1.3899746173862
-0.840508508576773 -3.979657165117291 1.0528967054592022
-0.8937965186568912 -6.160544996296574 0.7791689553811849
-0.9506477078523391 -8.302414559068204 0.5207052500457985
-1.020681877210228 -10.40509086965726 0.27651320715160144
-1.048954977401727 -12.46320219654096 0.016128223373578
-0.9930987765444168 -14.47296582917122 -0.2819025188484958
-0.9074282632528687 -16.431017264188153 -0.6366600662515891
-0.838943182597301 -18.344440850312576 -1.0079670807315293
-0.780438039247949 -20.216610380529797 -1.3766898314675644
-0.7250391551380654 -22.048219080538253 -1.7388968401592364
-0.6716005320170477 -23.8392145167218 -2.0948854726205166
-0.6190912009117757 -25.589470447574996 -2.445371680006124
-0.5668551203523576 -27.298373957967716 -2.7938314767505266
-0.5160737545272154 -28.9662866838321 -3.138213923566438
-0.46824322159258064 -30.594077032160445 -3.4735940396663922
-0.4244759216876314 -32.18186917682518 -3.799267600025202
-0.3845740908079094 -33.72946110538962 -4.116380274102466
-0.34771109645469384 -35.23672227885945 -4.425672385323293
-0.3130568676883623 -36.70367426743709 -4.7270216029909395
-0.28047282351476527 -38.13032427780665 -5.020387055968713
-0.25028172479700606 -39.51667277297625 -5.305766118407194
-0.22269967179244904 -40.862723087547415 -5.583139878841286
-0.19756508903558764 -42.168483574461995 -5.85246096538383
-0.17527331282135344 -43.43395614931132 -6.113718514176479
-0.15618952887338375 -44.659144203399876 -6.366893292175763
-0.13996799493970205 -45.844057628878716 -6.611929198205288
-0.12575834684109707 -46.988708410144426 -6.848758265374543
-0.11252036551224441 -48.09310713091286 -7.077320470448272
-0.10008619772204906 -49.15725549910955 -7.297606127299402
-0.0884564051429673 -50.18115428509555 -7.509610866993313
-0.07764813403823374 -51.16480438735016 -7.713329594000741
-0.06766754153321136 -52.108206804709496 -7.908756643640416
-0.05846867713071129 -53.01136276381437 -8.095885059286791
-0.05000632361003568 -53.874273383532646 -8.274708495524704
-0.0422455662862189 -54.69693964992199 -8.445221360143439
-0.03513713503927796 -55.47930939251808 -8.607719526548678
-0.028610254341892315 -56.22121418229899 -8.763158203190462
-0.02259956362415257 -56.922132590740674 -8.914494558177402
-0.017476911002663225 -57.58179466076212 -9.06325959419516
-0.013355710955940858 -58.200688623978166 -9.206684412162648
-0.010110762084772787 -58.778800884127016 -9.344846120312285
-0.007505342360435571 -59.313611108804025 -9.492038233989854
-0.005475063785670375 -59.80509708637532 -9.648386721630745
-0.003985447751437076 -60.25515677114666 -9.80312774948633
-0.0029419419370193198 -60.66503814580071 -9.949183656057112
-0.00222865752783443 -61.03494051365642 -10.085424136053753
-0.0017402354220029323 -61.36435135332723 -10.214755842698086
-0.0014049497009942318 -61.653442735375066 -10.336202915340548
-0.0011720086804816246 -61.902709458725006 -10.446959209832933
-0.0010052173229800666 -62.1125798501963 -10.544595564072337
-0.6209246712649916 -2.7220052006283826 0.3597504331800141
-0.6503643852126241 -4.9109429441399675 0.013402184063747602
-0.6916665849409614 -7.062155300256274 -0.3103497277294982
-0.7392485943984627 -9.173614391441829 -0.6230059671990337
-0.7761138204794831 -11.244038245071286 -0.9318369623882374
-0.765770157729804 -13.271453250612533 -1.2480356148269134
-0.7126976399239822 -15.254021555157523 -1.582024906299553
-0.6548892921938138 -17.1922577092853 -1.9308866754619824
-0.6072679581919687 -19.088607772892768 -2.2807486272912127
-0.5645539478947554 -20.94417578775881 -2.625349429718528
-0.5237398826831674 -22.759214627480482 -2.963254965310286
-0.4840093998483088 -24.533674795101316 -3.2947459452558285
-0.44472987047405005 -26.26735998623114 -3.6209356670742237
-0.40609832807983987 -27.960200226478936 -3.942220975257219
-0.3691188660449235 -29.612504539156422 -4.25684931151509
-0.33476967873007946 -31.224525092751072 -4.563390557289391
-0.3033937546858278 -32.79624256599708 -4.861954288923586
-0.27460694522347623 -34.32757595057731 -5.152999927414015
-0.24778798655364606 -35.81850268930124 -5.436655400945063
-0.22257363420117282 -37.26903358429412 -5.7128594476201835
-0.19903295561691423 -38.67917152219122 -5.9815956965173624
-0.17736802372104568 -40.04891793730465 -6.24285601324822
-0.15759928531051376 -41.378277222379594 -6.496615485317008
-0.1398144006963529 -42.66725323774024 -6.742852219737293
-0.12429856563552642 -43.91584798280464 -6.981554877245814
-0.11105907142990716 -45.12406644790861 -7.212695156241826
-0.09964737816779967 -46.291916845505355 -7.436226481588724
-0.08935451713250306 -47.419407640645005 -7.652100845601661
-0.07972746121286005 -48.506543355845515 -7.860292599806747
-0.07070347607438114 -49.553324822320306 -8.060797030158446
-0.062289202192950394 -50.55975266945965 -8.25361056720711
-0.054493378339291916 -51.52582764241139 -8.438728985009291
-0.047301081998971 -52.451550608034765 -8.616147367362018
-0.040678125277780114 -53.336922476851726 -8.785860550438686
-0.03459445871109547 -54.18194406781636 -8.947863889719843
-0.029018512997061326 -54.98660523384134 -9.102214932197413
-0.023905271017938854 -55.75086093066693 -9.249169136562653
-0.01920368173726683 -56.47452495097058 -9.389782537018633
-0.015028677985055923 -57.157367238274716 -9.525359848684229
-0.01156223323447653 -57.7994794310549 -9.655381363938949
-0.008799927390267616 -58.40103323643631 -9.778873283285373
-0.006606039166953134 -58.96134315469218 -9.899723268861266
-0.00486765230478973 -59.47970787037772 -10.021908678198526
-0.003547691826415294 -59.95663033434606 -10.142577135267711
-0.0025977711331711486 -60.39296284317702 -10.256895025970673
-0.001938974799320156 -60.78908151871732 -10.362729257316252
-0.0014883348561890108 -61.14486677319076 -10.460758045285303
-0.0011794444211239365 -61.46019429979751 -10.551686368771833
-0.0009663593930534462 -61.735229936212086 -10.63457371558735
-0.0008164597512981341 -61.97021560425894 -10.708048078887153

CELLS 100 350
4 0 51 52 1
4 1 52 53 2
4 2 53 54 3
4 3 54 55 4
4 4 55 56 5
4 5 56 57 6
4 6 57 58 7
4 7 58 59 8
4 8 59 60 9
4 9 60 61 10
4 10 61 62 11
4 11 62 63 12
4 12 63 64 13
4 13 64 65 14
4 14 65 66 15
4 15 66 67 16
4 16 67 68 17
4 17 68 69 18
4 18 69 70 19
4 19 70 71 20
4 20 71 72 21
4 21 72 73 22
4 22 73 74 23
4 23 74 75 24
4 24 75 76 25
4 25 76 77 26
4 26 77 78 27
4 27 78 79 28
4 28 79 80 29
4 29 80 81 30
4 30 81 82 31
4 31 82 83 32
4 32 83 84 33
4 33 84 85 34
4 34 85 86 35
4 35 86 87 36
4 36 87 88 37
4 37 88 89 38
4 38 89 90 39
4 39 90 91 40
4 40 91 92 41
4 41 92 93 42
4 42 93 94 43
4 43 94 95 44
4 44 95 96 45
4 45 96 97 46
4 46 97 98 47
4 47 98 99 48
4 48 99 100 49
4 49 100 101 50
1 102
1 103
1 104
1 105
1 106
1 107
1 108
1 109
1 110
1 111
1 112
1 113
1 114
1 115
1 116
1 117
1 118
1 119
1 120
1 121
1 122
1 123
1 124
1 125
1 126
1 127
1 128
1 129
1 130
1 131
1 132
1 133
1 134
1 135
1 136
1 137
1 138
1 139
1 140
1 141
1 142
1 143
1 144
1 145
1 146
1 147
1 148
1 149
1 150
1 151

CELL_TYPES 100
9
9
9
9
9
9
9
9
9
9
9
9
9
9
9
9
9
9
9
9
9
9
9
9
9
9
9
9
9
9
9
9
9
9
9
9
9
9
9
9
9
9
9
9
9
9
9
9
9
9
1
1
1
1
1
1
1
1
1
1
1
1
1
1
1
1
1
1
1
1
1
1
1
1
1
1
1
1
1
1
1
1
1
1
1
1
1
1
1
1
1
1
1
1
1
1
1
1
1
1

CELL_DATA 100

VECTORS S float
-3.6193495041777e-19 -8.299847727503146e-17 -1.04665885634926e-18
-3.7251477120549e-19 -6.116225405771514e-17 -5.827203415969e-19
-5.639146641080799e-19 -7.275045164206831e-17 -6.0868744105741e-19
3.02162780959e-21 -1.252056384467965e-17 -1.9794052490260998e-19
3.9765188204179996e-19 -1.3700298885579163e-16 -2.32655624194467e-18
2.07855927983233e-18 -6.305931114254575e-16 -1.028594909574802e-17
-1.3059933896209e-18 4.510687171117848e-16 6.93429097998998e-18
2.29840394595933e-18 -8.031906008911761e-16 -1.187688523918922e-17
-1.5688895376816199e-18 5.426637123580789e-16 7.78564143837689e-18
2.0770912023487998e-19 -6.517015173609132e-17 -9.1814260215583e-19
-8.343371863682599e-19 2.5153261184666317e-16 3.45810324099653e-18
1.1006576471746999e-19 -3.216452160279725e-17 -4.3289502801999996e-19
-4.1411419547098997e-19 1.2419493618999897e-16 1.6339800177932699e-18
-1.3853299357475099e-18 4.393293252339442e-16 5.65319779219935e-18
3.2161354100327e-19 -1.1119314027778636e-16 -1.40020402641635e-18
-1.5387209511213998e-19 5.738498016541612e-17 7.115488540610699e-19
1.0333982539045e-19 -4.0282111022723035e-17 -4.9114397077585e-19
9.9183577002298e-19 -4.1709450106129655e-16 -5.0017617302967995e-18
4.090478452339e-20 -1.811723914086279e-17 -2.1425829192341999e-19
5.810795662773799e-19 -2.718829154782032e-16 -3.1747185106829897e-18
-1.6876234003045398e-18 8.320596287862128e-16 9.60520017618052e-18
4.1300145464400996e-19 -2.1736811269054542e-16 -2.48220369142809e-18
1.35099599681191e-18 -7.371942506250468e-16 -8.23117336543376e-18
-1.1096767033811799e-18 6.26644404987857e-16 6.9024877677169195e-18
4.808966034811399e-19 -2.845977125960109e-16 -3.09360551428376e-18
1.3897075151945099e-18 -8.369172136678489e-16 -8.990415180294089e-18
3.2215425822746998e-19 -2.0424945847821571e-16 -2.16737131297027e-18
1.2644642145092e-19 -8.38179383879556e-17 -8.7913221097829e-19
1.54262600573778e-18 -1.0466034842988147e-15 -1.085965917695694e-17
2.3757186037279998e-20 -1.6949469785981078e-17 -1.7392141753468e-19
-5.019811847041e-20 3.684451317776798e-17 3.7178147937011e-19
3.6223444232538996e-19 -2.70486501670829e-16 -2.69461480028953e-18
-1.5018299673739e-19 1.158172089655148e-16 1.1388170283870099e-18
-5.9796851319806e-19 4.722351756827599e-16 4.5843413131142194e-18
-6.80465219261e-21 5.53503465015822e-18 5.3047277760079994e-20
-4.5598996058537e-19 3.707064932941789e-16 3.50991531676338e-18
3.5199534050857997e-19 -2.9321582527464293e-16 -2.7417240691961997e-18
-1.7888014293103e-19 1.5252478030917378e-16 1.40874178875627e-18
-8.7321522356562e-19 7.419366658220087e-16 6.77369509006404e-18
1.3242673812327499e-18 -1.181854203931978e-15 -1.065828356032494e-17
6.1917682243327e-19 -5.641494566890357e-16 -5.02987524202731e-18
6.4840878383463e-19 -6.026519132666228e-16 -5.3142310159805594e-18
1.2448265064392e-19 -1.178303891598677e-16 -1.0281103894861499e-18
5.561428917659e-19 -5.359302066848657e-16 -4.62936262479939e-18
-1.8328282462386e-19 1.8142630743356982e-16 1.54347458149175e-18
3.179162966816e-20 -3.1972110735549896e-17 -2.6947145044645e-19
-1.6081310947715e-19 1.6355293875095899e-16 1.36679143334925e-18
5.6466608379275e-19 -5.815708796914141e-16 -4.82265167212167e-18
-1.4512746957344998e-19 1.4645433027417255e-16 1.20677052460622e-18
-4.9745256724687e-19 5.067457700985526e-16 4.1507309690059e-18
-3.6193495041777e-19 -8.299847727503146e-17 -1.04665885634926e-18
-3.7251477120549e-19 -6.116225405771514e-17 -5.827203415969e-19
-5.639146641080799e-19 -7.275045164206831e-17 -6.0868744105741e-19
3.02162780959e-21 -1.252056384467965e-17 -1.9794052490260998e-19
3.9765188204179996e-19 -1.3700298885579163e-16 -2.32655624194467e-18
2.07855927983233e-18 -6.305931114254575e-16 -1.028594909574802e-17
-1.3059933896209e-18 4.510687171117848e-16 6.93429097998998e-18
2.29840394595933e-18 -8.031906008911761e-16 -1.187688523918922e-17
-1.5688895376816199e-18 5.426637123580789e-16 7.78564143837689e-18
2.0770912023487998e-19 -6.517015173609132e-17 -9.1814260215583e-19
-8.343371863682599e-19 2.5153261184666317e-16 3.45810324099653e-18
1.1006576471746999e-19 -3.216452160279725e-17 -4.3289502801999996e-19
-4.1411419547098997e-19 1.2419493618999897e-16 1.6339800177932699e-18
-1.3853299357475099e-18 4.393293252339442e-16 5.65319779219935e-18
3.2161354100327e-19 -1.1119314027778636e-16 -1.40020402641635e-18
-1.5387209511213998e-19 5.738498016541612e-17 7.115488540610699e-19
1.0333982539045e-19 -4.0282111022723035e-17 -4.9114397077585e-19
9.9183577002298e-19 -4.1709450106129655e-16 -5.0017617302967995e-18
4.090478452339e-20 -1.811723914086279e-17 -2.1425829192341999e-19
5.810795662773799e-19 -2.718829154782032e-16 -3.1747185106829897e-18
-1.6876234003045398e-18 8.320596287862128e-16 9.60520017618052e-18
4.1300145464400996e-19 -2.1736811269054542e-16 -2.48220369142809e-18
1.35099599681191e-18 -7.371942506250468e-16 -8.23117336543376e-18
-1.1096767033811799e-18 6.26644404987857e-16 6.9024877677169195e-18
4.808966034811399e-19 -2.845977125960109e-16 -3.09360551428376e-18
1.3897075151945099e-18 -8.369172136678489e-16 -8.990415180294089e-18
3.2215425822746998e-19 -2.0424945847821571e-16 -2.16737131297027e-18
1.2644642145092e-19 -8.38179383879556e-17 -8.7913221097829e-19
1.54262600573778e-18 -1.0466034842988147e-15 -1.085965917695694e-17
2.3757186037279998e-20 -1.6949469785981078e-17 -1.7392141753468e-19
-5.019811847041e-20 3.684451317776798e-17 3.7178147937011e-19
3.6223444232538996e-19 -2.70486501670829e-16 -2.69461480028953e-18
-1.5018299673739e-19 1.158172089655148e-16 1.1388170283870099e-18
-5.9796851319806e-19 4.722351756827599e-16 4.5843413131142194e-18
-6.80465219261e-21 5.53503465015822e-18 5.3047277760079994e-20
-4.5598996058537e-19 3.707064932941789e-16 3.50991531676338e-18
3.5199534050857997e-19 -2.9321582527464293e-16 -2.7417240691961997e-18
-1.7888014293103e-19 1.5252478030917378e-16 1.40874178875627e-18
-8.7321522356562e-19 7.419366658220087e-16 6.77369509006404e-18
1.3242673812327499e-18 -1.181854203931978e-15 -1.065828356032494e-17
6.1917682243327e-19 -5.641494566890357e-16 -5.02987524202731e-18
6.4840878383463e-19 -6.026519132666228e-16 -5.3142310159805594e-18
1.2448265064392e-19 -1.178303891598677e-16 -1.0281103894861499e-18
5.561428917659e-19 -5.359302066848657e-16 -4.62936262479939e-18
-1.8328282462386e-19 1.8142630743356982e-16 1.54347458149175e-18
3.179162966816e-20 -3.1972110735549896e-17 -2.6947145044645e-19
-1.6081310947715e-19 1.6355293875095899e-16 1.36679143334925e-18
5.6466608379275e-19 -5.815708796914141e-16 -4.82265167212167e-18
-1.4512746957344998e-19 1.4645433027417255e-16 1.20677052460622e-18
-4.9745256724687e-19 5.067457700985526e-16 4.1507309690059e-18

SCALARS Gamma float
LOOKUP_TABLE default
-0.0
-0.0
-0.0
49.29257278896204
53.69391533684507
53.092660702127496
51.557444377587196
47.86521648099012
44.73092516506261
46.518723352194954
51.428087454201545
53.12779190050465
49.61238159484002
44.51049551421046
42.948997435428815
41.60334101173288
41.560224290001536
36.40608079225401
32.42916738647132
34.22011097893372
34.91997205232206
34.279764928619464
35.33004579391689
36.953090544890294
34.71231594588666
36.873771503323226
38.304438783883015
37.475157036091275
36.718856808017
35.60004481645179
37.16700423032084
37.02116932887522
37.0087015165607
39.03715022435676
39.160400572433765
41.22452540041107
41.48081539102346
41.62894507765165
41.501082542822935
41.02284346009092
40.27207414930938
39.015845403871495
36.87108457529432
34.10913002083262
30.137091873607147
27.30745168259742
24.962339068246443
22.165200525570594
19.461597265524478
16.96131316924342
-0.0
-0.0
-0.0
49.29257278896204
53.69391533684507
53.092660702127496
51.557444377587196
47.86521648099012
44.73092516506261
46.518723352194954
51.428087454201545
53.12779190050465
49.61238159484002
44.51049551421046
42.948997435428815
41.60334101173288
41.560224290001536
36.40608079225401
32.42916738647132
34.22011097893372
34.91997205232206
34.279764928619464
35.33004579391689
36.953090544890294
34.71231594588666
36.873771503323226
38.304438783883015
37.475157036091275
36.718856808017
35.60004481645179
37.16700423032084
37.02116932887522
37.0087015165607
39.03715022435676
39.160400572433765
41.22452540041107
41.48081539102346
41.62894507765165
41.501082542822935
41.02284346009092
40.27207414930938
39.015845403871495
36.87108457529432
34.10913002083262
30.137091873607147
27.30745168259742
24.962339068246443
22.165200525570594
19.461597265524478
16.96131316924342

VECTORS Ftot float
112.74250023440567 6.276120367167058e-14 -38.98639082331908
135.9883619802665 1.399469037279593e-13 -86.93307910081391
139.76074693441245 2.084406851913484e-13 -129.48046788367176
1206.9095029051423 -2.965918344279185e-14 18.423874138078954
1264.4446112319804 -3.4791049406589395e-13 216.11718226668506
1345.4126819016683 -4.376750533287757e-13 271.8776837352915
1439.9676108020694 -4.3658606789854313e-13 271.20122106249045
1453.9056097418688 -4.529374625584306e-13 281.3584810483192
1468.7583415031088 -4.764601095650925e-13 295.97042370955666
1634.3468325540907 -5.952068006753712e-13 369.73422423862394
1929.5607180935704 -7.494459669433967e-13 465.5454589600895
2120.3368563404883 -8.678661548770346e-13 539.106440236101
2105.0008193658336 -8.588234180329545e-13 533.4892173007341
2002.855443983492 -7.901087577485476e-13 490.80462165221684
2044.6015183688723 -7.560141334126195e-13 469.62551303778594
2086.9919920613947 -7.265310143016065e-13 451.31100762508527
2184.5673283772517 -7.399503374649149e-13 459.6469053903046
2001.9357875087212 -6.390651616554384e-13 396.97843088233617
1858.4108811215444 -5.711582345677992e-13 354.79558791298837
2038.7573005862096 -6.007228347822323e-13 373.1607082590685
2157.6417247415798 -6.102765500444985e-13 379.09534391357147
2192.800677003071 -5.873426695413217e-13 364.8491348531207
2332.4405454981847 -6.162843332739939e-13 382.82729568097534
2513.2975674789673 -6.504485738355762e-13 404.0496489309809
2428.96357286121 -6.07835429057293e-13 377.5789533524204
2648.342426045141 -6.590161049895742e-13 409.37168067065414
2822.0285955116055 -6.752587143937548e-13 419.46136476171534
2827.594403010014 -6.547080722746674e-13 406.6955903907156
2832.2735555154964 -6.476761166077048e-13 402.327436884313
2805.353059178213 -6.168899428530296e-13 383.20349196711015
2987.0159236426853 -6.492552316785533e-13 403.3083613042645
3030.3055477525468 -6.557793003718829e-13 407.3610224540878
3082.9548687884735 -6.545038608546622e-13 406.5687370838135
3305.6188875830526 -6.941165273970112e-13 431.17557712233446
3367.888714907954 -6.954706305723412e-13 432.01672726796727
3595.443559533286 -7.519506694567917e-13 467.10134548505505
3667.289552449632 -7.579430991692743e-13 470.82375986025227
3727.4379536964007 -7.619375736701055e-13 473.305072118664
3758.5528775879843 -7.799999083351947e-13 484.52514434861405
3758.3013737856572 -7.517237061907461e-13 466.9603590463806
3727.4763203978478 -7.386702414519813e-13 458.8517274693604
3645.5402771249665 -7.160586453662434e-13 444.8057170271558
3475.242260884403 -6.773800414657798e-13 420.7791037701433
3240.663307833668 -6.267254540251494e-13 389.3131753394905
2884.4588787697207 -5.513976000784364e-13 342.5205553443126
2630.800484817677 -4.996503271444102e-13 310.3758658128473
2418.8717370354966 -4.581527245285299e-13 284.5981295814473
2158.9548833919225 -4.069374007267745e-13 252.78387948637862
1903.2134979093855 -3.6846027356457106e-13 228.8824207898284
1665.0738007047382 -3.212468002510411e-13 199.5540648144238
112.74250023440567 6.276120367167058e-14 -38.98639082331908
135.9883619802665 1.399469037279593e-13 -86.93307910081391
139.76074693441245 2.084406851913484e-13 -129.48046788367176
1206.9095029051423 -2.965918344279185e-14 18.423874138078954
1264.4446112319804 -3.4791049406589395e-13 216.11718226668506
1345.4126819016683 -4.376750533287757e-13 271.8776837352915
1439.9676108020694 -4.3658606789854313e-13 271.20122106249045
1453.9056097418688 -4.529374625584306e-13 281.3584810483192
1468.7583415031088 -4.764601095650925e-13 295.97042370955666
1634.3468325540907 -5.952068006753712e-13 369.73422423862394
1929.5607180935704 -7.494459669433967e-13 465.5454589600895
2120.3368563404883 -8.678661548770346e-13 539.106440236101
2105.0008193658336 -8.588234180329545e-13 533.4892173007341
2002.855443983492 -7.901087577485476e-13 490.80462165221684
2044.6015183688723 -7.560141334126195e-13 469.62551303778594
2086.9919920613947 -7.265310143016065e-13 451.31100762508527
2184.5673283772517 -7.399503374649149e-13 459.6469053903046
2001.9357875087212 -6.390651616554384e-13 396.97843088233617
1858.4108811215444 -5.711582345677992e-13 354.79558791298837
2038.7573005862096 -6.007228347822323e-13 373.1607082590685
2157.6417247415798 -6.102765500444985e-13 379.09534391357147
2192.800677003071 -5.873426695413217e-13 364.8491348531207
2332.4405454981847 -6.162843332739939e-13 382.82729568097534
2513.2975674789673 -6.504485738355762e-13 404.0496489309809
2428.96357286121 -6.07835429057293e-13 377.5789533524204
2648.342426045141 -6.590161049895742e-13 409.37168067065414
2822.0285955116055 -6.752587143937548e-13 419.46136476171534
2827.594403010014 -6.547080722746674e-13 406.6955903907156
2832.2735555154964 -6.476761166077048e-13 402.327436884313
2805.353059178213 -6.168899428530296e-13 383.20349196711015
2987.0159236426853 -6.492552316785533e-13 403.3083613042645
3030.3055477525468 -6.557793003718829e-13 407.3610224540878
3082.9548687884735 -6.545038608546622e-13 406.5687370838135
3305.6188875830526 -6.941165273970112e-13 431.17557712233446
3367.888714907954 -6.954706305723412e-13 432.01672726796727
3595.443559533286 -7.519506694567917e-13 467.10134548505505
3667.289552449632 -7.579430991692743e-13 470.82375986025227
3727.4379536964007 -7.619375736701055e-13 473.305072118664
3758.5528775879843 -7.799999083351947e-13 484.52514434861405
3758.3013737856572 -7.517237061907461e-13 466.9603590463806
3727.4763203978478 -7.386702414519813e-13 458.8517274693604
3645.5402771249665 -7.160586453662434e-13 444.8057170271558
3475.242260884403 -6.773800414657798e-13 420.7791037701433
3240.663307833668 -6.267254540251494e-13 389.3131753394905
2884.4588787697207 -5.513976000784364e-13 342.5205553443126
2630.800484817677 -4.996503271444102e-13 310.3758658128473
2418.8717370354966 -4.581527245285299e-13 284.5981295814473
2158.9548833919225 -4.069374007267745e-13 252.78387948637862
1903.2134979093855 -3.6846027356457106e-13 228.8824207898284
1665.0738007047382 -3.212468002510411e-13 199.5540648144238

VECTORS D float
88.6532822111828 -0.7731881922400522 30.656331914487943
57.079827124250095 -0.6953006905721878 36.489336691718364
10.655889580234831 -0.16519519144639147 9.872082103375094
499.8619917348692 -9.423483475146076 603.7051960119081
495.1704873329468 -11.036539887825462 734.5381971292102
447.81160654735004 -11.31625692202365 784.2501024906877
393.19318535535405 -11.025182139628502 791.2304921147108
340.843629590747 -10.44611385173748 772.3924766479751
302.5083578029936 -10.029641545800185 760.03046882117
309.2756726850102 -11.004920066401843 851.1005660989834
335.30969156197784 -12.635488316653591 999.9697758789896
341.3264270920487 -13.55577818960881 1093.991485198309
309.3624347030509 -12.891484013203149 1058.255542503783
266.97215013402246 -11.626392278275059 968.9488653076484
245.1306336975592 -11.117520613552175 939.1698177024908
226.81103948792097 -10.71509216508203 913.1983524333446
219.6595810671802 -10.723798858862093 925.7506271585028
184.29610825366 -9.278635950037408 810.2863996905694
158.83872616881803 -8.231469682124187 726.3605398074191
162.05509453583494 -8.629630543896237 768.7031173340681
160.129180822924 -8.74829002882834 785.9634956125788
151.47122211964637 -8.47749771052325 767.5822573814644
153.20665201234658 -8.652215553211485 800.0493784038674
157.0379408493785 -9.006749378206964 842.9265860782874
143.88143531675917 -8.370404320380057 792.4054975054906
151.0320697437922 -8.901444841071275 851.9809889486318
152.9009930538903 -9.118637067413168 882.0520866164411
146.30157289995165 -8.818286142409885 861.792874219257
141.55387620934067 -8.613326997965899 850.2203050461611
134.04743957943208 -8.224974221973236 819.8733890682637
138.47981017182104 -8.501743980724209 861.2425895745382
136.9651024526318 -8.436491538802313 865.2704497728716
135.15293096486064 -8.343483768097837 866.3522327706374
141.29800721790784 -8.733702372993253 918.0933412888058
140.19735257731418 -8.668583742857365 922.4772254751439
147.94210861398105 -9.143024999901018 984.8781352587727
147.66259986717785 -9.114681270600615 993.7343325704848
147.09537615817206 -9.062880060217209 999.9179717017646
147.3132949839379 -9.05463209876473 1010.7629101077983
142.94831321146842 -8.761491821623718 989.2875969016128
139.5020301529084 -8.523162345867648 973.1282775264061
134.4007301098622 -8.183283927413596 944.4110191153919
126.39459299017103 -7.667932963918271 894.1155235404104
116.36735279968296 -7.033439575521217 828.2240801289377
102.22145170498148 -6.118626827153344 731.3468726702729
92.2616874147238 -5.499474716731171 663.383685853798
84.15937074577829 -4.996746202557491 607.8224046857622
74.50760129135348 -4.407499586389294 540.2308738552863
66.16067860768477 -3.9007214670691193 481.3502402263569
57.53823567205292 -3.382387272236081 419.8376139295041
88.6532822111828 -0.7731881922400522 30.656331914487943
57.079827124250095 -0.6953006905721878 36.489336691718364
10.655889580234831 -0.16519519144639147 9.872082103375094
499.8619917348692 -9.423483475146076 603.7051960119081
495.1704873329468 -11.036539887825462 734.5381971292102
447.81160654735004 -11.31625692202365 784.2501024906877
393.19318535535405 -11.025182139628502 791.2304921147108
340.843629590747 -10.44611385173748 772.3924766479751
302.5083578029936 -10.029641545800185 760.03046882117
309.2756726850102 -11.004920066401843 851.1005660989834
335.30969156197784 -12.635488316653591 999.9697758789896
341.3264270920487 -13.55577818960881 1093.991485198309
309.3624347030509 -12.891484013203149 1058.255542503783
266.97215013402246 -11.626392278275059 968.9488653076484
245.1306336975592 -11.117520613552175 939.1698177024908
226.81103948792097 -10.71509216508203 913.1983524333446
219.6595810671802 -10.723798858862093 925.7506271585028
184.29610825366 -9.278635950037408 810.2863996905694
158.83872616881803 -8.231469682124187 726.3605398074191
162.05509453583494 -8.629630543896237 768.7031173340681
160.129180822924 -8.74829002882834 785.9634956125788
151.47122211964637 -8.47749771052325 767.5822573814644
153.20665201234658 -8.652215553211485 800.0493784038674
157.0379408493785 -9.006749378206964 842.9265860782874
143.88143531675917 -8.370404320380057 792.4054975054906
151.0320697437922 -8.901444841071275 851.9809889486318
152.9009930538903 -9.118637067413168 882.0520866164411
146.30157289995165 -8.818286142409885 861.792874219257
141.55387620934067 -8.613326997965899 850.2203050461611
134.04743957943208 -8.224974221973236 819.8733890682637
138.47981017182104 -8.501743980724209 861.2425895745382
136.9651024526318 -8.436491538802313 865.2704497728716
135.15293096486064 -8.343483768097837 866.3522327706374
141.29800721790784 -8.733702372993253 918.0933412888058
140.19735257731418 -8.668583742857365 922.4772254751439
147.94210861398105 -9.143024999901018 984.8781352587727
147.66259986717785 -9.114681270600615 993.7343325704848
147.09537615817206 -9.062880060217209 999.9179717017646
147.3132949839379 -9.05463209876473 1010.7629101077983
142.94831321146842 -8.761491821623718 989.2875969016128
139.5020301529084 -8.523162345867648 973.1282775264061
134.4007301098622 -8.183283927413596 944.4110191153919
126.39459299017103 -7.667932963918271 894.1155235404104
116.36735279968296 -7.033439575521217 828.2240801289377
102.22145170498148 -6.118626827153344 731.3468726702729
92.2616874147238 -5.499474716731171 663.383685853798
84.15937074577829 -4.996746202557491 607.8224046857622
74.50760129135348 -4.407499586389294 540.2308738552863
66.16067860768477 -3.9007214670691193 481.3502402263569
57.53823567205292 -3.382387272236081 419.8376139295041

VECTORS L float
24.089218023222866 0.7731881922401151 -69.64272273780703
78.9085348560164 0.6953006905723279 -123.42241579253232
129.10485735417762 0.16519519144660005 -139.35254998704684
707.0475111702735 9.423483475146048 -585.2813218738293
769.2741238990336 11.036539887825114 -518.421014862525
897.6010753543184 11.316256922023214 -512.3724187553963
1046.7744254467152 11.025182139628065 -520.0292710522203