# vtk DataFile Version 4.0
[MyVLM domain - lattices] 
ASCII
DATASET UNSTRUCTURED_GRID
POINTS 152 float
0.0 -2.177104379796468 0.8038654675773509
0.0 -2.9929309242863464 2.8868173620503415
0.0 -3.853905341494653 4.909624537454356
0.0 -4.707795263890501 6.891298020835892
0.0 -5.554133036317484 8.83200802475178
0.0 -6.358837488505463 10.744159080729306
0.0 -7.092813850124941 12.638340819141225
0.0 -7.748689949759273 14.5172364909451
0.0 -8.371951682448067 16.36429058426756
0.0 -8.981000724177497 18.17280543678902
0.0 -9.57566514993483 19.94284362409665
0.0 -10.155572422632213 21.67454073860158
0.0 -10.720337203958827 23.368037031979075
0.0 -11.266843420224594 25.024466662300103
0.0 -11.797157089337134 26.643077660542826
0.0 -12.31580305652293 28.22222311773015
0.0 -12.823453627597086 29.761658334557044
0.0 -13.319009284854374 31.261783502740272
0.0 -13.801677760904507 32.72288698402746
0.0 -14.271458818965893 34.14496886460008
0.0 -14.728352228580476 35.52802922833799
0.0 -15.172357765613754 36.87206815681948
0.0 -15.60347521225477 38.17708572932126
0.0 -16.0217043570161 39.44308202281845
0.0 -16.427044994733876 40.670057111984605
0.0 -16.81949692656777 41.85801106919166
0.0 -17.199059960000994 43.00694396451002
0.0 -17.565733908840308 44.11685586570848
0.0 -17.9195188723509 45.18774673665746
0.0 -18.260418511054187 46.21961524503612
0.0 -18.588433413260805 47.2124611767169
0.0 -18.9035628358855 48.16628480216072
0.0 -19.20580606504722 49.08108638119902
0.0 -19.49516241606916 49.956866163033794
0.0 -19.771631233478725 50.79362438623755
0.0 -20.035211891007556 51.591361278753325
0.0 -20.285513351251474 52.35021916655673
0.0 -20.5212953931463 53.07064945319903
0.0 -20.740660047837622 53.7533429428488
0.0 -20.942617153410705 54.39866002497012
0.0 -21.127733238840765 55.006394499879136
0.0 -21.295713696627516 55.576653595936776
0.0 -21.435392778298926 56.113501313230124
0.0 -21.547020701557067 56.616846579963564
0.0 -21.639025203283907 57.083621950769825
0.0 -21.717153569331252 57.51173558467104
0.0 -21.78287137696875 57.900654055165035
0.0 -21.834805303772875 58.250877210736
0.0 -21.874183113929217 58.56195818176571
0.0 -21.90342387389855 58.83301650006774
0.0 -21.92462170091558 59.06328996930158
-0.8152906147965383 1.0618078719818689 1.982733118624792
-0.840508508576773 0.34584062419547523 4.1020308247126085
-0.8937965186568912 -0.30243578387621195 6.202253744330033
-0.9506477078523391 -0.9289045911383234 8.266701744263877
-1.020681877210228 -1.5345127177616327 10.295030173757747
-1.048954977401727 -2.148329149903212 12.276658787110176
-0.9930987765444168 -2.790823927827009 14.204137098970852
-0.9074282632528687 -3.4802039744179813 16.07083833135208
-0.838943182597301 -4.178132519861073 17.890715927344445
-0.780438039247949 -4.866352370703682 19.670414961925935
-0.7250391551380654 -5.541112154013966 21.41130082318138
-0.6716005320170477 -6.20269561294911 23.113270237047384
-0.6190912009117757 -6.8517859001496975 24.776074556297313
-0.5668551203523576 -7.491699789984961 26.39850657378699
-0.5160737545272154 -8.12048029896442 27.9812785732559
-0.46824322159258064 -8.733428065116826 29.52610098258162
-0.4244759216876314 -9.32987112474417 31.033218376548728
-0.3845740908079094 -9.910902662921158 32.5022328683295
-0.34771109645469384 -10.477229088038099 33.932887346296624
-0.3130568676883623 -11.028733673502748 35.325224295455214
-0.28047282351476527 -11.56537742053038 36.67925791020209
-0.25028172479700606 -12.087157823564644 37.99498910248518
-0.22269967179244904 -12.594056837495572 39.272424440187386
-0.19756508903558764 -13.086029260594543 40.51158037539247
-0.17527331282135344 -13.563064726688573 41.71246068107884
-0.15618952887338375 -14.025144883821183 42.875072036812384
-0.13996799493970205 -14.47221620087291 43.99943392632721
-0.12575834684109707 -14.904213824591665 45.08556995427667
-0.11252036551224441 -15.321080481472967 46.1335009665116
-0.10008619772204906 -15.722806929121939 47.14323032698863
-0.0884564051429673 -16.10938899874969 48.114759553022836
-0.07764813403823374 -16.480821828258783 49.04809041427295
-0.06766754153321136 -16.837100012473265 49.943224878062146
-0.05846867713071129 -17.178216913458296 50.8001653604011
-0.05000632361003568 -17.5041664764892 51.618914065029394
-0.0422455662862189 -17.814943365540618 52.399472934101404
-0.03513713503927796 -18.11082989973032 53.14173921186172
-0.028610254341892315 -18.39273752835293 53.845381157897044
-0.02259956362415257 -18.66348794837578 54.50937175850116
-0.017476911002663225 -18.924542025558427 55.133179302021304
-0.013355710955940858 -19.173257707148707 55.71776541701666
-0.010110762084772787 -19.409708568965634 56.263103324079125
-0.007505342360435571 -19.647533324610365 56.76422893742421
-0.005475063785670375 -19.886852171764957 57.22109850867338
-0.003985447751437076 -20.11739437980811 57.637450278056996
-0.0029419419370193198 -20.332406522740534 58.015742291618096
-0.00222865752783443 -20.530810075808162 58.356367100264094
-0.0017402354220029323 -20.71537853523437 58.65831523392483
-0.0014049497009942318 -20.88518074562512 58.9219256054472
-0.0011720086804816246 -21.03753911539885 59.14817277846641
-0.0010052173229800666 -21.170135765054898 59.33790039212736
-0.6209246712649916 -0.11838622694384758 2.743121832454986
-0.6503643852126241 -0.8395777181029013 4.838661950829077
-0.6916665849409614 -1.5319652163035955 6.900973628008997
-0.7392485943984627 -2.206522528363481 8.926062724956568
-0.7761138204794831 -2.870187015977185 10.911404248510607
-0.765770157729804 -3.533638821477634 12.853110944764204
-0.7126976399239822 -4.206823438327398 14.747562950131888
-0.6548892921938138 -4.886956389380563 16.59577373141278
-0.6072679581919687 -5.560800884789979 18.402561086108467
-0.5645539478947554 -6.222382431033159 20.170099552025956
-0.5237398826831674 -6.870332609182034 21.898887192923066
-0.4840093998483088 -7.504919270735933 23.588826518826842
-0.44472987047405005 -8.127204711823424 25.239530885566506
-0.40609832807983987 -8.737567597051235 26.850862470496455
-0.3691188660449235 -9.334335654762974 28.423429930723188
-0.33476967873007946 -9.916144281712874 29.95772994120978
-0.3033937546858278 -10.483098034430931 31.453724446491506
-0.27460694522347623 -11.035635287329582 32.911253891330766
-0.24778798655364606 -11.573878108061619 34.33027384673538
-0.22257363420117282 -12.09776804120572 35.71080558873875
-0.19903295561691423 -12.607289465809913 37.05285480290241
-0.17736802372104568 -13.102434620131147 38.35642431426981
-0.15759928531051376 -13.583179732942652 39.62152277485991
-0.1398144006963529 -14.049503914199915 40.84815778802712
-0.12429856563552642 -14.501396344103865 42.036333291856245
-0.11105907142990716 -14.938830017581381 43.18605911539006
-0.09964737816779967 -15.361760493154382 44.297351434003765
-0.08935451713250306 -15.770141962423136 45.37022692059134
-0.07972746121286005 -16.163949951898722 46.40469448277428
-0.07070347607438114 -16.543179963491234 47.400755757723424
-0.062289202192950394 -16.907828591271464 48.35841198509562
-0.054493378339291916 -17.25789180289111 49.27766463254563
-0.047301081998971 -17.59336490736388 50.15851540745282
-0.040678125277780114 -17.914242977423793 51.000966103195346
-0.03459445871109547 -18.220521581321965 51.80501833279791
-0.029018512997061326 -18.51225562975898 52.57065211039993
-0.023905271017938854 -18.789688878580943 53.297778716129
-0.01920368173726683 -19.05382898389626 53.9860313931553
-0.015028677985055923 -19.30592089038137 54.63495701867328
-0.01156223323447653 -19.54546869879661 55.24473608524541
-0.008799927390267616 -19.771543220476413 55.815706789887905
-0.006606039166953134 -19.987854019456805 56.346518961709606
-0.00486765230478973 -20.198196246122745 56.8357912789358
-0.003547691826415294 -20.39984819494502 57.28451436136556
-0.0025977711331711486 -20.588197685032636 57.69436690555826
-0.001938974799320156 -20.76120934274326 58.06608972693534
-0.0014883348561890108 -20.91953031423365 58.39944728355847
-0.0011794444211239365 -21.063833282535068 58.69419473882722
-0.0009663593930534462 -21.19322082136246 58.95065872919679
-0.0008164597512981341 -21.30638377702192 59.169315747643815

CELLS 100 350
4 0 51 52 1
4 1 52 53 2
4 2 53 54 3
4 3 54 55 4
4 4 55 56 5
4 5 56 57 6
4 6 57 58 7
4 7 58 59 8
4 8 59 60 9
4 9 60 61 10
4 10 61 62 11
4 11 62 63 12
4 12 63 64 13
4 13 64 65 14
4 14 65 66 15
4 15 66 67 16
4 16 67 68 17
4 17 68 69 18
4 18 69 70 19
4 19 70 71 20
4 20 71 72 21
4 21 72 73 22
4 22 73 74 23
4 23 74 75 24
4 24 75 76 25
4 25 76 77 26
4 26 77 78 27
4 27 78 79 28
4 28 79 80 29
4 29 80 81 30
4 30 81 82 31
4 31 82 83 32
4 32 83 84 33
4 33 84 85 34
4 34 85 86 35
4 35 86 87 36
4 36 87 88 37
4 37 88 89 38
4 38 89 90 39
4 39 90 91 40
4 40 91 92 41
4 41 92 93 42
4 42 93 94 43
4 43 94 95 44
4 44 95 96 45
4 45 96 97 46
4 46 97 98 47
4 47 98 99 48
4 48 99 100 49
4 49 100 101 50
1 102
1 103
1 104
1 105
1 106
1 107
1 108
1 109
1 110
1 111
1 112
1 113
1 114
1 115
1 116
1 117
1 118
1 119
1 120
1 121
1 122
1 123
1 124
1 125
1 126
1 127
1 128
1 129
1 130
1 131
1 132
1 133
1 134
1 135
1 136
1 137
1 138
1 139
1 140
1 141
1 142
1 143
1 144
1 145
1 146
1 147
1 148
1 149
1 150
1 151

CELL_TYPES 100
9
9
9
9
9
9
9
9
9
9
9
9
9
9
9
9
9
9
9
9
9
9
9
9
9
9
9
9
9
9
9
9
9
9
9
9
9
9
9
9
9
9
9
9
9
9
9
9
9
9
1
1
1
1
1
1
1
1
1
1
1
1
1
1
1
1
1
1
1
1
1
1
1
1
1
1
1
1
1
1
1
1
1
1
1
1
1
1
1
1
1
1
1
1
1
1
1
1
1
1

CELL_DATA 100

VECTORS S float
3.57359420273356e-18 1.6452120842890313e-16 -8.728006110347194e-16
9.952317433176929e-18 3.239653654084824e-16 -1.7465368631315817e-15
2.554617882161236e-17 6.443666696115519e-16 -3.4936962477263994e-15
0.0 -0.0 0.0
0.0 -0.0 0.0
0.0 -0.0 0.0
0.0 -0.0 0.0
-1.8218514865529318e-17 1.3290916480267291e-15 -6.979991505081252e-15
-1.873116540572558e-17 1.3261963770196857e-15 -6.980540827698607e-15
0.0 -0.0 0.0
4.345550889141074e-17 -2.64338133402748e-15 1.396277330898991e-14
-4.409938111194958e-17 2.6395754395929417e-15 -1.3963491271163608e-14
-8.794053968766461e-17 5.272069131303259e-15 -2.7928321118222535e-14
0.0 -0.0 0.0
-3.768501997146562e-17 2.6275673976016576e-15 -1.3965774634688531e-14
-3.577877741913224e-17 2.6251460007243577e-15 -1.3966235000548514e-14
0.0 -0.0 0.0
0.0 -0.0 0.0
0.0 -0.0 0.0
0.0 -0.0 0.0
-2.6973857462591537e-17 2.614539805833453e-15 -1.3968244189994137e-14
5.000499702946167e-17 -5.225316947201595e-15 2.793719973884061e-14
2.422997524149026e-17 -2.6110736211970083e-15 1.3968897565290108e-14
0.0 -0.0 0.0
0.0 -0.0 0.0
0.0 -0.0 0.0
0.0 -0.0 0.0
0.0 -0.0 0.0
-1.9169190705294028e-17 2.602110213970712e-15 -1.3970577894742076e-14
0.0 -0.0 0.0
1.797150785366195e-17 -2.598205385555594e-15 1.3971306221536855e-14
1.748375178471437e-17 -2.5966765390991016e-15 1.3971591069248157e-14
1.7225550249777218e-17 -2.5951774295978543e-15 1.3971869922308305e-14
1.6638779372912078e-17 -2.593625321774403e-15 1.39721588374113e-14
1.629162784994478e-17 -2.592112156402348e-15 1.3972440047753727e-14
-3.201512670085044e-17 5.1812328942609354e-15 -2.7945435542739476e-14
-1.560611449246357e-17 2.5891180106673567e-15 -1.3972995960516393e-14
0.0 -0.0 0.0
-1.51626771007223e-17 2.586876288038287e-15 -1.3973411641406241e-14
1.4871338405199318e-17 -2.5855677761786697e-15 1.3973654133928588e-14
-1.474591030728059e-17 2.5843191009288596e-15 -1.3973885253546437e-14
0.0 -0.0 0.0
-1.3953188563133898e-17 2.581879254326308e-15 -1.3974337070544255e-14
-1.370865313344582e-17 2.580763331901173e-15 -1.3974543442779181e-14
6.74772738966387e-18 -1.2898596819550798e-15 6.987368202920653e-15
0.0 -0.0 0.0
0.0 -0.0 0.0
6.5436055586577995e-18 -1.2885436618158124e-15 6.9876112046224596e-15
6.4900955969841795e-18 -1.2881927257386204e-15 6.9876759594415945e-15
0.0 -0.0 0.0
3.57359420273356e-18 1.6452120842890313e-16 -8.728006110347194e-16
9.952317433176929e-18 3.239653654084824e-16 -1.7465368631315817e-15
2.554617882161236e-17 6.443666696115519e-16 -3.4936962477263994e-15
0.0 -0.0 0.0
0.0 -0.0 0.0
0.0 -0.0 0.0
0.0 -0.0 0.0
-1.8218514865529318e-17 1.3290916480267291e-15 -6.979991505081252e-15
-1.873116540572558e-17 1.3261963770196857e-15 -6.980540827698607e-15
0.0 -0.0 0.0
4.345550889141074e-17 -2.64338133402748e-15 1.396277330898991e-14
-4.409938111194958e-17 2.6395754395929417e-15 -1.3963491271163608e-14
-8.794053968766461e-17 5.272069131303259e-15 -2.7928321118222535e-14
0.0 -0.0 0.0
-3.768501997146562e-17 2.6275673976016576e-15 -1.3965774634688531e-14
-3.577877741913224e-17 2.6251460007243577e-15 -1.3966235000548514e-14
0.0 -0.0 0.0
0.0 -0.0 0.0
0.0 -0.0 0.0
0.0 -0.0 0.0
-2.6973857462591537e-17 2.614539805833453e-15 -1.3968244189994137e-14
5.000499702946167e-17 -5.225316947201595e-15 2.793719973884061e-14
2.422997524149026e-17 -2.6110736211970083e-15 1.3968897565290108e-14
0.0 -0.0 0.0
0.0 -0.0 0.0
0.0 -0.0 0.0
0.0 -0.0 0.0
0.0 -0.0 0.0
-1.9169190705294028e-17 2.602110213970712e-15 -1.3970577894742076e-14
0.0 -0.0 0.0
1.797150785366195e-17 -2.598205385555594e-15 1.3971306221536855e-14
1.748375178471437e-17 -2.5966765390991016e-15 1.3971591069248157e-14
1.7225550249777218e-17 -2.5951774295978543e-15 1.3971869922308305e-14
1.6638779372912078e-17 -2.593625321774403e-15 1.39721588374113e-14
1.629162784994478e-17 -2.592112156402348e-15 1.3972440047753727e-14
-3.201512670085044e-17 5.1812328942609354e-15 -2.7945435542739476e-14
-1.560611449246357e-17 2.5891180106673567e-15 -1.3972995960516393e-14
0.0 -0.0 0.0
-1.51626771007223e-17 2.586876288038287e-15 -1.3973411641406241e-14
1.4871338405199318e-17 -2.5855677761786697e-15 1.3973654133928588e-14
-1.474591030728059e-17 2.5843191009288596e-15 -1.3973885253546437e-14
0.0 -0.0 0.0
-1.3953188563133898e-17 2.581879254326308e-15 -1.3974337070544255e-14
-1.370865313344582e-17 2.580763331901173e-15 -1.3974543442779181e-14
6.74772738966387e-18 -1.2898596819550798e-15 6.987368202920653e-15
0.0 -0.0 0.0
0.0 -0.0 0.0
6.5436055586577995e-18 -1.2885436618158124e-15 6.9876112046224596e-15
6.4900955969841795e-18 -1.2881927257386204e-15 6.9876759594415945e-15
0.0 -0.0 0.0

SCALARS Gamma float
LOOKUP_TABLE default
-0.0
-0.0
-0.0
51.18183585889726
54.76075225656772
54.85129260027828
52.6825261547268
47.968885850502744
44.9351785222005
47.496913248629376
54.068757184270034
54.71959465513565
50.772511379045035
45.8631556560409
44.93817480351773
44.18350565860567
40.55612613534753
38.40083943062263
33.67917734408641
33.96535091420216
33.4364481748088
35.03874218890878
36.71195801767817
34.64833612098643
36.748872372857456
38.00240747563834
38.11298192492115
38.233190295872795
38.44320917424156
38.724355451081166
39.09662318817852
39.38980408302506
37.412460350312806
37.72194770187782
38.03476656247491
38.335728926202286
38.584244374810595
40.92241614020388
40.86155566776546
40.448716183223006
39.755686598032845
38.569982100826465
36.51443872555347
33.84616882460645
31.16658734247467
28.549488174715115
25.734245971333692
23.00197996602803
20.225449152062986
17.649951214834477
-0.0
-0.0
-0.0
51.18183585889726
54.76075225656772
54.85129260027828
52.6825261547268
47.968885850502744
44.9351785222005
47.496913248629376
54.068757184270034
54.71959465513565
50.772511379045035
45.8631556560409
44.93817480351773
44.18350565860567
40.55612613534753
38.40083943062263
33.67917734408641
33.96535091420216
33.4364481748088
35.03874218890878
36.71195801767817
34.64833612098643
36.748872372857456
38.00240747563834
38.11298192492115
38.233190295872795
38.44320917424156
38.724355451081166
39.09662318817852
39.38980408302506
37.412460350312806
37.72194770187782
38.03476656247491
38.335728926202286
38.584244374810595
40.92241614020388
40.86155566776546
40.448716183223006
39.755686598032845
38.569982100826465
36.51443872555347
33.84616882460645
31.16658734247467
28.549488174715115
25.734245971333692
23.00197996602803
20.225449152062986
17.649951214834477

VECTORS Ftot float
115.58910405365462 -38.88468200390041 -6.856418573556614
139.1316267823215 -86.52211757954048 -15.256183757303333
142.55892672627567 -128.53345256844426 -22.66391561142871
1271.4934776574714 12.626072778780426 2.2263172912877143
1299.1275050792262 217.5413506123853 38.35840953272388
1394.149510385441 283.4850791302501 49.9860680789378
1476.163331681353 277.2820341338386 48.8923038835218
1465.525098220512 271.5292177398855 47.877927138205884
1481.0110227948092 290.9738185018345 51.3065348816419
1672.6377998339199 372.69199778310326 65.71565470330121
2031.3983772505198 486.72096979178167 85.82203905088176
2188.848925479968 544.0120781176536 95.92400720342447
2155.5359985430005 545.4109773420732 96.1706708799818
2065.8145960508523 502.07788958821976 88.52987835156976
2141.4631151374765 489.0247751613116 86.22826209583093
2214.944564305809 487.61418362671856 85.97953674952322
2133.846914936025 442.707356283388 78.06125147087732
2111.832069228542 420.9528999866986 74.22535387512778
1931.883249050787 363.3268591859445 64.06432809054789
2024.6436924837517 368.92044253183525 65.05062775326996
2066.1979793983896 367.7275323880238 64.84028550935518
2242.2944343233744 374.70876088390224 66.07126445166935
2424.6540142758654 397.0081844166832 70.00325447474394
2357.4478309317933 377.99042897596377 66.64991107802987
2571.1471209406154 405.5935195804324 71.51708070253808
2732.853486400193 406.84152135637515 71.73713708760887
2810.603932926348 406.2440306853276 71.63178336158157
2886.637169457887 408.2501167023217 71.98551045199962
2967.9332487283364 410.1262718413587 72.31632722300668
3052.799740020307 413.8352698511049 72.97032364351894
3143.414537680024 419.4305247725344 73.9569180501088
3226.212566918621 423.76318471696123 74.7208828965461
3117.442615023378 408.1768743060594 71.97259584140683
3195.7834514102633 409.1664331826907 72.1470817703565
3272.0932095531407 415.18863153105735 73.20895782235151
3345.6224338727693 422.1959344261803 74.44453438475823
3413.3806393262007 425.13036464180226 74.96195360477854
3665.8234828954937 455.731460465792 80.35775243779312
3703.90810950662 456.64381261935415 80.5186247383736
3707.000345137068 453.22329022417125 79.91549435198532
3680.1794846577086 450.9293957879196 79.5110188719771
3604.7053809417666 435.17302218133744 76.7327450870139
3443.0511495368987 407.7308984518066 71.89395826555756
3216.9737989703335 377.97857422959004 66.64782076639473
2983.7887908598477 348.34671293160153 61.422924130948346
2750.636139981876 322.8663391053942 56.93004674685017
2493.947308665571 290.99172959278326 51.3096930902301
2240.749676062579 259.7939439083002 45.808681735695366
1979.0640192264768 229.04814139989173 40.387367209928904
1733.7148319647624 199.65596553724765 35.20473358361659
115.58910405365462 -38.88468200390041 -6.856418573556614
139.1316267823215 -86.52211757954048 -15.256183757303333
142.55892672627567 -128.53345256844426 -22.66391561142871
1271.4934776574714 12.626072778780426 2.2263172912877143
1299.1275050792262 217.5413506123853 38.35840953272388
1394.149510385441 283.4850791302501 49.9860680789378
1476.163331681353 277.2820341338386 48.8923038835218
1465.525098220512 271.5292177398855 47.877927138205884
1481.0110227948092 290.9738185018345 51.3065348816419
1672.6377998339199 372.69199778310326 65.71565470330121
2031.3983772505198 486.72096979178167 85.82203905088176
2188.848925479968 544.0120781176536 95.92400720342447
2155.5359985430005 545.4109773420732 96.1706708799818
2065.8145960508523 502.07788958821976 88.52987835156976
2141.4631151374765 489.0247751613116 86.22826209583093
2214.944564305809 487.61418362671856 85.97953674952322
2133.846914936025 442.707356283388 78.06125147087732
2111.832069228542 420.9528999866986 74.22535387512778
1931.883249050787 363.3268591859445 64.06432809054789
2024.6436924837517 368.92044253183525 65.05062775326996
2066.1979793983896 367.7275323880238 64.84028550935518
2242.2944343233744 374.70876088390224 66.07126445166935
2424.6540142758654 397.0081844166832 70.00325447474394
2357.4478309317933 377.99042897596377 66.64991107802987
2571.1471209406154 405.5935195804324 71.51708070253808
2732.853486400193 406.84152135637515 71.73713708760887
2810.603932926348 406.2440306853276 71.63178336158157
2886.637169457887 408.2501167023217 71.98551045199962
2967.9332487283364 410.1262718413587 72.31632722300668
3052.799740020307 413.8352698511049 72.97032364351894
3143.414537680024 419.4305247725344 73.9569180501088
3226.212566918621 423.76318471696123 74.7208828965461
3117.442615023378 408.1768743060594 71.97259584140683
3195.7834514102633 409.1664331826907 72.1470817703565
3272.0932095531407 415.18863153105735 73.20895782235151
3345.6224338727693 422.1959344261803 74.44453438475823
3413.3806393262007 425.13036464180226 74.96195360477854
3665.8234828954937 455.731460465792 80.35775243779312
3703.90810950662 456.64381261935415 80.5186247383736
3707.000345137068 453.22329022417125 79.91549435198532
3680.1794846577086 450.9293957879196 79.5110188719771
3604.7053809417666 435.17302218133744 76.7327450870139
3443.0511495368987 407.7308984518066 71.89395826555756
3216.9737989703335 377.97857422959004 66.64782076639473
2983.7887908598477 348.34671293160153 61.422924130948346
2750.636139981876 322.8663391053942 56.93004674685017
2493.947308665571 290.99172959278326 51.3096930902301
2240.749676062579 259.7939439083002 45.808681735695366
1979.0640192264768 229.04814139989173 40.387367209928904
1733.7148319647624 199.65596553724765 35.20473358361659

VECTORS D float
91.42718858327629 30.628741883875396 6.147797367057659
59.80023232261925 37.07174889329504 7.217204421668491
12.547901697548314 11.282055438412835 2.172579094351473
530.6426604492143 622.1386352385802 119.12575963394823
515.0867315576945 742.0769140646474 141.53568842303923
473.256395768646 805.1596678403866 153.10185300046513
410.5043612573605 802.6801017916262 152.22993373021998
345.84597664897177 761.6993620704659 144.13591472654227
308.64828975610385 753.8014267038368 142.382575140236
320.88998072770977 859.3192905553858 161.98469694129238
358.9211541011245 1042.027604618384 196.15581787199994
355.6429099374859 1110.104955820707 208.72445779720647
322.71763440592474 1075.4953290679994 202.00662039161324
279.57269931905523 988.8731600487215 185.56276700510844
261.05674329195597 974.6244005121742 182.664652540779
247.4000945561481 970.9740848294352 181.87414593701362
217.11745692945416 892.3862487869767 167.06013502723488
198.3911531810659 851.0792748237847 159.24153302422096
166.80908612454866 744.656161661981 139.25740772490482
163.2714754295034 756.4228918778258 141.38835122481743
156.66889715476262 751.6348688347268 140.38652910469688
157.61965456746967 780.7144803140395 145.7411219669068
161.63229905468663 824.8192600179902 153.89528453738393
149.40361006094074 783.9568065907706 146.19756273780743
155.6562361195042 838.3058766170171 156.2557641023103
155.40176156578613 857.5291146438227 159.76110159839334
152.46754591109098 860.6427736703412 160.2639338797003
150.2490372672602 866.2559847798353 161.23187289107602
148.44046623916793 872.8618151586738 162.3724643386027
147.28541145509283 882.0674618604912 163.9946094617748
146.8683006061035 894.3785583630395 166.1362012571487
146.14179577330773 904.2559019534461 167.87672695518958
137.92559261251924 866.1623467958179 160.71357241599364
137.1001249706186 872.9209697355618 161.8753965369093
137.15044042165977 884.4865942332325 163.92656123940864
137.41976050522248 896.8126241395252 166.11641461220643
137.08480526756597 904.5380843054018 167.45274176383643
144.87136972369026 965.7271990056731 178.68065012806088
143.79763394620403 967.5432816517108 178.9637691953459
141.5073874459208 960.4757546416968 177.56778098094568
138.9456020377859 950.7088845733981 175.6767145212915
133.676899127562 921.45747710878 170.1914679535224
125.27534670952251 869.4276780333217 160.50917357963928
115.5503494729959 806.920423694087 148.90551595420484
105.96362693324673 744.1473863857808 137.26637406378475
97.1857608581108 685.9711017405815 126.48786498661029
87.28045364362295 618.8504307541682 114.07230854451402
77.7237924447186 553.2963553463889 101.95729228263362
68.23475462551933 487.43685321893327 89.79663083048001
59.37462179814552 425.4021262077785 78.34990439011058
91.42718858327629 30.628741883875396 6.147797367057659
59.80023232261925 37.07174889329504 7.217204421668491
12.547901697548314 11.282055438412835 2.172579094351473
530.6426604492143 622.1386352385802 119.12575963394823
515.0867315576945 742.0769140646474 141.53568842303923
473.256395768646 805.1596678403866 153.10185300046513
410.5043612573605 802.6801017916262 152.22993373021998
345.84597664897177 761.6993620704659 144.13591472654227
308.64828975610385 753.8014267038368 142.382575140236
320.88998072770977 859.3192905553858 161.98469694129238
358.9211541011245 1042.027604618384 196.15581787199994
355.6429099374859 1110.104955820707 208.72445779720647
322.71763440592474 1075.4953290679994 202.00662039161324
279.57269931905523 988.8731600487215 185.56276700510844
261.05674329195597 974.6244005121742 182.664652540779
247.4000945561481 970.9740848294352 181.87414593701362
217.11745692945416 892.3862487869767 167.06013502723488
198.3911531810659 851.0792748237847 159.24153302422096
166.80908612454866 744.656161661981 139.25740772490482
163.2714754295034 756.4228918778258 141.38835122481743
156.66889715476262 751.6348688347268 140.38652910469688
157.61965456746967 780.7144803140395 145.7411219669068
161.63229905468663 824.8192600179902 153.89528453738393
149.40361006094074 783.9568065907706 146.19756273780743
155.6562361195042 838.3058766170171 156.2557641023103
155.40176156578613 857.5291146438227 159.76110159839334
152.46754591109098 860.6427736703412 160.2639338797003
150.2490372672602 866.2559847798353 161.23187289107602
148.44046623916793 872.8618151586738 162.3724643386027
147.28541145509283 882.0674618604912 163.9946094617748
146.8683006061035 894.3785583630395 166.1362012571487
146.14179577330773 904.2559019534461 167.87672695518958
137.92559261251924 866.1623467958179 160.71357241599364
137.1001249706186 872.9209697355618 161.8753965369093
137.15044042165977 884.4865942332325 163.92656123940864
137.41976050522248 896.8126241395252 166.11641461220643
137.08480526756597 904.5380843054018 167.45274176383643
144.87136972369026 965.7271990056731 178.68065012806088
143.79763394620403 967.5432816517108 178.9637691953459
141.5073874459208 960.4757546416968 177.56778098094568
138.9456020377859 950.7088845733981 175.6767145212915
133.676899127562 921.45747710878 170.1914679535224
125.27534670952251 869.4276780333217 160.50917357963928
115.5503494729959 806.920423694087 148.90551595420484
105.96362693324673 744.1473863857808 137.26637406378475
97.1857608581108 685.9711017405815 126.48786498661029
87.28045364362295 618.8504307541682 114.07230854451402
77.7237924447186 553.2963553463889 101.95729228263362
68.23475462551933 487.43685321893327 89.79663083048001
59.37462179814552 425.4021262077785 78.34990439011058

VECTORS L float
24.161915470378336 -69.51342388777582 -13.004215940614275
79.33139445970227 -123.59386647283556 -22.473388178971828
130.01102502872737 -139.8155080068571 -24.836494705780186
740.8508172082571 -609.5125624597999 -116.89944234266056
784.0407735215322 -524.5355634522623 -103.17727889031538
920.893114616795 -521.6745887101364 -103.11578492152732
1065.6589704239923 -525.3980676577875 -103.33762984669815
1119.6791215715407 -490.17014433058034 -96.2579875883364
1172.3627330387055 -462.8276082020023 -91.07604025859418
1351.7478191062103 -486.6272927722828 -96.26904223799121
1672.4772231493955 -555.3066348266024 -110.33377882111817
1833.2060155424822 -566.0928777030532 -112.80045059378199
1832.8183641370758 -530.084351725926 -105.83594951163147
1786.2418967317974 -486.79527046050174 -97.03288865353866
1880.4063718455209 -485.5996253508627 -96.43639044494812
1967.5444697496614 -483.35990120271657 -95.89460918749043
1916.7294580065711 -449.6788925035885 -88.99888355635753
1913.4409160474763 -430.12637483708613 -85.01617914909319
1765.0741629262386 -381.3293024760363 -75.19307963435692
1861.3722170542487 -387.50244934599044 -76.33772347154746
1909.529082243627 -383.9073364467032 -75.54624359534175
2084.674779755905 -406.0057194301373 -79.66985751523742
2263.0217152211785 -427.8110756013072 -83.89203006263998
2208.0442208708528 -405.966377614807 -79.54765165977759
2415.490884821111 -432.71235703658476 -84.73868339977228
2577.4517248344077 -450.6875932874474 -88.02396451078444
2658.1363870152577 -454.3987429850138 -88.63215051811875
2736.388132190627 -458.0058680775137 -89.24636243907639
2819.492782489169 -462.73554331731503 -90.05613711559602
2905.514328565215 -468.2321920093864 -91.02428581825588
2996.546237073921 -474.9480335905052 -92.17928320703994
3080.070771145314 -480.49271723648496 -93.1558440586435
2979.517022410859 -457.98547248975837 -88.74097657458678
3058.6833264396446 -463.75453655287123 -89.72831476655283
3134.9427691314822 -469.2979627021755 -90.71760341705718
3208.2026733675466 -474.6166897133448 -91.67188022744818
3276.2958340586347 -479.40771966359944 -92.49078815905786
3520.9521131718047 -509.9957385398811 -98.32289769026775
3560.110475560417 -510.89946903235693 -98.44514445697234
3565.4929576911472 -507.25246441752574 -97.6522866289604
3541.2338826199234 -499.77948878547846 -96.16569564931439
3471.028481814203 -486.2844549274425 -93.4587228665085
3317.775802827377 -461.6967795815151 -88.61521531408172
3101.423449497338 -428.9418494644971 -82.25769518781013
2877.825163926601 -395.8006734541792 -75.84344993283638
2653.450379123766 -363.1047626351874 -69.55781823976014
2406.666855021949 -327.85870116138506 -62.76261545428399
2163.025883617861 -293.50241143808864 -56.14861054693823
1910.8292646009577 -258.3887118190416 -49.40926362055112
1674.340210166617 -225.74616067053077 -43.14517080649397
24.161915470378336 -69.51342388777582 -13.004215940614275
79.33139445970227 -123.59386647283556 -22.473388178971828
130.01102502872737 -139.8155080068571 -24.836494705780186
740.8508172082571 -609.5125624597999 -116.89944234266056
784.0407735215322 -524.5355634522623 -103.17727889031538
920.893114616795 -521.6745887101364 -103.11578492152732