# vtk DataFile Version 4.0
[MyVLM domain - lattices] 
ASCII
DATASET UNSTRUCTURED_GRID
POINTS 152 float
0.0 0.3923842737511871 -2.2873604333827684
0.0 -1.0035917094784024 -4.035362893229161
0.0 -2.324906901731567 -5.792392198242052
0.0 -3.6141415191480495 -7.522719304763134
0.0 -4.87167679770431 -9.226024317825166
0.0 -6.125295961960096 -10.878994343947147
0.0 -7.398717285999646 -12.461727388092838
0.0 -8.69795061902526 -13.969180588013149
0.0 -9.985915519662143 -15.432468128389566
0.0 -11.247610804202479 -16.864177496938545
0.0 -12.483176627200773 -18.264191090025086
0.0 -13.692916683673555 -19.632254077272822
0.0 -14.87714510428994 -20.96810287175317
0.0 -16.03840213559633 -22.269605953525943
0.0 -17.175003544363147 -23.538176562072888
0.0 -18.283260642965256 -24.77690987381979
0.0 -19.362625362680674 -25.986265773029128
0.0 -20.413994038555103 -27.16549214529464
0.0 -21.438012532882624 -28.314047047803562
0.0 -22.434681038689366 -29.431930318587757
0.0 -23.403999743846448 -30.519141800004615
0.0 -24.34596883106999 -31.57568133873713
0.0 -25.260588477921125 -32.60154878579381
0.0 -26.147858856805968 -33.596743996508756
0.0 -27.007780134975633 -34.5612668305416
0.0 -27.84035247452625 -35.49511715187755
0.0 -28.645576032398942 -36.398294828827375
0.0 -29.42345096037983 -37.270799734027406
0.0 -30.173977177547194 -38.11263193537901
0.0 -30.897151699816625 -38.923793936826314
0.0 -31.592974047592897 -39.7042861407975
0.0 -32.26144482664467 -40.45410803899231
0.0 -32.9025646189331 -41.17325914308736
0.0 -33.51633398261183 -41.8617389847361
0.0 -34.102753452027024 -42.5195471155689
0.0 -34.66182353771733 -43.146683107192956
0.0 -35.19386301629531 -43.742879474270225
0.0 -35.69988292523584 -44.30728785562846
0.0 -36.18143050292513 -44.83860996410843
0.0 -36.63931293675169 -45.33616848907015
0.0 -37.07306838806347 -45.80035095915621
0.0 -37.482937023095154 -46.230955850967696
0.0 -37.878021243399175 -46.62034534271909
0.0 -38.25811706963592 -46.96869059339905
0.0 -38.61635414775162 -47.28175651456016
0.0 -38.94804724739287 -47.56347448126393
0.0 -39.2520016190229 -47.814847007406016
0.0 -39.52933680533886 -48.03493468512215
0.0 -39.77905192380634 -48.224577354577804
0.0 -39.99917493337833 -48.385429754688225
0.0 -40.187998694043884 -48.51892434600691
-0.8152906147965383 -2.248001185644739 -0.07181396823779806
-0.840508508576773 -3.7253832134056735 -1.7515086461423384
-0.8937965186568912 -5.220091411368839 -3.3630439440152475
-0.9506477078523391 -6.694721420472462 -4.937805845749683
-1.020681877210228 -8.148501304320687 -6.476442082890696
-1.048954977401727 -9.557733808279227 -7.998837013061832
-0.9930987765444168 -10.905731602632219 -9.518992968473011
-0.9074282632528687 -12.177652267854587 -11.049364217873494
-0.838943182597301 -13.404748225040581 -12.563726866249704
-0.780438039247949 -14.601902874657487 -14.049592257758878
-0.7250391551380654 -15.772174363938708 -15.504394302185379
-0.6716005320170477 -16.9153313833432 -16.928327091279783
-0.6190912009117757 -18.030817021735828 -18.321857928970182
-0.5668551203523576 -19.115927419877497 -19.687255622546868
-0.5160737545272154 -20.17225792532653 -21.02318151646203
-0.46824322159258064 -21.203639493061882 -22.32642105780579
-0.4244759216876314 -22.210619912909127 -23.596514596337535
-0.3845740908079094 -23.192308012230264 -24.834209914689133
-0.34771109645469384 -24.14812792162928 -26.03999022465838
-0.3130568676883623 -25.078174797496015 -27.213775680553656
-0.28047282351476527 -25.982480431931062 -28.355539605635087
-0.25028172479700606 -26.861046867482674 -29.46528028600118
-0.22269967179244904 -27.713888814659274 -30.542985378069737
-0.19756508903558764 -28.54104312224765 -31.588623962037364
-0.17527331282135344 -29.34251824082945 -32.602188947024125
-0.15618952887338375 -30.11832913105666 -33.583667779552435
-0.13996799493970205 -30.868519431897703 -34.53302384218001
-0.12575834684109707 -31.59314201220808 -35.45021277266968
-0.11252036551224441 -32.292243561776424 -36.335195393637036
-0.10008619772204906 -32.965831615072055 -37.187965382911635
-0.0884564051429673 -33.613909570522836 -38.00851988887393
-0.07764813403823374 -34.23648139174689 -38.79685558565339
-0.06766754153321136 -34.83355148508406 -39.55296877589192
-0.05846867713071129 -35.40512526182837 -40.27685491897465
-0.05000632361003568 -35.95120765783661 -40.96850987322598
-0.0422455662862189 -36.471803023076525 -41.627929988589614
-0.03513713503927796 -36.966681208894606 -42.25530838271578
-0.028610254341892315 -37.43509919501822 -42.85126852364125
-0.02259956362415257 -37.87475671300404 -43.4177405657684
-0.017476911002663225 -38.28446285417353 -43.955723800130144
-0.013355710955940858 -38.66637143966402 -44.46341095620456
-0.010110762084772787 -39.02042248991829 -44.940852362815974
-0.007505342360435571 -39.33549762373981 -45.39737744952567
-0.005475063785670375 -39.61149885508041 -45.83306843639053
-0.003985447751437076 -39.85679896025564 -46.24089972989227
-0.0029419419370193198 -40.07690338258212 -46.61625171457443
-0.00222865752783443 -40.27269134349494 -46.95838663605508
-0.0017402354220029323 -40.44190186815734 -47.269201677485896
-0.0014049497009942318 -40.58529404140138 -47.54805989106422
-0.0011720086804816246 -40.70505065588358 -47.79312969627707
-0.0010052173229800666 -40.80306126428532 -48.00282557016637
-0.6209246712649916 -2.3164200791098066 -1.4740863962190425
-0.6503643852126241 -3.7706153106916878 -3.1464266077429963
-0.6916665849409614 -5.210435864550439 -4.777207609037497
-0.7392485943984627 -6.626935811403977 -6.3739359260636785
-0.7761138204794831 -8.01445976218302 -7.941356993703736
-0.765770157729804 -9.364301185086761 -9.486776459580565
-0.7126976399239822 -10.668352439560664 -11.016997441893187
-0.6548892921938138 -11.928883452171613 -12.530115246096539
-0.6072679581919687 -13.156684952869853 -14.017075374669234
-0.5645539478947554 -14.356627393398982 -15.47379103334955
-0.5237398826831674 -15.52982631909001 -16.899326168461673
-0.4840093998483088 -16.676063375400073 -18.293864001221987
-0.44472987047405005 -17.794472570590777 -19.658131184978778
-0.40609832807983987 -18.884745214446447 -20.992386741578194
-0.3691188660449235 -19.948244555311707 -22.295486769837016
-0.33476967873007946 -20.986083027944872 -23.56649782615986
-0.3033937546858278 -21.99817539708174 -24.80549143142547
-0.27460694522347623 -22.984164296627043 -26.01276745139259
-0.24778798655364606 -23.943950216118484 -27.188409385253426
-0.22257363420117282 -24.87758080885213 -28.332377247144827
-0.19903295561691423 -25.785068809144704 -29.444660351706318
-0.17736802372104568 -26.666420544427115 -30.52525338959296
-0.15759928531051376 -27.521655393180986 -31.574140100327988
-0.1398144006963529 -28.35079038512661 -32.591306194279355
-0.12429856563552642 -29.153834340645027 -33.576744270268605
-0.11105907142990716 -29.930809274473535 -34.530435855737785
-0.09964737816779967 -30.681751415637017 -35.45235055092547
-0.08935451713250306 -31.40669810748507 -36.342457021040815
-0.07972746121286005 -32.10566930098866 -37.200738525231415
-0.07070347607438114 -32.77866866302428 -38.02719198662256
-0.062289202192950394 -33.42569897013084 -38.82181507542147
-0.054493378339291916 -34.04676350950882 -39.58460503333945
-0.047301081998971 -34.64186610528527 -40.31555865155289
-0.040678125277780114 -35.21101077420422 -41.01467255961336
-0.03459445871109547 -35.75420112906047 -41.68194372602608
-0.029018512997061326 -36.27139240624075 -42.317409711922416
-0.023905271017938854 -36.762385894158705 -42.92123725612122
-0.01920368173726683 -37.22636014402846 -43.494115635995726
-0.015028677985055923 -37.66230026765119 -44.03689644385928
-0.01156223323447653 -38.07061052579098 -44.549240464653806
-0.008799927390267616 -38.45204839998819 -45.03051209589819
-0.006606039166953134 -38.80358982593358 -45.48324882883896
-0.00486765230478973 -39.12214096868697 -45.91004669923335
-0.003547691826415294 -39.40992058292446 -46.309043950850956
-0.0025977711331711486 -39.670688552957216 -46.677085666153026
-0.001938974799320156 -39.90610413058087 -47.012779567569815
-0.0014883348561890108 -40.115639757414826 -47.31656832914389
-0.0011794444211239365 -40.29874705722767 -47.588912093168794
-0.0009663593930534462 -40.45615761862994 -47.82919698391124
-0.0008164597512981341 -40.588938673491114 -48.036527487503186

CELLS 100 350
4 0 51 52 1
4 1 52 53 2
4 2 53 54 3
4 3 54 55 4
4 4 55 56 5
4 5 56 57 6
4 6 57 58 7
4 7 58 59 8
4 8 59 60 9
4 9 60 61 10
4 10 61 62 11
4 11 62 63 12
4 12 63 64 13
4 13 64 65 14
4 14 65 66 15
4 15 66 67 16
4 16 67 68 17
4 17 68 69 18
4 18 69 70 19
4 19 70 71 20
4 20 71 72 21
4 21 72 73 22
4 22 73 74 23
4 23 74 75 24
4 24 75 76 25
4 25 76 77 26
4 26 77 78 27
4 27 78 79 28
4 28 79 80 29
4 29 80 81 30
4 30 81 82 31
4 31 82 83 32
4 32 83 84 33
4 33 84 85 34
4 34 85 86 35
4 35 86 87 36
4 36 87 88 37
4 37 88 89 38
4 38 89 90 39
4 39 90 91 40
4 40 91 92 41
4 41 92 93 42
4 42 93 94 43
4 43 94 95 44
4 44 95 96 45
4 45 96 97 46
4 46 97 98 47
4 47 98 99 48
4 48 99 100 49
4 49 100 101 50
1 102
1 103
1 104
1 105
1 106
1 107
1 108
1 109
1 110
1 111
1 112
1 113
1 114
1 115
1 116
1 117
1 118
1 119
1 120
1 121
1 122
1 123
1 124
1 125
1 126
1 127
1 128
1 129
1 130
1 131
1 132
1 133
1 134
1 135
1 136
1 137
1 138
1 139
1 140
1 141
1 142
1 143
1 144
1 145
1 146
1 147
1 148
1 149
1 150
1 151

CELL_TYPES 100
9
9
9
9
9
9
9
9
9
9
9
9
9
9
9
9
9
9
9
9
9
9
9
9
9
9
9
9
9
9
9
9
9
9
9
9
9
9
9
9
9
9
9
9
9
9
9
9
9
9
1
1
1
1
1
1
1
1
1
1
1
1
1
1
1
1
1
1
1
1
1
1
1
1
1
1
1
1
1
1
1
1
1
1
1
1
1
1
1
1
1
1
1
1
1
1
1
1
1
1

CELL_DATA 100

VECTORS S float
-1.489699871222987e-17 -2.6933605034863238e-15 -2.3167567332858782e-15
-4.0707461247043196e-17 -5.401441413797598e-15 -4.616261635788833e-15
5.177586292306365e-17 5.406511120980715e-15 4.610212000860176e-15
0.0 -0.0 -0.0
1.1381007781869264e-16 -3.222346476421556e-14 -2.791363271745111e-14
8.856413354171592e-17 -2.1493905622342263e-14 -1.8595637779823788e-14
0.0 -0.0 -0.0
0.0 -0.0 -0.0
-7.391663231101579e-17 2.1532798370933813e-14 1.855065221480081e-14
-8.209134490384789e-17 2.1537223453983396e-14 1.854548014613252e-14
-8.659969573308987e-17 2.1541693582330964e-14 1.8540267124396456e-14
0.0 -0.0 -0.0
0.0 -0.0 -0.0
-8.263904147305026e-17 2.1555091565184626e-14 1.852470688976339e-14
0.0 -0.0 -0.0
1.4396372706916847e-16 -4.312643804840969e-14 -3.703058038280299e-14
0.0 -0.0 -0.0
0.0 -0.0 -0.0
5.860447719161639e-17 -2.1573119893112114e-14 -1.85038004350182e-14
0.0 -0.0 -0.0
0.0 -0.0 -0.0
5.013224567818943e-17 -2.1580692351511317e-14 -1.8494993142298815e-14
-9.698381605223695e-17 4.31662409992902e-14 3.698432776076761e-14
0.0 -0.0 -0.0
-4.562054374452974e-17 2.158755651810416e-14 1.8486992434951748e-14
0.0 -0.0 -0.0
4.08053308359401e-17 -2.1591886740559924e-14 -1.8481946024543085e-14
0.0 -0.0 -0.0
-3.8172146729755437e-17 2.1595788930290317e-14 1.8477391869846795e-14
3.70449981831272e-17 -2.1597691509281627e-14 -1.8475170258601948e-14
-3.607741964619654e-17 2.1599373632203378e-14 1.8473205570841924e-14
-3.512409098230036e-17 2.1601315092432524e-14 1.8470937158736577e-14
3.46457888218306e-17 -2.1603195964264982e-14 -1.8468738201219868e-14
0.0 -0.0 -0.0
-3.281336036409158e-17 2.1607007896527596e-14 1.8464281734990172e-14
6.455019954223667e-17 -4.3217697014983885e-14 -3.692425714592044e-14
-3.150421168774765e-17 2.161068663160393e-14 1.845997827034412e-14
0.0 -0.0 -0.0
-3.05220200989615e-17 2.1614204892232452e-14 1.84558603762924e-14
-2.994639839470614e-17 2.1615904142065546e-14 1.8453871092011363e-14
2.972629018164714e-17 -2.1617460449011e-14 -1.8452048315280163e-14
0.0 -0.0 -0.0
2.8109580273057156e-17 -2.1620738821780434e-14 -1.84482093873137e-14
-2.761819155880288e-17 2.16222245366679e-14 1.8446468775018367e-14
-2.7190756343050378e-17 2.1623607985932184e-14 1.8444847662147156e-14
0.0 -0.0 -0.0
0.0 -0.0 -0.0
-2.637839443800094e-17 2.1627070603317904e-14 1.844078870996915e-14
1.3083307651730199e-17 -1.0813994139649784e-14 -9.219856360663112e-15
0.0 -0.0 -0.0
-1.489699871222987e-17 -2.6933605034863238e-15 -2.3167567332858782e-15
-4.0707461247043196e-17 -5.401441413797598e-15 -4.616261635788833e-15
5.177586292306365e-17 5.406511120980715e-15 4.610212000860176e-15
0.0 -0.0 -0.0
1.1381007781869264e-16 -3.222346476421556e-14 -2.791363271745111e-14
8.856413354171592e-17 -2.1493905622342263e-14 -1.8595637779823788e-14
0.0 -0.0 -0.0
0.0 -0.0 -0.0
-7.391663231101579e-17 2.1532798370933813e-14 1.855065221480081e-14
-8.209134490384789e-17 2.1537223453983396e-14 1.854548014613252e-14
-8.659969573308987e-17 2.1541693582330964e-14 1.8540267124396456e-14
0.0 -0.0 -0.0
0.0 -0.0 -0.0
-8.263904147305026e-17 2.1555091565184626e-14 1.852470688976339e-14
0.0 -0.0 -0.0
1.4396372706916847e-16 -4.312643804840969e-14 -3.703058038280299e-14
0.0 -0.0 -0.0
0.0 -0.0 -0.0
5.860447719161639e-17 -2.1573119893112114e-14 -1.85038004350182e-14
0.0 -0.0 -0.0
0.0 -0.0 -0.0
5.013224567818943e-17 -2.1580692351511317e-14 -1.8494993142298815e-14
-9.698381605223695e-17 4.31662409992902e-14 3.698432776076761e-14
0.0 -0.0 -0.0
-4.562054374452974e-17 2.158755651810416e-14 1.8486992434951748e-14
0.0 -0.0 -0.0
4.08053308359401e-17 -2.1591886740559924e-14 -1.8481946024543085e-14
0.0 -0.0 -0.0
-3.8172146729755437e-17 2.1595788930290317e-14 1.8477391869846795e-14
3.70449981831272e-17 -2.1597691509281627e-14 -1.8475170258601948e-14
-3.607741964619654e-17 2.1599373632203378e-14 1.8473205570841924e-14
-3.512409098230036e-17 2.1601315092432524e-14 1.8470937158736577e-14
3.46457888218306e-17 -2.1603195964264982e-14 -1.8468738201219868e-14
0.0 -0.0 -0.0
-3.281336036409158e-17 2.1607007896527596e-14 1.8464281734990172e-14
6.455019954223667e-17 -4.3217697014983885e-14 -3.692425714592044e-14
-3.150421168774765e-17 2.161068663160393e-14 1.845997827034412e-14
0.0 -0.0 -0.0
-3.05220200989615e-17 2.1614204892232452e-14 1.84558603762924e-14
-2.994639839470614e-17 2.1615904142065546e-14 1.8453871092011363e-14
2.972629018164714e-17 -2.1617460449011e-14 -1.8452048315280163e-14
0.0 -0.0 -0.0
2.8109580273057156e-17 -2.1620738821780434e-14 -1.84482093873137e-14
-2.761819155880288e-17 2.16222245366679e-14 1.8446468775018367e-14
-2.7190756343050378e-17 2.1623607985932184e-14 1.8444847662147156e-14
0.0 -0.0 -0.0
0.0 -0.0 -0.0
-2.637839443800094e-17 2.1627070603317904e-14 1.844078870996915e-14
1.3083307651730199e-17 -1.0813994139649784e-14 -9.219856360663112e-15
0.0 -0.0 -0.0

SCALARS Gamma float
LOOKUP_TABLE default
-0.0
-0.0
-0.0
50.99007999435917
54.490268601928
54.58452798906385
52.468657970005175
47.79261995248096
44.83622313232052
47.374049413670704
53.88389869134274
54.52293260082686
50.50152261589065
45.55205798793398
44.525715968015334
43.73064789986473
40.062630867416615
38.00372090975585
33.31070616121599
33.620169695984906
33.15215029639562
34.76253687916522
36.450539165757895
34.42099180480026
36.52670248226842
37.772589903179494
37.88998683779635
38.01818211186681
38.2340111914394
38.518640415844395
38.835375269985995
39.14193236763745
37.189623667003936
37.50910915518967
37.830861975086144
38.139854238351774
38.395792095047966
40.7308155867996
40.66726347186418
40.26300108796681
39.58303829502064
38.40545388541292
36.361049646556644
33.705947325208896
31.036639881651535
28.433423222743723
25.62991085245223
22.91162216115967
20.146012442857984
17.580594096369403
-0.0
-0.0
-0.0
50.99007999435917
54.490268601928
54.58452798906385
52.468657970005175
47.79261995248096
44.83622313232052
47.374049413670704
53.88389869134274
54.52293260082686
50.50152261589065
45.55205798793398
44.525715968015334
43.73064789986473
40.062630867416615
38.00372090975585
33.31070616121599
33.620169695984906
33.15215029639562
34.76253687916522
36.450539165757895
34.42099180480026
36.52670248226842
37.772589903179494
37.88998683779635
38.01818211186681
38.2340111914394
38.518640415844395
38.835375269985995
39.14193236763745
37.189623667003936
37.50910915518967
37.830861975086144
38.139854238351774
38.395792095047966
40.7308155867996
40.66726347186418
40.26300108796681
39.58303829502064
38.40545388541292
36.361049646556644
33.705947325208896
31.036639881651535
28.433423222743723
25.62991085245223
22.91162216115967
20.146012442857984
17.580594096369403

VECTORS Ftot float
115.00038912472432 25.32663167692566 -30.183104289286398
138.46636382090384 56.36333731173225 -67.17120973185601
141.92155528585454 83.76245386655779 -99.82420531997678
1263.5391839258036 -8.753463100215178 10.431971097322263
1291.2670136814638 -140.9400298823122 167.96578695258043
1386.1187214826437 -183.90727067982644 219.1721505368784
1468.9123155006462 -180.3234050051833 214.90106574374738
1459.0408515253198 -176.82079065896298 210.72681251316732
1478.4727925549744 -190.05599938145244 226.4999200569283
1668.29465852075 -242.6433537492816 289.1710885498134
2024.3330278535996 -316.58860336996077 377.29560544053317
2180.633912798545 -354.0550906324385 421.94642623747615
2143.8876392869215 -353.7940099699143 421.6352824199561
2051.721782676314 -324.9408468091519 387.2494215654106
2121.445548800011 -315.46291547334346 375.9540628455997
2192.1302921202077 -314.0517980118296 374.27235854126815
2107.971518166408 -284.46500773657186 339.0121949373984
2090.1856742269897 -271.01052534772896 322.97776721399936
1910.8171498150039 -233.85666538826246 278.69952112856316
2004.1081393491497 -237.58202064579405 283.13922664041615
2048.908413570788 -237.30382458609452 282.8076854868237
2224.840706102616 -242.05854291762634 288.47413814020024
2407.6184699010464 -256.60345224903665 305.80808608986547
2342.1942428577004 -244.40511457429332 291.2706733423129
2555.8222290106196 -262.3816955941755 312.6943283553182
2716.581840739768 -263.0049211091863 313.43705960182876
2794.395225011867 -262.70972353578054 313.0852568331974
2870.6338226083735 -264.08276408003684 314.72158283459225
2951.897206321962 -265.3115355372964 316.1859756332586
3036.717226881742 -267.744303334933 319.08523539603954
3122.613173446133 -270.71911193320796 322.63047423031384
3206.10154132829 -273.66699354562365 326.1436227324527
3099.026026091868 -263.81097504136596 314.3976772713286
3177.9253112616097 -264.402474841134 315.1025992827209
3254.7047574906665 -268.4264237793505 319.89815488625607
3328.6686401380725 -273.0474161423559 325.4052391362182
3396.8247370413965 -275.0594202670352 327.80305228011906
3648.7380535266107 -295.06339987790545 351.6428668475549
3686.283448229878 -295.59395238165456 352.2751546999578
3689.9601405458243 -293.44627031156455 349.7156468771778
3664.3672820613397 -292.16198637512184 348.18509688201124
3589.5194686393925 -281.8219309067348 335.8622986299376
3428.75801621886 -264.0711452908086 314.70773610078794
3203.7980570219156 -244.82012323542156 291.7652614051702
2971.4831950713733 -225.62311939614676 268.8871631126696
2739.575526279915 -209.1464332190774 249.25101316709987
2483.9428680725796 -188.49906790316055 224.64444137425096
2232.039103172064 -168.31522766126642 200.5902772536261
1971.3695503910694 -148.3982658464873 176.85416645730146
1726.9690018410522 -129.35357122688626 154.15758322453235
115.00038912472432 25.32663167692566 -30.183104289286398
138.46636382090384 56.36333731173225 -67.17120973185601
141.92155528585454 83.76245386655779 -99.82420531997678
1263.5391839258036 -8.753463100215178 10.431971097322263
1291.2670136814638 -140.9400298823122 167.96578695258043
1386.1187214826437 -183.90727067982644 219.1721505368784
1468.9123155006462 -180.3234050051833 214.90106574374738
1459.0408515253198 -176.82079065896298 210.72681251316732
1478.4727925549744 -190.05599938145244 226.4999200569283
1668.29465852075 -242.6433537492816 289.1710885498134
2024.3330278535996 -316.58860336996077 377.29560544053317
2180.633912798545 -354.0550906324385 421.94642623747615
2143.8876392869215 -353.7940099699143 421.6352824199561
2051.721782676314 -324.9408468091519 387.2494215654106
2121.445548800011 -315.46291547334346 375.9540628455997
2192.1302921202077 -314.0517980118296 374.27235854126815
2107.971518166408 -284.46500773657186 339.0121949373984
2090.1856742269897 -271.01052534772896 322.97776721399936
1910.8171498150039 -233.85666538826246 278.69952112856316
2004.1081393491497 -237.58202064579405 283.13922664041615
2048.908413570788 -237.30382458609452 282.8076854868237
2224.840706102616 -242.05854291762634 288.47413814020024
2407.6184699010464 -256.60345224903665 305.80808608986547
2342.1942428577004 -244.40511457429332 291.2706733423129
2555.8222290106196 -262.3816955941755 312.6943283553182
2716.581840739768 -263.0049211091863 313.43705960182876
2794.395225011867 -262.70972353578054 313.0852568331974
2870.6338226083735 -264.08276408003684 314.72158283459225
2951.897206321962 -265.3115355372964 316.1859756332586
3036.717226881742 -267.744303334933 319.08523539603954
3122.613173446133 -270.71911193320796 322.63047423031384
3206.10154132829 -273.66699354562365 326.1436227324527
3099.026026091868 -263.81097504136596 314.3976772713286
3177.9253112616097 -264.402474841134 315.1025992827209
3254.7047574906665 -268.4264237793505 319.89815488625607
3328.6686401380725 -273.0474161423559 325.4052391362182
3396.8247370413965 -275.0594202670352 327.80305228011906
3648.7380535266107 -295.06339987790545 351.6428668475549
3686.283448229878 -295.59395238165456 352.2751546999578
3689.9601405458243 -293.44627031156455 349.7156468771778
3664.3672820613397 -292.16198637512184 348.18509688201124
3589.5194686393925 -281.8219309067348 335.8622986299376
3428.75801621886 -264.0711452908086 314.70773610078794
3203.7980570219156 -244.82012323542156 291.7652614051702
2971.4831950713733 -225.62311939614676 268.8871631126696
2739.575526279915 -209.1464332190774 249.25101316709987
2483.9428680725796 -188.49906790316055 224.64444137425096
2232.039103172064 -168.31522766126642 200.5902772536261
1971.3695503910694 -148.3982658464873 176.85416645730146
1726.9690018410522 -129.35357122688626 154.15758322453235

VECTORS D float
90.83189580997055 -20.58756000214086 23.350141843025863
59.19267179922879 -24.61422502868961 28.278880476152665
12.082100841003724 -7.265778677038328 8.385070364619498
526.1497802109005 -411.7889447103227 476.42604862737363
510.26922230807713 -490.263677266942 568.0402930705785
468.913348310194 -531.6556076956149 616.7513314462121
407.11616571785186 -530.2009026631534 615.6971552986416
343.16720968155 -503.146741162677 584.7826933675101
306.9089433096623 -498.97823382065565 580.4153541981565
319.1967703365144 -568.001217557707 661.0436796589189
356.7362108178621 -687.9675498432641 801.0067654895154
353.50349131936514 -732.7963693512884 853.5200563712132
319.9671392932892 -708.0590256410102 824.9822451329932
276.62192146955215 -649.6523180618524 757.1604266272687
257.3176386162347 -638.135366291177 743.9443449178684
243.43915080795412 -634.7407779603628 740.176226287305
213.0968178620533 -581.9719518872794 678.8030530592772
195.25115468292358 -556.1287762685852 648.8330623366626
164.1455260627245 -486.3367114227783 567.527729428486
160.83020433265406 -494.33031303554094 576.9754683541576
154.68640523916807 -492.1409614724509 574.5200469775659
155.73614311889236 -511.49403225623166 597.2536819751733
159.79628857029294 -540.6543069059211 631.4434566480013
147.77100546487952 -514.0340195227094 600.4796503678468
154.02986128963622 -549.866728070105 642.4682672130023
153.73110658336623 -562.2268143908361 657.0384325602184
150.87213316647242 -564.348086233907 659.6435424782844
148.72120958017564 -568.1081775973752 664.1637425136216
146.95216373818863 -572.4334587037379 669.3456369533066
145.82474038445116 -578.4678018249333 676.5280662726398
145.01249219657026 -585.2187268109541 684.5368317368182
144.3809692829222 -591.9017263694175 692.4893325898076
136.35299552211507 -567.2173426058289 663.7395218976982
135.56408256313017 -571.6411609107255 669.0462083465413
135.67739505403802 -579.3727441828887 678.2264086730464
135.99415920527304 -587.5530570065374 687.9344477443559
135.7154211716633 -592.7365557610852 694.1351382624385
143.49483130350688 -633.0333261110559 741.4637539523758
142.39355887630344 -634.0318478953758 742.7689702988146
140.1598137794302 -629.4562906580279 737.5397852431289
137.70012396857328 -623.3005899424237 730.4483997913302
132.45894250683997 -603.9545932320096 707.8996218598928
124.14550688357534 -569.8349135258653 668.0183022771054
114.51774132958714 -528.8487552571546 620.0671491399339
105.01595758187283 -487.6510172773084 571.8469508699893
96.32879121099928 -449.5386829216926 527.2253879011171
86.51260576179196 -405.5233083162158 475.6620511869678
77.05160006316883 -362.5911426980432 425.3514784064768
67.64585679627162 -319.41389715690116 374.7374046166556
58.862321247776535 -278.7459610398857 327.05328262001075
90.83189580997055 -20.58756000214086 23.350141843025863
59.19267179922879 -24.61422502868961 28.278880476152665
12.082100841003724 -7.265778677038328 8.385070364619498
526.1497802109005 -411.7889447103227 476.42604862737363
510.26922230807713 -490.263677266942 568.0402930705785
468.913348310194 -531.6556076956149 616.7513314462121
407.11616571785186 -530.2009026631534 615.6971552986416
343.16720968155 -503.146741162677 584.7826933675101
306.9089433096623 -498.97823382065565 580.4153541981565
319.1967703365144 -568.001217557707 661.0436796589189
356.7362108178621 -687.9675498432641 801.0067654895154
353.50349131936514 -732.7963693512884 853.5200563712132
319.9671392932892 -708.0590256410102 824.9822451329932
276.62192146955215 -649.6523180618524 757.1604266272687
257.3176386162347 -638.135366291177 743.9443449178684
243.43915080795412 -634.7407779603628 740.176226287305
213.0968178620533 -581.9719518872794 678.8030530592772
195.25115468292358 -556.1287762685852 648.8330623366626
164.1455260627245 -486.3367114227783 567.527729428486
160.83020433265406 -494.33031303554094 576.9754683541576
154.68640523916807 -492.1409614724509 574.5200469775659
155.73614311889236 -511.49403225623166 597.2536819751733
159.79628857029294 -540.6543069059211 631.4434566480013
147.77100546487952 -514.0340195227094 600.4796503678468
154.02986128963622 -549.866728070105 642.4682672130023
153.73110658336623 -562.2268143908361 657.0384325602184
150.87213316647242 -564.348086233907 659.6435424782844
148.72120958017564 -568.1081775973752 664.1637425136216
146.95216373818863 -572.4334587037379 669.3456369533066
145.82474038445116 -578.4678018249333 676.5280662726398
145.01249219657026 -585.2187268109541 684.5368317368182
144.3809692829222 -591.9017263694175 692.4893325898076
136.35299552211507 -567.2173426058289 663.7395218976982
135.56408256313017 -571.6411609107255 669.0462083465413
135.67739505403802 -579.3727441828887 678.2264086730464
135.99415920527304 -587.5530570065374 687.9344477443559
135.7154211716633 -592.7365557610852 694.1351382624385
143.49483130350688 -633.0333261110559 741.4637539523758
142.39355887630344 -634.0318478953758 742.7689702988146
140.1598137794302 -629.4562906580279 737.5397852431289
137.70012396857328 -623.3005899424237 730.4483997913302
132.45894250683997 -603.9545932320096 707.8996218598928
124.14550688357534 -569.8349135258653 668.0183022771054
114.51774132958714 -528.8487552571546 620.0671491399339
105.01595758187283 -487.6510172773084 571.8469508699893
96.32879121099928 -449.5386829216926 527.2253879011171
86.51260576179196 -405.5233083162158 475.6620511869678
77.05160006316883 -362.5911426980432 425.3514784064768
67.64585679627162 -319.41389715690116 374.7374046166556
58.862321247776535 -278.7459610398857 327.05328262001075

VECTORS L float
24.168493314753785 45.914191679066526 -53.53324613231225
79.27369202167503 80.97756234042188 -95.45009020800869
129.83945444485082 91.02823254359613 -108.20927568459632
737.3894037149032 403.0354816101076 -465.9940775300515
780.9977913733867 349.3236473846299 -400.0745061179982
917.2053731724499 347.74833701578837 -397.5791809093337
1061.7961497827941 349.8774976579702 -400.7960895548943
1115.87364184377 326.325950503714 -374.05588085434294
1171.563849245313 308.92223443920324 -353.9154341412282
1349.0978881842357 325.3578638084256 -371.8725911091056
1667.596817035738 371.37894647330336 -423.7111600489821
1827.130421479181 378.7412787188497 -431.57363013373686
1823.920499993633 354.26501567109585 -403.3469627130372
1775.0998612067624 324.7114712527006 -369.91100506185825
1864.1279101837765 322.6724508178337 -367.990282072269
1948.691141312254 320.6889799485333 -365.90386774603706
1894.874700304355 297.5069441507074 -339.79085812187867
1894.9345195440662 285.1182509208563 -325.8552951226635
1746.6716237522796 252.48004603451574 -288.8282082999229
1843.277935016496 256.74829238974695 -293.8362417137416
1894.22200833162 254.83713688635632 -291.7123614907421
2069.104562983724 269.43548933860546 -308.77954383497337
2247.8221813307537 284.0508546568845 -325.63537055813583
2194.423237392821 269.6289049484161 -309.2089770255341
2401.792367720983 287.48503247592936 -329.77393885768385
2562.8507341564014 299.2218932816498 -343.6013729583897
2643.5230918453944 301.63836269812646 -346.55828564508704
2721.912613028198 304.02541351733834 -349.44215967902926
2804.945042583774 307.1219231664415 -353.159661320048
2890.8924864972914 310.7234984900002 -357.44283087660034
2977.600681249563 314.499614877746 -361.90635750650426
3061.720572045368 318.234732823794 -366.3457098573552
2962.6730305697533 303.4063675644629 -349.3418446263697
3042.36122869848 307.23868606959155 -353.9436090638205
3119.0273624366278 310.9463204035383 -358.3282537867904
3192.6744809328006 314.5056408641816 -362.52920860813776
3261.109315869734 317.6771354940501 -366.33208598231954
3505.2432222231046 337.96992623315055 -389.82088710482094
3543.8898893535747 338.4378955137212 -390.49381559885677
3549.8003267663944 336.0100203464633 -387.82413836595106
3526.667158092768 331.13860356730186 -382.263302909319
3457.060526132553 322.13266232527496 -372.0373232299553
3304.6125093352853 305.7637682350568 -353.31056617631754
3089.2803156923283 284.02863202173296 -328.3018877347636
2866.467237489501 262.02789788116166 -302.9597877573197