# vtk DataFile Version 4.0
[MyVLM domain - lattices] 
ASCII
DATASET UNSTRUCTURED_GRID
POINTS 62 float
0.0 -0.4135939027941203 -2.2836343466598197
0.0 -5.135618272828214 -5.286666405000329
0.0 -9.595747256430338 -8.21364950713857
0.0 -13.992106767371517 -10.721419504127114
0.0 -18.20541919909482 -13.016571270727788
0.0 -22.192142046413455 -15.174522638212933
0.0 -25.955048997369186 -17.190469437969877
0.0 -29.481116545524937 -19.086969044840327
0.0 -32.77357499832553 -20.858426402205787
0.0 -35.83271142593993 -22.504344289948286
0.0 -38.65852543115346 -24.0247233960638
0.0 -41.251017312347955 -25.41956320373983
0.0 -43.61019709047432 -26.688846356180292
0.0 -45.73606476029568 -27.83257286245571
0.0 -47.628923246601296 -28.850218041440225
0.0 -49.291044948147814 -29.737845983032244
0.0 -50.73767867341344 -30.469044976192652
0.0 -51.9684146894937 -31.044524699129493
0.0 -52.996526332357156 -31.441295059559348
0.0 -53.80051142793645 -31.69659891544001
0.0 -54.35880764069816 -31.84778332744524
-0.8152938918039478 -2.1369849706878994 0.7013665442425752
-0.9232602711185554 -7.092109561215183 -1.8979240889482223
-1.045017403566863 -11.851969378773664 -4.305758158079065
-0.8624275731409438 -16.240711435100206 -6.82672197348451
-0.7172432011617597 -20.344862163451076 -9.310947356567002
-0.5835709082011334 -24.2167261546181 -11.667840098605978
-0.458823694439046 -27.8510790848292 -13.90644899380989
-0.35706975050238215 -31.26143691532421 -16.003363710598187
-0.27205245991127286 -34.44518940278572 -17.963105323016748
-0.20240159072431146 -37.402426684666686 -19.78551770841742
-0.1506132401889805 -40.133357086781785 -21.47024003590462
-0.11426271706148827 -42.63831729741138 -23.016689144270444
-0.08424963388989035 -44.91765070218706 -24.424270272154406
-0.059335794404298196 -46.97142986360678 -25.69285773762333
-0.038970351202568594 -48.799322575094294 -26.823026939345873
-0.02333805368457717 -50.39905312724979 -27.818719521625752
-0.011931771028020786 -51.75574085302974 -28.705709555832918
-0.005641151376299379 -52.86973333133205 -29.483395017656505
-0.0026418300562744777 -53.72741053689345 -30.175366482852944
-0.0014569859069231085 -54.350361007679666 -30.744231506804358
-0.001005086180947595 -54.7602704709549 -31.15242930809017
-0.6519578110959388 -4.154561971416448 -1.3949966732221366
-0.7381041280070318 -8.945450293653138 -4.013920331652596
-0.7152918662654275 -13.483237058177934 -6.54156367574455
-0.5923765403635137 -17.744280845265024 -9.018874845626183
-0.4878052910110849 -21.760290774964474 -11.39093203430746
-0.39089797599006726 -25.543825845265566 -13.6359824191788
-0.30596004185303555 -29.096714192919297 -15.750859574504307
-0.23592082890512064 -32.42182131227253 -17.730600318486363
-0.17792026898834412 -35.51864183582783 -19.57607997330707
-0.1323805615924845 -38.38732352142984 -21.287042614872274
-0.0993284839689258 -41.02807073701011 -22.863134267541103
-0.07444213160676699 -43.441139800202194 -24.303910976149332
-0.05384453561032071 -45.62668794351894 -25.609100405996152
-0.036864804602575046 -47.584655665375024 -26.778805616850445
-0.023365651832679663 -49.31438691272267 -27.814162925923416
-0.013226184267224234 -50.81163819529998 -28.722522273950116
-0.006589845901620062 -52.07281448949907 -29.510110424473805
-0.0031061180372151964 -53.094546578315914 -30.18276303252715
-0.0015370559861990949 -53.87879404925162 -30.73708599299641
-0.0009232770329515139 -54.436401688067285 -31.154295585946105

CELLS 40 140
4 0 21 22 1
4 1 22 23 2
4 2 23 24 3
4 3 24 25 4
4 4 25 26 5
4 5 26 27 6
4 6 27 28 7
4 7 28 29 8
4 8 29 30 9
4 9 30 31 10
4 10 31 32 11
4 11 32 33 12
4 12 33 34 13
4 13 34 35 14
4 14 35 36 15
4 15 36 37 16
4 16 37 38 17
4 17 38 39 18
4 18 39 40 19
4 19 40 41 20
1 42
1 43
1 44
1 45
1 46
1 47
1 48
1 49
1 50
1 51
1 52
1 53
1 54
1 55
1 56
1 57
1 58
1 59
1 60
1 61

CELL_TYPES 40
9
9
9
9
9
9
9
9
9
9
9
9
9
9
9
9
9
9
9
9
1
1
1
1
1
1
1
1
1
1
1
1
1
1
1
1
1
1
1
1

CELL_DATA 40

VECTORS S float
-5.8732016057862294e-18 -3.3351029699129488e-15 -1.22426637996676e-15
0.0 -0.0 -0.0
3.238873913572975e-16 -5.314409602961193e-14 -2.0168649482262574e-14
0.0 -0.0 -0.0
0.0 -0.0 -0.0
4.545168254811779e-16 -1.0611657452630601e-13 -4.07892522167219e-14
0.0 -0.0 -0.0
0.0 -0.0 -0.0
-1.8721208210524987e-16 5.299297561755145e-14 2.0564137585106176e-14
0.0 -0.0 -0.0
0.0 -0.0 -0.0
0.0 -0.0 -0.0
0.0 -0.0 -0.0
0.0 -0.0 -0.0
-1.7300666946962316e-16 5.2910980860775686e-14 2.0774321669508545e-14
0.0 -0.0 -0.0
0.0 -0.0 -0.0
8.249511953544137e-17 -2.646179031576256e-14 -1.0371133727138213e-14
3.91594043036122e-17 -1.3232818238828365e-14 -5.180673675861568e-15
8.28774365548926e-18 -3.3086709007534367e-15 -1.2939871202406675e-15
-5.8732016057862294e-18 -3.3351029699129488e-15 -1.22426637996676e-15
0.0 -0.0 -0.0
3.238873913572975e-16 -5.314409602961193e-14 -2.0168649482262574e-14
0.0 -0.0 -0.0
0.0 -0.0 -0.0
4.545168254811779e-16 -1.0611657452630601e-13 -4.07892522167219e-14
0.0 -0.0 -0.0
0.0 -0.0 -0.0
-1.8721208210524987e-16 5.299297561755145e-14 2.0564137585106176e-14
0.0 -0.0 -0.0
0.0 -0.0 -0.0
0.0 -0.0 -0.0
0.0 -0.0 -0.0
0.0 -0.0 -0.0
-1.7300666946962316e-16 5.2910980860775686e-14 2.0774321669508545e-14
0.0 -0.0 -0.0
0.0 -0.0 -0.0
8.249511953544137e-17 -2.646179031576256e-14 -1.0371133727138213e-14
3.91594043036122e-17 -1.3232818238828365e-14 -5.180673675861568e-15
8.28774365548926e-18 -3.3086709007534367e-15 -1.2939871202406675e-15

SCALARS Gamma float
LOOKUP_TABLE default
0.0
54.870191645388985
80.29277626115287
80.40542117035496
79.60117311273915
86.23618969597494
88.54521211021402
93.14640554041135
98.0296084617146
89.98758476027044
89.9390492985767
88.84345829262047
89.37011644505135
85.58849582150644
79.56426112997043
70.38586495125942
56.9997856411474
40.40181937179546
23.29160130592289
9.513504392857994
0.0
54.870191645388985
80.29277626115287
80.40542117035496
79.60117311273915
86.23618969597494
88.54521211021402
93.14640554041135
98.0296084617146
89.98758476027044
89.9390492985767
88.84345829262047
89.37011644505135
85.58849582150644
79.56426112997043
70.38586495125942
56.9997856411474
40.40181937179546
23.29160130592289
9.513504392857994

VECTORS Ftot float
129.92601923886622 26.736086144572138 -73.45679296680498
1141.8474913248642 -96.82630414539925 266.02808424872796
2001.3385277484683 -285.70371991426515 784.9645191186256
2600.2595429168623 -286.7669623542438 787.8857537138728
3134.3626832724563 -279.7132491444327 768.5058359466082
3967.316335429094 -303.0111970056165 832.5164216148412
4631.2499699464515 -305.3810654113574 839.0275815466931
5423.395103950056 -318.2097196527858 874.2740193970083
6249.293430360882 -333.647191393009 916.6881244167398
6199.301768280588 -303.7056140371307 834.4243167286112
6620.699416728813 -303.28995498750334 833.282302875568
6924.596843403959 -301.76433646797466 829.0907004424613
7313.480579043645 -309.8201785398775 851.2239446297066
7304.120816451488 -300.95892465950936 826.8778496853407
7032.353358083578 -292.0413765011496 802.3770874833483
6408.690909540458 -264.37962688503933 726.3770550304782
5317.292121591521 -222.63264630958233 611.6781685690004
3845.7931713970074 -156.0803687835971 428.8272888530799
2252.278007276888 -88.11277430613873 242.08785777161577
931.9292889209703 -31.329278100624744 86.07648414928005
129.92601923886622 26.736086144572138 -73.45679296680498
1141.8474913248642 -96.82630414539925 266.02808424872796
2001.3385277484683 -285.70371991426515 784.9645191186256
2600.2595429168623 -286.7669623542438 787.8857537138728
3134.3626832724563 -279.7132491444327 768.5058359466082
3967.316335429094 -303.0111970056165 832.5164216148412
4631.2499699464515 -305.3810654113574 839.0275815466931
5423.395103950056 -318.2097196527858 874.2740193970083
6249.293430360882 -333.647191393009 916.6881244167398
6199.301768280588 -303.7056140371307 834.4243167286112
6620.699416728813 -303.28995498750334 833.282302875568
6924.596843403959 -301.76433646797466 829.0907004424613
7313.480579043645 -309.8201785398775 851.2239446297066
7304.120816451488 -300.95892465950936 826.8778496853407
7032.353358083578 -292.0413765011496 802.3770874833483
6408.690909540458 -264.37962688503933 726.3770550304782
5317.292121591521 -222.63264630958233 611.6781685690004
3845.7931713970074 -156.0803687835971 428.8272888530799
2252.278007276888 -88.11277430613873 242.08785777161577
931.9292889209703 -31.329278100624744 86.07648414928005

VECTORS D float
60.86159558737664 -12.713150210039535 34.3407393108837
508.8052081683027 -253.1115279902248 680.9468429799216
638.9763303118299 -507.48399539481835 1347.4741868769072
510.89948079868833 -545.1860720870387 1434.018576879083
421.5324908977415 -554.4311687289342 1451.4380922140706
394.2530587781104 -611.9639882701138 1596.4675319715
352.9016204249063 -629.8295197357961 1636.6746970512374
331.26435096611425 -664.332041361731 1720.877639899247
317.4038067505633 -702.2662404105372 1812.602129720801
268.9455966280069 -645.6370192519147 1661.4973309180884
252.11087207018383 -648.4606786212121 1663.7781203524992
239.4365547200053 -647.8390826030584 1658.8599602034828
236.93874836724592 -664.8747919441846 1699.105455961571
227.6345808623961 -650.6250355735515 1660.1478712048865
219.16141761962268 -628.4069070901709 1602.3407527006566
200.589627496071 -572.1849377005152 1459.1196693070085
169.5646536024096 -479.6799178058077 1224.0491671967102
122.10562524457102 -342.66027869321283 875.2637658810593
70.8438779551923 -197.572428067153 505.1880117194712
27.530448144705016 -76.46020313428274 195.68186615794735
60.86159558737664 -12.713150210039535 34.3407393108837
508.8052081683027 -253.1115279902248 680.9468429799216
638.9763303118299 -507.48399539481835 1347.4741868769072
510.89948079868833 -545.1860720870387 1434.018576879083
421.5324908977415 -554.4311687289342 1451.4380922140706
394.2530587781104 -611.9639882701138 1596.4675319715
352.9016204249063 -629.8295197357961 1636.6746970512374
331.26435096611425 -664.332041361731 1720.877639899247
317.4038067505633 -702.2662404105372 1812.602129720801
268.9455966280069 -645.6370192519147 1661.4973309180884
252.11087207018383 -648.4606786212121 1663.7781203524992
239.4365547200053 -647.8390826030584 1658.8599602034828
236.93874836724592 -664.8747919441846 1699.105455961571
227.6345808623961 -650.6250355735515 1660.1478712048865
219.16141761962268 -628.4069070901709 1602.3407527006566
200.589627496071 -572.1849377005152 1459.1196693070085
169.5646536024096 -479.6799178058077 1224.0491671967102
122.10562524457102 -342.66027869321283 875.2637658810593
70.8438779551923 -197.572428067153 505.1880117194712
27.530448144705016 -76.46020313428274 195.68186615794735

VECTORS L float
69.06442365148958 39.44923635461167 -107.79753227768869
633.0422831565616 156.28522384482548 -414.9187587311934
1362.3621974366386 221.78027548055317 -562.5096677582814
2089.3600621181745 258.4191097327949 -646.1328231652101
2712.830192374715 274.7179195845015 -682.9322562674624
3573.063276650984 308.9527912644973 -763.9511103566592
4278.348349521545 324.4484543244388 -797.6471155045446
5092.130752983942 346.1223217089453 -846.6036205022392
5931.889623610318 368.6190490175282 -895.9140053040612
5930.356171652581 341.9314052147839 -827.0730141894774
6368.588544658631 345.1707236337087 -830.4958174769309
6685.160288683955 346.0747461350839 -829.7692597610223
7076.5418306764 355.05461340430725 -847.8815113318645
7076.486235589095 349.6661109140422 -833.2700215195462
6813.191940463957 336.3655305890211 -799.9636652173084
6208.101282044387 307.8053108154757 -732.7426142765302
5147.727467989112 257.0472714962254 -612.37099862771
3723.6875461524373 186.57990990961574 -446.43647702797944
2181.4341293216958 109.4596537610143 -263.1001539478555
904.3988407762654 45.130925033657995 -109.60538200866729
69.06442365148958 39.44923635461167 -107.79753227768869
633.0422831565616 156.28522384482548 -414.9187587311934
1362.3621974366386 221.78027548055317 -562.5096677582814
2089.3600621181745 258.4191097327949 -646.1328231652101
2712.830192374715 274.7179195845015 -682.9322562674624
3573.063276650984 308.9527912644973 -763.9511103566592
4278.348349521545 324.4484543244388 -797.6471155045446
5092.130752983942 346.1223217089453 -846.6036205022392
5931.889623610318 368.6190490175282 -895.9140053040612
5930.356171652581 341.9314052147839 -827.0730141894774
6368.588544658631 345.1707236337087 -830.4958174769309
6685.160288683955 346.0747461350839 -829.7692597610223
7076.5418306764 355.05461340430725 -847.8815113318645
7076.486235589095 349.6661109140422 -833.2700215195462
6813.191940463957 336.3655305890211 -799.9636652173084
6208.101282044387 307.8053108154757 -732.7426142765302
5147.727467989112 257.0472714962254 -612.37099862771
3723.6875461524373 186.57990990961574 -446.43647702797944
2181.4341293216958 109.4596537610143 -263.1001539478555
904.3988407762654 45.130925033657995 -109.60538200866729

SCALARS mu float
LOOKUP_TABLE default
-2.8841065224915576
-4.893836657604115
-0.3836453944531707
-0.17253318825740638
-0.1832300407817895
-0.15166956134837506
-0.19532322981135755
-0.21021908828940897
-0.2122582347255289
-0.22168578055478233
-0.2243702485465365
-0.22900383320041554
-0.20873745328225665
-0.2531800619177343
-0.20427727317456512
-0.24027388342549888
-0.19124407295129947
-0.27177851385013924
-0.28870217280790617
-0.3219562236386073
-2.8841065224915576
-4.893836657604115
-0.3836453944531707
-0.17253318825740638
-0.1832300407817895
-0.15166956134837506
-0.19532322981135755
-0.21021908828940897
-0.2122582347255289
-0.22168578055478233
-0.2243702485465365
-0.22900383320041554
-0.20873745328225665
-0.2531800619177343
-0.20427727317456512
-0.24027388342549888
-0.19124407295129947
-0.27177851385013924
-0.28870217280790617
-0.3219562236386073