# vtk DataFile Version 4.0
[MyVLM domain - lattices] 
ASCII
DATASET UNSTRUCTURED_GRID
POINTS 152 float
0.0 1.1697031535729994 2.004439495507325
0.0 3.362677120561887 2.446171004294919
0.0 5.504259948314161 2.9428085057286397
0.0 7.604103787640373 3.4396119323964047
0.0 9.662295057718195 3.9360911767870146
0.0 11.685131704258225 4.396528813891
0.0 13.677990223505923 4.79043321829829
0.0 15.642232937676086 5.110078276799586
0.0 17.56945439310418 5.403133685948222
0.0 19.456254097511206 5.688884595783874
0.0 21.302663821355562 5.9671508270833495
0.0 23.108752406708554 6.237541957059303
0.0 24.8745910612119 6.499654147107789
0.0 26.60075561200941 6.750221719216852
0.0 28.28686427442304 6.991409881890212
0.0 29.932080890851292 7.227960720531482
0.0 31.53628122420102 7.460578818708307
0.0 33.09966845713181 7.688111870297368
0.0 34.62238899473992 7.909729570738036
0.0 36.1044428807808 8.125431671880715
0.0 37.54583015784138 8.335217932202957
0.0 38.94655086734004 8.539088116809443
0.0 40.30660504952662 8.737041997432005
0.0 41.625992743482406 8.929079352429609
0.0 42.90471398712016 9.115199966788364
0.0 44.142768817184084 9.29540363212152
0.0 45.34015726924984 9.469690146669466
0.0 46.496879377724554 9.638059315299733
0.0 47.612935124264745 9.800511242043305
0.0 48.68832383243336 9.957049763165386
0.0 49.72304539351498 10.10767549522177
0.0 50.7170999448262 10.25238765945125
0.0 51.67048761828694 10.391185507698953
0.0 52.58320854042034 10.524068322416348
0.0 53.45526283235285 10.651035416661234
0.0 54.28665060981418 10.772086134097748
0.0 55.07744413359612 10.886810663411318
0.0 55.82787258728849 10.993909239875514
0.0 56.53828670135829 11.091392772169328
0.0 57.208869450331136 11.178223560192153
0.0 57.839516143886634 11.254995332254602
0.0 58.430281223290656 11.321399336595531
0.0 58.98322803545895 11.365733751363896
0.0 59.498310342028546 11.388260807347114
0.0 59.973970760174 11.397812861449195
0.0 60.40914723439847 11.40041312970083
0.0 60.80356893696854 11.397597552502884
0.0 61.15748964760852 11.38792687351852
0.0 61.47068248466683 11.372687802533777
0.0 61.74270042273013 11.354415546648026
0.0 61.97315648457501 11.335304762753257
-0.8152906132198464 1.7682299447993295 -1.3899746141286387
-0.840508508580286 3.9796571651187955 -1.052896705467559
-0.8937965186637556 6.160544996300394 -0.7791689554025718
-0.9506477078574832 8.302414559071916 -0.5207052500664773
-1.02068187720969 10.405090869657275 -0.2765132071512142
-1.0489549773990687 12.463202196539392 -0.016128223364117567
-0.9930987765435385 14.472965829170585 0.28190251885277373
-0.9074282632533693 16.431017264188483 0.6366600662505006
-0.8389431825969345 18.344440850312402 1.0079670807333687
-0.7804380392478915 20.216610380529964 1.3766898314675413
-0.7250391551382538 22.048219080538694 1.7388968401577518
-0.6716005320172311 23.839214516722215 2.0948854726192865
-0.6190912009116674 25.589470447575014 2.4453716800072405
-0.5668551203522249 27.298373957967723 2.79383147675178
-0.5160737545271722 28.966286683832315 3.1382139235665663
-0.46824322159258325 30.594077032160776 3.473594039665953
-0.42447592168765613 32.18186917682552 3.7992676000247854
-0.38457409080794247 33.72946110538993 4.116380274102289
-0.3477110964547294 35.23672227885974 4.425672385323301
-0.31305686768839563 36.703674267437364 4.727021602991086
-0.2804728235147938 38.13032427780693 5.020387055968953
-0.25028172479702737 39.51667277297653 5.305766118407487
-0.22269967179246206 40.86272308754771 5.583139878841594
-0.19756508903559172 42.16848357446229 5.852460965384119
-0.17527331282134875 43.43395614931163 6.113718514176714
-0.15618952887337012 44.65914420340022 6.366893292175919
-0.1399679949396797 45.844057628879085 6.611929198205338
-0.12575834684106657 46.98870841014483 6.8487582653744665
-0.11252036551220733 48.093107130913296 7.077320470448052
-0.1000861977220127 49.15725549911001 7.297606127299128
-0.08845640514293837 50.18115428509601 7.509610866993091
-0.07764813403821604 51.164804387350586 7.713329594000665
-0.06766754153320646 52.1082068047099 7.908756643640569
-0.05846867713071907 53.011362763814724 8.095885059287248
-0.05000632361005495 53.874273383532945 8.274708495525527
-0.04224556628624775 54.69693964992222 8.445221360144675
-0.03513713503931205 55.479309392518374 8.6077195265496
-0.02861025434192226 56.2212141822999 8.763158203187901
-0.022599563624171346 56.92213259074155 8.914494558175122
-0.017476911002667815 57.58179466076166 9.063259594200437
-0.0133557109559299 58.20068862397784 9.206684412167185
-0.010110762084749267 58.77880088412857 9.344846120306173
-0.007505342360414162 59.313611108805915 9.49203823398188
-0.005475063785658977 59.805097086375504 9.648386721632516
-0.0039854477514337135 60.25515677114553 9.803127749495548
-0.0029419419370200197 60.66503814580001 9.949183656063882
-0.0022286575278371427 61.0349405136574 10.085424136051117
-0.0017402354220080998 61.36435135332922 10.214755842689645
-0.0014049497010025483 61.65344273537705 10.336202915332148
-0.0011720086804935075 61.90270945872629 10.446959209828478
-0.0010052173229957839 62.11257985019652 10.54459556407403
-0.6209246706750498 2.7220052004861577 -0.3597504323732937
-0.6503643852165156 4.910942944141702 -0.013402184073354253
-0.6916665849454646 7.062155300258932 0.310349727714737
-0.73924859440019 9.17361439144327 0.6230059671912929
-0.7761138204782846 11.244038245070804 0.9318369623915022
-0.7657701577284777 13.27145325061176 1.248035614831907
-0.7126976399238405 15.254021555157399 1.5820249063009624
-0.6548892921938638 17.192257709285364 1.9308866754624272
-0.6072679581918097 19.08860777289281 2.280748627291853
-0.5645539478948045 20.944175787759093 2.625349429717888
-0.5237398826833068 22.759214627480855 2.963254965309221
-0.4840093998483369 24.533674795101515 3.294745945255834
-0.4447298704739596 26.267359986231185 3.620935667075212
-0.40609832807977386 27.960200226479067 3.942220975257763
-0.3691188660449083 29.612504539156692 4.256849311514907
-0.3347696787300898 31.224525092751403 4.563390557289001
-0.3033937546858495 32.796242565997396 4.861954288923362
-0.27460694522350193 34.32757595057759 5.152999927414022
-0.24778798655367185 35.8185026893015 5.436655400945239
-0.22257363420119602 37.269033584294384 5.712859447620474
-0.19903295561693296 38.679171522191474 5.981595696517715
-0.17736802372105853 40.048917937304914 6.242856013248586
-0.15759928531052017 41.37827722237987 6.496615485317344
-0.1398144006963527 42.667253237740546 6.742852219737559
-0.12429856563551955 43.915847982804976 6.981554877245973
-0.11105907142989367 45.12406644790898 7.212695156241844
-0.09964737816777985 46.29191684550577 7.436226481588576
-0.08935451713247772 47.41940764064546 7.652100845601324
-0.07972746121283251 48.506543355846 7.860292599806277
-0.07070347607435665 49.553324822320796 8.060797030157975
-0.06228920219293291 50.55975266946012 8.253610567206785
-0.05449337833928344 51.525827642411826 8.438728985009238
-0.04730108199897208 52.45155060803514 8.616147367362345
-0.04067812527779026 53.336922476852024 8.785860550439487
-0.03459445871111351 54.181944067816566 8.947863889721198
-0.029018512997084925 54.98660523384151 9.102214932198985
-0.023905271017962866 55.75086093066743 9.249169136562417
-0.0192036817372851 56.47452495097138 9.389782537016739
-0.015028677985064689 57.15736723827488 9.52535984868602
-0.011562233234474143 57.79947943105453 9.655381363943702
-0.008799927390254687 58.40103323643707 9.778873283283776
-0.006606039166936287 58.96134315469413 9.899723268852949
-0.004867652304777427 59.47970787037897 10.021908678194276
-0.003547691826409759 59.956630334345704 10.142577135272562
-0.00259777113317015 60.39296284317613 10.256895025978539
-0.001938974799321436 60.78908151871741 10.362729257318588
-0.0014883348561919659 61.14486677319211 10.46075804528046
-0.001179444421128993 61.46019429979927 10.55168636876471
-0.000966359393061021 61.73522993621337 10.63457371558296
-0.0008164597513084843 61.97021560425919 10.7080480788886

CELLS 100 350
4 0 51 52 1
4 1 52 53 2
4 2 53 54 3
4 3 54 55 4
4 4 55 56 5
4 5 56 57 6
4 6 57 58 7
4 7 58 59 8
4 8 59 60 9
4 9 60 61 10
4 10 61 62 11
4 11 62 63 12
4 12 63 64 13
4 13 64 65 14
4 14 65 66 15
4 15 66 67 16
4 16 67 68 17
4 17 68 69 18
4 18 69 70 19
4 19 70 71 20
4 20 71 72 21
4 21 72 73 22
4 22 73 74 23
4 23 74 75 24
4 24 75 76 25
4 25 76 77 26
4 26 77 78 27
4 27 78 79 28
4 28 79 80 29
4 29 80 81 30
4 30 81 82 31
4 31 82 83 32
4 32 83 84 33
4 33 84 85 34
4 34 85 86 35
4 35 86 87 36
4 36 87 88 37
4 37 88 89 38
4 38 89 90 39
4 39 90 91 40
4 40 91 92 41
4 41 92 93 42
4 42 93 94 43
4 43 94 95 44
4 44 95 96 45
4 45 96 97 46
4 46 97 98 47
4 47 98 99 48
4 48 99 100 49
4 49 100 101 50
1 102
1 103
1 104
1 105
1 106
1 107
1 108
1 109
1 110
1 111
1 112
1 113
1 114
1 115
1 116
1 117
1 118
1 119
1 120
1 121
1 122
1 123
1 124
1 125
1 126
1 127
1 128
1 129
1 130
1 131
1 132
1 133
1 134
1 135
1 136
1 137
1 138
1 139
1 140
1 141
1 142
1 143
1 144
1 145
1 146
1 147
1 148
1 149
1 150
1 151

CELL_TYPES 100
9
9
9
9
9
9
9
9
9
9
9
9
9
9
9
9
9
9
9
9
9
9
9
9
9
9
9
9
9
9
9
9
9
9
9
9
9
9
9
9
9
9
9
9
9
9
9
9
9
9
1
1
1
1
1
1
1
1
1
1
1
1
1
1
1
1
1
1
1
1
1
1
1
1
1
1
1
1
1
1
1
1
1
1
1
1
1
1
1
1
1
1
1
1
1
1
1
1
1
1

CELL_DATA 100

VECTORS S float
5.2633406565176e-19 -1.3115907889679625e-16 -1.5549756151656399e-18
-3.1995945088782997e-19 5.841523119598952e-17 5.1138106100222e-19
1.459353712029e-19 -2.027376696032862e-17 -1.6085324172600998e-19
-5.1985523199999995e-24 -4.942483657487e-20 -6.9630810051e-22
1.795532210043e-19 6.99284632353847e-17 1.05046410856367e-18
1.1710222124511298e-18 3.933155477331543e-16 5.66662322101978e-18
3.2334216553625e-19 1.2643366965497398e-16 1.70254534467729e-18
-1.38172594861253e-18 -5.514239085802409e-16 -7.391928221197199e-18
1.7070304692945e-19 6.732884453745638e-17 8.6119918688193e-19
2.2305776721544497e-18 7.956416971002614e-16 9.863008442892489e-18
3.84963073084823e-18 1.3151536550721806e-15 1.581992472635992e-17
-4.819313981232499e-19 -1.6404717263217785e-16 -1.9171777630632398e-18
1.28118688183342e-18 4.3637939711686413e-16 4.97007402862535e-18
9.5727964711174e-19 3.477350655938327e-16 3.85221785537754e-18
-7.2734341622371e-19 -2.8866563690219994e-16 -3.11429550982635e-18
-2.28726920243206e-18 -9.621605350662055e-16 -1.0153006474597709e-17
-2.7036875663361e-19 -1.175170967249478e-16 -1.2716660367854499e-18
6.3215711395701e-19 2.9229104150871144e-16 3.0888459737546697e-18
4.5315144543658e-19 2.272330858541964e-16 2.34738081364844e-18
1.7508634988226e-19 9.219608993383868e-17 9.338355476934499e-19
-7.151389559960399e-19 -3.9203789650730837e-16 -3.89998612935378e-18
3.6178927118245997e-19 2.1570868053230702e-16 2.10676850919159e-18
-2.7521872504479996e-20 -1.700086793992925e-17 -1.6347377496801998e-19
5.0154864117567995e-19 3.209597847714255e-16 3.0410803774075e-18
5.548947873853599e-19 3.6602053807542165e-16 3.4202807838709197e-18
6.6250814516717995e-19 4.684407415510118e-16 4.3148368764292294e-18
1.9151379906616999e-19 1.4141755622227051e-16 1.28563300011696e-18
-4.36911039439e-19 -3.3396274856003535e-16 -2.9983381458927096e-18
-5.860590938279e-19 -4.599631020009122e-16 -4.1154583282274095e-18
-2.9028595388234e-19 -2.355095023713669e-16 -2.07834172615101e-18
1.2205430273184998e-19 1.020867208628282e-16 8.8853415434905e-19
-7.1917811446908e-19 -6.196319236871888e-16 -5.3185765246151e-18
-9.4173642807253e-19 -8.261303718067184e-16 -6.99407108833293e-18
3.3552570791898997e-19 3.046897518872484e-16 2.5431451738902198e-18
1.8682935223237e-19 1.736637673883274e-16 1.4293413888907399e-18
-4.459172758483e-20 -4.2259337113767135e-17 -3.4300084952249997e-19
9.531271858659799e-19 9.302167617169433e-16 7.426126842906939e-18
-7.9290052025203995e-19 -7.86449385460679e-16 -6.19914515061998e-18
3.2126279335428e-19 3.2553156238393327e-16 2.53347336336304e-18
-7.4027383343711e-19 -7.660669409612008e-16 -5.8872875527317595e-18
-9.0563614575577e-19 -9.477218310881052e-16 -7.195007042757859e-18
-4.4382151260959996e-20 -4.7616713283956536e-17 -3.5713172024579e-19
3.4384866020041e-19 3.805935027534084e-16 2.82070477803551e-18
-2.6912879100404e-19 -3.036404099209235e-16 -2.22524426860101e-18
1.0768606809361999e-19 1.2358048705052657e-16 8.9609942592432e-19
-1.8037437183816998e-19 -2.079127824022133e-16 -1.49299556062771e-18
4.4661834882159e-19 5.226374770043717e-16 3.71870152079857e-18
-3.264455565416e-20 -3.877012616989424e-17 -2.7356082014742e-19
-4.9147381789269e-19 -5.891026328234464e-16 -4.12603062531334e-18
1.3019147783079999e-20 1.578462539077258e-17 1.0983724873223e-19
5.2633406565176e-19 -1.3115907889679625e-16 -1.5549756151656399e-18
-3.1995945088782997e-19 5.841523119598952e-17 5.1138106100222e-19
1.459353712029e-19 -2.027376696032862e-17 -1.6085324172600998e-19
-5.1985523199999995e-24 -4.942483657487e-20 -6.9630810051e-22
1.795532210043e-19 6.99284632353847e-17 1.05046410856367e-18
1.1710222124511298e-18 3.933155477331543e-16 5.66662322101978e-18
3.2334216553625e-19 1.2643366965497398e-16 1.70254534467729e-18
-1.38172594861253e-18 -5.514239085802409e-16 -7.391928221197199e-18
1.7070304692945e-19 6.732884453745638e-17 8.6119918688193e-19
2.2305776721544497e-18 7.956416971002614e-16 9.863008442892489e-18
3.84963073084823e-18 1.3151536550721806e-15 1.581992472635992e-17
-4.819313981232499e-19 -1.6404717263217785e-16 -1.9171777630632398e-18
1.28118688183342e-18 4.3637939711686413e-16 4.97007402862535e-18
9.5727964711174e-19 3.477350655938327e-16 3.85221785537754e-18
-7.2734341622371e-19 -2.8866563690219994e-16 -3.11429550982635e-18
-2.28726920243206e-18 -9.621605350662055e-16 -1.0153006474597709e-17
-2.7036875663361e-19 -1.175170967249478e-16 -1.2716660367854499e-18
6.3215711395701e-19 2.9229104150871144e-16 3.0888459737546697e-18
4.5315144543658e-19 2.272330858541964e-16 2.34738081364844e-18
1.7508634988226e-19 9.219608993383868e-17 9.338355476934499e-19
-7.151389559960399e-19 -3.9203789650730837e-16 -3.89998612935378e-18
3.6178927118245997e-19 2.1570868053230702e-16 2.10676850919159e-18
-2.7521872504479996e-20 -1.700086793992925e-17 -1.6347377496801998e-19
5.0154864117567995e-19 3.209597847714255e-16 3.0410803774075e-18
5.548947873853599e-19 3.6602053807542165e-16 3.4202807838709197e-18
6.6250814516717995e-19 4.684407415510118e-16 4.3148368764292294e-18
1.9151379906616999e-19 1.4141755622227051e-16 1.28563300011696e-18
-4.36911039439e-19 -3.3396274856003535e-16 -2.9983381458927096e-18
-5.860590938279e-19 -4.599631020009122e-16 -4.1154583282274095e-18
-2.9028595388234e-19 -2.355095023713669e-16 -2.07834172615101e-18
1.2205430273184998e-19 1.020867208628282e-16 8.8853415434905e-19
-7.1917811446908e-19 -6.196319236871888e-16 -5.3185765246151e-18
-9.4173642807253e-19 -8.261303718067184e-16 -6.99407108833293e-18
3.3552570791898997e-19 3.046897518872484e-16 2.5431451738902198e-18
1.8682935223237e-19 1.736637673883274e-16 1.4293413888907399e-18
-4.459172758483e-20 -4.2259337113767135e-17 -3.4300084952249997e-19
9.531271858659799e-19 9.302167617169433e-16 7.426126842906939e-18
-7.9290052025203995e-19 -7.86449385460679e-16 -6.19914515061998e-18
3.2126279335428e-19 3.2553156238393327e-16 2.53347336336304e-18
-7.4027383343711e-19 -7.660669409612008e-16 -5.8872875527317595e-18
-9.0563614575577e-19 -9.477218310881052e-16 -7.195007042757859e-18
-4.4382151260959996e-20 -4.7616713283956536e-17 -3.5713172024579e-19
3.4384866020041e-19 3.805935027534084e-16 2.82070477803551e-18
-2.6912879100404e-19 -3.036404099209235e-16 -2.22524426860101e-18
1.0768606809361999e-19 1.2358048705052657e-16 8.9609942592432e-19
-1.8037437183816998e-19 -2.079127824022133e-16 -1.49299556062771e-18
4.4661834882159e-19 5.226374770043717e-16 3.71870152079857e-18
-3.264455565416e-20 -3.877012616989424e-17 -2.7356082014742e-19
-4.9147381789269e-19 -5.891026328234464e-16 -4.12603062531334e-18
1.3019147783079999e-20 1.578462539077258e-17 1.0983724873223e-19

SCALARS Gamma float
LOOKUP_TABLE default
-0.0
-0.0
-0.0
51.927783403076106
55.843128263450005
55.85028477655006
53.45687944891208
48.61074489239497
45.40734099929298
48.20799500900665
55.077708619911526
55.73312112869978
52.045256212266224
47.18736724237866
46.16904657530413
45.38231345829308
41.87854210862354
39.715370690670916
35.03470645458025
35.41120679151683
34.887211223100024
36.3777951882169
37.929255356791785
35.67919900356355
37.73277601787517
39.005143466423036
39.07904256492954
39.16425315923729
39.3329338623885
39.5869996003386
39.89791904731201
40.177851059670964
38.146325338841066
38.44396241937926
38.74555898005236
39.03595292464842
39.306025481447044
41.66820365333518
41.57434949542993
41.1374087628689
40.41908557270368
39.20343419181775
37.10616124513152
34.38824150412632
31.6699583335687
28.999885246675348
26.139869894513296
23.35381607585452
20.53524746742247
17.920819595341225
-0.0
-0.0
-0.0
51.927783403076106
55.843128263450005
55.85028477655006
53.45687944891208
48.61074489239497
45.40734099929298
48.20799500900665
55.077708619911526
55.73312112869978
52.045256212266224
47.18736724237866
46.16904657530413
45.38231345829308
41.87854210862354
39.715370690670916
35.03470645458025
35.41120679151683
34.887211223100024
36.3777951882169
37.929255356791785
35.67919900356355
37.73277601787517
39.005143466423036
39.07904256492954
39.16425315923729
39.3329338623885
39.5869996003386
39.89791904731201
40.177851059670964
38.146325338841066
38.44396241937926
38.74555898005236
39.03595292464842
39.306025481447044
41.66820365333518
41.57434949542993
41.1374087628689
40.41908557270368
39.20343419181775
37.10616124513152
34.38824150412632
31.6699583335687
28.999885246675348
26.139869894513296
23.35381607585452
20.53524746742247
17.920819595341225

VECTORS Ftot float
117.81318456707632 -9.9614954284503e-14 39.87785519966393
141.5412270792598 -2.212208247792211e-13 88.5591132482044
144.7268103070167 -3.2799897600315706e-13 131.30453920939826
1303.835612192834 2.431624770516806e-14 -9.734279475915034
1331.6169594546923 5.685701397157983e-13 -227.6099794984955
1425.5295910539605 7.358847123965074e-13 -294.58934369213983
1503.7551953926318 7.134007208675449e-13 -285.58855294799434
1491.189232277985 6.962892329961072e-13 -278.73848269007766
1501.6596783282148 7.435358778052711e-13 -297.6522579751495
1701.0616931271506 9.60994181834091e-13 -384.70515904117786
2072.7625950030424 1.2599606172792995e-12 -504.387392576052
2233.302141999353 1.402371474060418e-12 -561.3973020456485
2211.8440499946746 1.4242849217112675e-12 -570.1696926834059
2126.8702718850423 1.3202668971035316e-12 -528.5292005177865
2201.025581887028 1.284096110835619e-12 -514.049312557087
2275.8854988196545 1.2807541617702035e-12 -512.711463617914
2204.0549586308707 1.1705732593238225e-12 -468.60384840005895
2184.5044150047192 1.1167975478590611e-12 -447.0763573676781
2010.0102498059011 9.692835428366685e-13 -388.0235557631643
2110.980932064384 9.886872767260312e-13 -395.7912578710515
2155.433666923592 9.87312836955316e-13 -395.24104218756383
2327.8236257792164 9.98577290578518e-13 -399.75042788889584
2504.816449671746 1.053412680125461e-12 -421.7021292160363
2427.3212466095824 1.00001189166847e-12 -400.3247273497077
2639.691421987386 1.0697807868940338e-12 -428.2546091754767
2804.487246984246 1.0756551421134604e-12 -430.6062308623436
2881.4249468826397 1.0722180642799977e-12 -429.2302999778968
2956.5198120635537 1.0761825595849988e-12 -430.8173666070804
3036.1916948311164 1.0800531717031507e-12 -432.3668499220141
3120.413662700099 1.0887144418248773e-12 -435.8341292902598
3207.4275518532622 1.1005976245696553e-12 -440.5912046130471
3290.371706974173 1.1114214148394561e-12 -444.9241839753416
3178.3028529429816 1.0690237491702954e-12 -427.95155185898494
3256.555346157946 1.0732622657102885e-12 -429.64831465988414
3332.87247316652 1.0882297207329867e-12 -435.6400857588094
3406.3561492129056 1.1062210131745081e-12 -442.84235935308044
3476.9076674443186 1.1147420908836883e-12 -446.253516899379
3732.3779897799955 1.1925188843136034e-12 -477.3891202690714
3768.190760151959 1.1936299761768266e-12 -477.8339125269547
3769.799719407311 1.1840994399615118e-12 -474.01864858491615
3741.343883979915 1.1763671824130823e-12 -470.9232714992415
3663.5434576757275 1.1372973286068909e-12 -455.2828289176429
3498.5190494897843 1.065336221177935e-12 -426.47536077522375
3268.195876310244 9.873776556382899e-13 -395.266990400585
3031.7031333235564 9.100866450515076e-13 -364.32585560256507
2793.768371581948 8.431395459358861e-13 -337.52559510206277
2533.018110732593 7.599347130395474e-13 -304.21703915296257
2274.8134086164573 6.781025723100549e-13 -271.45799928662706
2009.1915812421003 5.978359638937737e-13 -239.32567326406183
1760.157264872384 5.211672672065806e-13 -208.6336631457128
117.81318456707632 -9.9614954284503e-14 39.87785519966393
141.5412270792598 -2.212208247792211e-13 88.5591132482044
144.7268103070167 -3.2799897600315706e-13 131.30453920939826
1303.835612192834 2.431624770516806e-14 -9.734279475915034
1331.6169594546923 5.685701397157983e-13 -227.6099794984955
1425.5295910539605 7.358847123965074e-13 -294.58934369213983
1503.7551953926318 7.134007208675449e-13 -285.58855294799434
1491.189232277985 6.962892329961072e-13 -278.73848269007766
1501.6596783282148 7.435358778052711e-13 -297.6522579751495
1701.0616931271506 9.60994181834091e-13 -384.70515904117786
2072.7625950030424 1.2599606172792995e-12 -504.387392576052
2233.302141999353 1.402371474060418e-12 -561.3973020456485
2211.8440499946746 1.4242849217112675e-12 -570.1696926834059
2126.8702718850423 1.3202668971035316e-12 -528.5292005177865
2201.025581887028 1.284096110835619e-12 -514.049312557087
2275.8854988196545 1.2807541617702035e-12 -512.711463617914
2204.0549586308707 1.1705732593238225e-12 -468.60384840005895
2184.5044150047192 1.1167975478590611e-12 -447.0763573676781
2010.0102498059011 9.692835428366685e-13 -388.0235557631643
2110.980932064384 9.886872767260312e-13 -395.7912578710515
2155.433666923592 9.87312836955316e-13 -395.24104218756383
2327.8236257792164 9.98577290578518e-13 -399.75042788889584
2504.816449671746 1.053412680125461e-12 -421.7021292160363
2427.3212466095824 1.00001189166847e-12 -400.3247273497077
2639.691421987386 1.0697807868940338e-12 -428.2546091754767
2804.487246984246 1.0756551421134604e-12 -430.6062308623436
2881.4249468826397 1.0722180642799977e-12 -429.2302999778968
2956.5198120635537 1.0761825595849988e-12 -430.8173666070804
3036.1916948311164 1.0800531717031507e-12 -432.3668499220141
3120.413662700099 1.0887144418248773e-12 -435.8341292902598
3207.4275518532622 1.1005976245696553e-12 -440.5912046130471
3290.371706974173 1.1114214148394561e-12 -444.9241839753416
3178.3028529429816 1.0690237491702954e-12 -427.95155185898494
3256.555346157946 1.0732622657102885e-12 -429.64831465988414
3332.87247316652 1.0882297207329867e-12 -435.6400857588094
3406.3561492129056 1.1062210131745081e-12 -442.84235935308044
3476.9076674443186 1.1147420908836883e-12 -446.253516899379
3732.3779897799955 1.1925188843136034e-12 -477.3891202690714
3768.190760151959 1.1936299761768266e-12 -477.8339125269547
3769.799719407311 1.1840994399615118e-12 -474.01864858491615
3741.343883979915 1.1763671824130823e-12 -470.9232714992415
3663.5434576757275 1.1372973286068909e-12 -455.2828289176429
3498.5190494897843 1.065336221177935e-12 -426.47536077522375
3268.195876310244 9.873776556382899e-13 -395.266990400585
3031.7031333235564 9.100866450515076e-13 -364.32585560256507
2793.768371581948 8.431395459358861e-13 -337.52559510206277
2533.018110732593 7.599347130395474e-13 -304.21703915296257
2274.8134086164573 6.781025723100549e-13 -271.45799928662706
2009.1915812421003 5.978359638937737e-13 -239.32567326406183
1760.157264872384 5.211672672065806e-13 -208.6336631457128

VECTORS D float
93.58678904277548 0.7511171255928379 -31.677612618343893
61.894447278460134 0.6780325253795929 -38.7259421094234
14.040143515204798 0.2021285496319471 -12.73803085127765
548.3405797012867 9.07795298400035 -648.4585193389483
534.659865534861 10.28926772454733 -776.3355017513361
489.8068609810372 10.644520179290408 -840.0470285436268
422.8997145236192 10.145301897728627 -833.7217347096148
355.60775940085705 9.697277047094264 -789.8700725804218
316.1870817855044 9.16023278435356 -778.8232937766608
330.79556810963123 10.136028266142008 -892.4773805852033
371.1723789641429 11.975593551565945 -1085.885206449772
366.97628893348616 12.414301642055637 -1154.5035224326302
335.9055715126034 11.866141818350489 -1128.4535385689062
292.4260391811675 10.747445299132176 -1042.8270784440836
272.4185096779995 10.382822158168782 -1026.0123904491013
258.09206798941636 10.172149458197014 -1022.1176190461985
228.13749416268936 9.704830449530094 -945.34627370704
209.02306819238885 9.099425620150047 -903.8378847327373
176.8132594068181 7.864480992108454 -795.4369643368291
173.69406211089307 7.882110270969315 -810.7543224414455
166.99579804072442 7.72104131937994 -806.7633817158319
166.94397004163704 7.85404466548132 -832.8319609997021
170.3582138830559 8.145055463252227 -875.7465187595606
156.9397938780744 7.616149032192728 -829.702007638687
162.9890811431495 8.018552658064234 -884.5463110177243
162.82542310799212 8.110653306328713 -905.5344918537409
159.50470029952294 8.034537658075012 -907.546735341964
156.9818832796817 7.986319126958899 -912.4121667401432
154.87414015095786 8.018683205671783 -918.2607374633187
153.51028323357593 7.991913662429655 -927.0532677035562
152.65308330040475 7.979683015799898 -937.7823397912734
151.82924569370297 7.958182753591883 -947.6852191510721
143.1771330067719 7.515549315366397 -907.0051750885019
142.38303211946115 7.475954888429204 -914.4660838082685
142.35496281024822 7.468636208906281 -926.0402008002153
142.5836674920256 7.467684098298714 -938.5907710612225
142.40071513138122 7.4173688565626295 -947.3965338755572
150.30876911771816 7.811866739710981 -1010.2711818825452
149.0261297588078 7.722418029143817 -1011.1680644384314
146.57946153844998 7.56882105568193 -1003.3028758658846
143.7974855194596 7.395533062144728 -992.2347947205342
138.4307907698828 7.088511019737808 -962.321277134424
129.6945960073193 6.610450535561839 -907.748253953481
119.5974624399066 6.066787196901689 -842.2935397659526
109.68537049003491 5.537485686491151 -776.8521486656472
100.55666289653537 5.053002925469138 -715.8237913149504
90.30635024335005 4.517703144024901 -645.7774125324211
80.37690824797829 4.004162347155309 -577.0773306407289
70.56272918161419 3.5017941974624924 -508.3810823831538
61.402695520752715 3.036839189343453 -443.6999315403171
93.58678904277548 0.7511171255928379 -31.677612618343893
61.894447278460134 0.6780325253795929 -38.7259421094234
14.040143515204798 0.2021285496319471 -12.73803085127765
548.3405797012867 9.07795298400035 -648.4585193389483
534.659865534861 10.28926772454733 -776.3355017513361
489.8068609810372 10.644520179290408 -840.0470285436268
422.8997145236192 10.145301897728627 -833.7217347096148
355.60775940085705 9.697277047094264 -789.8700725804218
316.1870817855044 9.16023278435356 -778.8232937766608
330.79556810963123 10.136028266142008 -892.4773805852033
371.1723789641429 11.975593551565945 -1085.885206449772
366.97628893348616 12.414301642055637 -1154.5035224326302
335.9055715126034 11.866141818350489 -1128.4535385689062
292.4260391811675 10.747445299132176 -1042.8270784440836
272.4185096779995 10.382822158168782 -1026.0123904491013
258.09206798941636 10.172149458197014 -1022.1176190461985
228.13749416268936 9.704830449530094 -945.34627370704
209.02306819238885 9.099425620150047 -903.8378847327373
176.8132594068181 7.864480992108454 -795.4369643368291
173.69406211089307 7.882110270969315 -810.7543224414455
166.99579804072442 7.72104131937994 -806.7633817158319
166.94397004163704 7.85404466548132 -832.8319609997021
170.3582138830559 8.145055463252227 -875.7465187595606
156.9397938780744 7.616149032192728 -829.702007638687
162.9890811431495 8.018552658064234 -884.5463110177243
162.82542310799212 8.110653306328713 -905.5344918537409
159.50470029952294 8.034537658075012 -907.546735341964
156.9818832796817 7.986319126958899 -912.4121667401432
154.87414015095786 8.018683205671783 -918.2607374633187
153.51028323357593 7.991913662429655 -927.0532677035562
152.65308330040475 7.979683015799898 -937.7823397912734
151.82924569370297 7.958182753591883 -947.6852191510721
143.1771330067719 7.515549315366397 -907.0051750885019
142.38303211946115 7.475954888429204 -914.4660838082685
142.35496281024822 7.468636208906281 -926.0402008002153
142.5836674920256 7.467684098298714 -938.5907710612225
142.40071513138122 7.4173688565626295 -947.3965338755572
150.30876911771816 7.811866739710981 -1010.2711818825452
149.0261297588078 7.722418029143817 -1011.1680644384314
146.57946153844998 7.56882105568193 -1003.3028758658846
143.7974855194596 7.395533062144728 -992.2347947205342
138.4307907698828 7.088511019737808 -962.321277134424
129.6945960073193 6.610450535561839 -907.748253953481
119.5974624399066 6.066787196901689 -842.2935397659526
109.68537049003491 5.537485686491151 -776.8521486656472
100.55666289653537 5.053002925469138 -715.8237913149504
90.30635024335005 4.517703144024901 -645.7774125324211
80.37690824797829 4.004162347155309 -577.0773306407289
70.56272918161419 3.5017941974624924 -508.3810823831538
61.402695520752715 3.036839189343453 -443.6999315403171

VECTORS L float
24.22639552430085 -0.7511171255929373 71.5554678180078
79.64677980079968 -0.6780325253798144 127.28505535762778
130.68666679181192 -0.20212854963227486 144.04257006067593
755.4950324915476 -9.077952984000328 638.7242398630334
796.9570939198312 -10.289267724546763 548.7255222528407
935.7227300729236 -10.644520179289666 545.457684851487
1080.8554808690124 -10.145301897727911 548.1331817616201
1135.581472877128 -9.697277047093571 511.1315898903441
1185.4725965427103 -9.160232784352818 481.1710358015115
1370.2661250175192 -10.136028266141048 507.7722215440254
1701.5902160388998 -11.975593551564685 581.4978138737204
1866.3258530658663 -12.41430164205424 593.106220386982