# vtk DataFile Version 4.0
[MyVLM domain - lattices] 
ASCII
DATASET UNSTRUCTURED_GRID
POINTS 152 float
0.0 -0.01077289597412312 -2.3207471028108135
0.0 -1.6890783089871275 -3.799784791997358
0.0 -3.295424691413768 -5.300676898585338
0.0 -4.86554108691235 -6.780843206435012
0.0 -6.399747390450115 -8.239902479569915
0.0 -7.9213564955080615 -9.650071493430303
0.0 -9.45027039712244 -10.987631973931935
0.0 -10.991531957542326 -12.246574071872512
0.0 -12.514026992086242 -13.463978228626834
0.0 -14.005168013037732 -14.654845627902708
0.0 -15.465072624031793 -15.819036115145636
0.0 -16.893995655444787 -16.95624599533908
0.0 -18.292200694205306 -18.066161137813936
0.0 -19.661819260253537 -19.1462412960238
0.0 -21.001438114107724 -20.19817070319824
0.0 -22.30796207934209 -21.2256380469624
0.0 -23.58093127169415 -22.22919139603826
0.0 -24.82109780557018 -23.207934415380123
0.0 -26.02900362378292 -24.1612212426939
0.0 -27.204648888300536 -25.089051684953475
0.0 -28.348033756765606 -25.991425554287712
0.0 -29.45915838249516 -26.868342667980492
0.0 -30.538022914480685 -27.7198028484707
0.0 -31.584627497388073 -28.545805923352205
0.0 -32.59897227155769 -29.346351725373893
0.0 -33.581057373004334 -30.121440092439634
0.0 -34.530882933417246 -30.871070867608317
0.0 -35.448449080160096 -31.59524389909382
0.0 -36.333755745331494 -32.293959267817854
0.0 -37.186800424987325 -32.96721995786484
0.0 -38.00758271669941 -33.61502644882999
0.0 -38.79610312876801 -34.23737813494464
0.0 -39.552362149516505 -34.834274434247654
0.0 -40.27636024729143 -35.40571478858536
0.0 -40.96809787046243 -35.95169866361162
0.0 -41.62757544742231 -36.47222554878778
0.0 -42.2550604635091 -36.96697666750127
0.0 -42.85140127989507 -37.43494098227723
0.0 -43.41789618373945 -37.87457125472943
0.0 -43.9552224856822 -38.28506029746937
0.0 -44.46299265708074 -38.66686994914912
0.0 -44.94140822133401 -39.019760043533964
0.0 -45.39810700022748 -39.33462817907147
0.0 -45.832917834772516 -39.611678335101274
0.0 -46.24007581341656 -39.85778086567712
0.0 -46.61564956109806 -40.07762100115244
0.0 -46.958636563921374 -40.27239349106397
0.0 -47.269976229750775 -40.4409787927146
0.0 -47.54882871842079 -40.584377788638704
0.0 -47.79353929101618 -40.70456251988333
0.0 -48.002675486983435 -40.803240126459386
-0.8152906147965383 -2.226319361119136 0.3196383565851606
-0.840508508576773 -3.9729325560739954 -1.0779932880700378
-0.8937965186568912 -5.724772945640618 -2.4054923889480135
-0.9506477078523391 -7.450454545925852 -3.7002633051105427
-1.020681877210228 -9.149329625384638 -4.963077972953478
-1.048954977401727 -10.801513826393432 -6.217633647111109
-0.9930987765444168 -12.393004816742321 -7.4806176572993
-0.9074282632528687 -13.911348327682038 -8.766872423043123
-0.838943182597301 -15.382768254226159 -10.045145523248333
-0.780438039247949 -16.819753252217453 -11.300553557447639
-0.7250391551380654 -18.224869411871552 -12.530038378407639
-0.6716005320170477 -19.597922641437876 -13.73383129566938
-0.6190912009117757 -20.938445636988344 -14.912489220367986
-0.5668551203523576 -22.244169591232662 -16.068716011742573
-0.5160737545272154 -23.51643315971863 -17.2009163222348
-0.46824322159258064 -24.758450895356138 -18.305259196865723
-0.4244759216876314 -25.970682448385794 -19.381196845809757
-0.3845740908079094 -27.15238003617573 -20.429620441704913
-0.34771109645469384 -28.303060446928153 -21.451105853947197
-0.3130568676883623 -29.422803526334675 -22.445557926146776
-0.28047282351476527 -30.511635951135183 -23.41294486620305
-0.25028172479700606 -31.569559435231156 -24.353264631567768
-0.22269967179244904 -32.59658632220479 -25.266502511732504
-0.19756508903558764 -33.5927475318595 -26.152621657910476
-0.17527331282135344 -34.55805015507521 -27.011613619520027
-0.15618952887338375 -35.492506745329486 -27.843463435909186
-0.13996799493970205 -36.396153920064656 -28.64812746810952
-0.12575834684109707 -37.26903604151786 -29.425552847265532
-0.11252036551224441 -38.1111922870735 -30.175692883588592
-0.10008619772204906 -38.92262897890204 -30.89854004260937
-0.0884564051429673 -39.70334896862302 -31.594090925900012
-0.07764813403823374 -40.45335558210696 -32.26234156984238
-0.06766754153321136 -41.17265251671198 -32.90328756809666
-0.05846867713071129 -41.861244313052914 -33.516923509368794
-0.05000632361003568 -42.51913511280537 -34.103244457802006
-0.0422455662862189 -43.14632856602568 -34.662246063428555
-0.03513713503927796 -43.742631555063575 -35.19415847490193
-0.028610254341892315 -44.30742061188231 -35.69972471249482
-0.02259956362415257 -44.8387655820795 -36.181245044650495
-0.017476911002663225 -45.33566717462222 -36.6399103800475
-0.013355710955940858 -45.79993266003242 -37.07356689754854
-0.010110762084772787 -46.23151170948575 -37.4822745767108
-0.007505342360435571 -46.62107489342093 -37.87715179873081
-0.005475063785670375 -46.96853999178106 -38.258296549656755
-0.003985447751437076 -47.28093259808447 -38.617336053173084
-0.0029419419370193198 -47.56287232778758 -38.94876486596318
-0.00222865752783443 -47.81509693527232 -39.25170376659191
-0.0017402354220029323 -48.035709237387046 -39.52841372989611
-0.0014049497009942318 -48.22534618193439 -39.77813567104365
-0.0011720086804816246 -48.38583934942735 -39.99868679737806
-0.0010052173229800666 -48.51877426282398 -40.18817755621794
-0.6209246712649916 -2.53720086956758 -1.0494495861578501
-0.6503643852126241 -4.2597024381930915 -2.4438648402046064
-0.6916665849409614 -5.9608310316281905 -3.7998483983995026
-0.7392485943984627 -7.633080123911742 -5.126346190024623
-0.7761138204794831 -9.27170428016155 -6.429013604149247
-0.765770157729804 -10.869397852754723 -7.716557172574184
-0.7126976399239822 -12.419357723492231 -8.997084535853963
-0.6548892921938138 -13.923488586919147 -10.268325767421713
-0.6072679581919687 -15.390844940556853 -11.519490137327182
-0.5645539478947554 -16.825513578667067 -12.745707193826773
-0.5237398826831674 -18.22843055492561 -13.945861391589471
-0.4840093998483088 -19.599412648116093 -15.12017108515814
-0.44472987047405005 -20.93773320489023 -16.26950226627118
-0.40609832807983987 -22.243133203401893 -17.39416362514427
-0.3691188660449235 -23.516756544834262 -18.492791913432775
-0.33476967873007946 -24.75953667278275 -19.564274696378387
-0.3033937546858278 -25.971402066368604 -20.6086972092453
-0.27460694522347623 -27.15205285983309 -21.626416818128796
-0.24778798655364606 -28.301405553983994 -22.617533033491164
-0.22257363420117282 -29.419500134684462 -23.58199820203633
-0.19903295561691423 -30.506347287294975 -24.519799589447583
-0.17736802372104568 -31.561952321160458 -25.430930868294002
-0.15759928531051376 -32.58633149675771 -26.31537266009398
-0.1398144006963529 -33.57949910371874 -27.173107935127202
-0.12429856563552642 -34.54146254322201 -28.004127873012653
-0.11105907142990716 -35.47224028782551 -28.808410459013007
-0.09964737816779967 -36.371862737290606 -29.585919464103412
-0.08935451713250306 -37.240361226408204 -30.336617544934256
-0.07972746121286005 -38.077752496030676 -31.06048475053457
-0.07070347607438114 -38.884039623032734 -31.75751741402787
-0.062289202192950394 -39.65922493720716 -32.42771275887522
-0.054493378339291916 -40.40331119684266 -33.07106749787617
-0.047301081998971 -41.11630161076282 -33.68757780690367
-0.040678125277780114 -41.79819954941608 -34.27723966921367
-0.03459445871109547 -42.44900804429724 -34.84004947201138
-0.029018512997061326 -43.068689534274895 -35.37605197891007
-0.023905271017938854 -43.657077280530224 -35.88544590149609
-0.01920368173726683 -44.21348200569 -36.36905268855533
-0.015028677985055923 -44.73705211744086 -36.827887228286606
-0.01156223323447653 -45.22812683084086 -37.261545259925825
-0.008799927390267616 -45.68734174837115 -37.66926930193264
-0.006606039166953134 -46.112159378785194 -38.05408341861629
-0.00486765230478973 -46.49998368632574 -38.419081444916934
-0.003547691826415294 -46.85267642722321 -38.76204462615849
-0.0025977711331711486 -47.173392519016346 -39.07921307802979
-0.001938974799320156 -47.46352423927489 -39.36892754873521
-0.0014883348561890108 -47.72262891395628 -39.63171559665533
-0.0011794444211239365 -47.95024640076698 -39.86812559802158
-0.0009663593930534462 -48.14699057544026 -40.077425964223394
-0.0008164597512981341 -48.313756951844205 -40.25854946339134

CELLS 100 350
4 0 51 52 1
4 1 52 53 2
4 2 53 54 3
4 3 54 55 4
4 4 55 56 5
4 5 56 57 6
4 6 57 58 7
4 7 58 59 8
4 8 59 60 9
4 9 60 61 10
4 10 61 62 11
4 11 62 63 12
4 12 63 64 13
4 13 64 65 14
4 14 65 66 15
4 15 66 67 16
4 16 67 68 17
4 17 68 69 18
4 18 69 70 19
4 19 70 71 20
4 20 71 72 21
4 21 72 73 22
4 22 73 74 23
4 23 74 75 24
4 24 75 76 25
4 25 76 77 26
4 26 77 78 27
4 27 78 79 28
4 28 79 80 29
4 29 80 81 30
4 30 81 82 31
4 31 82 83 32
4 32 83 84 33
4 33 84 85 34
4 34 85 86 35
4 35 86 87 36
4 36 87 88 37
4 37 88 89 38
4 38 89 90 39
4 39 90 91 40
4 40 91 92 41
4 41 92 93 42
4 42 93 94 43
4 43 94 95 44
4 44 95 96 45
4 45 96 97 46
4 46 97 98 47
4 47 98 99 48
4 48 99 100 49
4 49 100 101 50
1 102
1 103
1 104
1 105
1 106
1 107
1 108
1 109
1 110
1 111
1 112
1 113
1 114
1 115
1 116
1 117
1 118
1 119
1 120
1 121
1 122
1 123
1 124
1 125
1 126
1 127
1 128
1 129
1 130
1 131
1 132
1 133
1 134
1 135
1 136
1 137
1 138
1 139
1 140
1 141
1 142
1 143
1 144
1 145
1 146
1 147
1 148
1 149
1 150
1 151

CELL_TYPES 100
9
9
9
9
9
9
9
9
9
9
9
9
9
9
9
9
9
9
9
9
9
9
9
9
9
9
9
9
9
9
9
9
9
9
9
9
9
9
9
9
9
9
9
9
9
9
9
9
9
9
1
1
1
1
1
1
1
1
1
1
1
1
1
1
1
1
1
1
1
1
1
1
1
1
1
1
1
1
1
1
1
1
1
1
1
1
1
1
1
1
1
1
1
1
1
1
1
1
1
1

CELL_DATA 100

VECTORS S float
-0.0 -0.0 -0.0
-4.3721206342262e-19 -6.153075629802278e-15 -3.553414982368885e-15
-0.0 -0.0 -0.0
8.278347994197e-20 -6.1526772384989785e-15 -3.55410477140844e-15
-5.8757494992268e-19 1.230520105281111e-14 7.10847511363943e-15
0.0 -0.0 -0.0
1.25325111799354e-18 -2.4610561704249696e-14 -1.4216673942135555e-14
-1.15671467081271e-18 2.4610649857597368e-14 1.421652134648522e-14
1.18972747744348e-18 -2.461065725459121e-14 -1.4216508538593495e-14
-1.47343801691818e-18 2.4610575964195777e-14 1.4216649235521206e-14
0.0 -0.0 -0.0
0.0 -0.0 -0.0
-4.01912710206817e-18 4.922059604235736e-14 2.843426061755355e-14
-4.24088158159844e-18 4.92203890706782e-14 2.843461885679586e-14
0.0 -0.0 -0.0
0.0 -0.0 -0.0
0.0 -0.0 -0.0
0.0 -0.0 -0.0
0.0 -0.0 -0.0
0.0 -0.0 -0.0
0.0 -0.0 -0.0
0.0 -0.0 -0.0
0.0 -0.0 -0.0
-1.11107606380655e-18 4.9224854913983075e-14 2.842688736474838e-14
-1.1082065941988099e-18 4.922476783412927e-14 2.842703815442642e-14
0.0 -0.0 -0.0
-1.10974988643186e-18 4.922460058942083e-14 2.842732775632825e-14
-5.4577576059703e-19 2.4612263292202982e-14 1.421372795165725e-14
1.07946124813115e-18 -4.9224459368339594e-14 -2.842757229372061e-14
0.0 -0.0 -0.0
-5.3450909067094e-19 2.461217460840914e-14 1.421388151441388e-14
-5.308412549881899e-19 2.4612153961169807e-14 1.4213917266404678e-14
0.0 -0.0 -0.0
-1.04125623890883e-18 4.92242530230237e-14 2.842792959443918e-14
0.0 -0.0 -0.0
-5.1219447080523e-19 2.4612115761940515e-14 1.421398341088143e-14
5.0435847705673e-19 -2.461211611742059e-14 -1.4213982795632768e-14
4.963713024682999e-19 -2.461211944735725e-14 -1.4213977029985342e-14
4.997291742643599e-19 -2.461212427749245e-14 -1.4213968666275207e-14
0.0 -0.0 -0.0
-4.7039927477909e-19 2.4612141634576756e-14 1.4213938612663765e-14
4.6271482181563e-19 -2.461215096914125e-14 -1.421392244964107e-14
9.1147922331523e-19 -4.9224320150717394e-14 -2.842781336392491e-14
0.0 -0.0 -0.0
4.426001615565e-19 -2.461217764536687e-14 -1.421387625890012e-14
0.0 -0.0 -0.0
4.3276850105336e-19 -2.461219415395805e-14 -1.4213847673550635e-14
0.0 -0.0 -0.0
2.1850331937830997e-19 -1.2306103635344725e-14 -7.106912480465107e-15
-2.1683262377062e-19 1.2306106538043106e-14 7.106907454293698e-15
-0.0 -0.0 -0.0
-4.3721206342262e-19 -6.153075629802278e-15 -3.553414982368885e-15
-0.0 -0.0 -0.0
8.278347994197e-20 -6.1526772384989785e-15 -3.55410477140844e-15
-5.8757494992268e-19 1.230520105281111e-14 7.10847511363943e-15
0.0 -0.0 -0.0
1.25325111799354e-18 -2.4610561704249696e-14 -1.4216673942135555e-14
-1.15671467081271e-18 2.4610649857597368e-14 1.421652134648522e-14
1.18972747744348e-18 -2.461065725459121e-14 -1.4216508538593495e-14
-1.47343801691818e-18 2.4610575964195777e-14 1.4216649235521206e-14
0.0 -0.0 -0.0
0.0 -0.0 -0.0
-4.01912710206817e-18 4.922059604235736e-14 2.843426061755355e-14
-4.24088158159844e-18 4.92203890706782e-14 2.843461885679586e-14
0.0 -0.0 -0.0
0.0 -0.0 -0.0
0.0 -0.0 -0.0
0.0 -0.0 -0.0
0.0 -0.0 -0.0
0.0 -0.0 -0.0
0.0 -0.0 -0.0
0.0 -0.0 -0.0
0.0 -0.0 -0.0
-1.11107606380655e-18 4.9224854913983075e-14 2.842688736474838e-14
-1.1082065941988099e-18 4.922476783412927e-14 2.842703815442642e-14
0.0 -0.0 -0.0
-1.10974988643186e-18 4.922460058942083e-14 2.842732775632825e-14
-5.4577576059703e-19 2.4612263292202982e-14 1.421372795165725e-14
1.07946124813115e-18 -4.9224459368339594e-14 -2.842757229372061e-14
0.0 -0.0 -0.0
-5.3450909067094e-19 2.461217460840914e-14 1.421388151441388e-14
-5.308412549881899e-19 2.4612153961169807e-14 1.4213917266404678e-14
0.0 -0.0 -0.0
-1.04125623890883e-18 4.92242530230237e-14 2.842792959443918e-14
0.0 -0.0 -0.0
-5.1219447080523e-19 2.4612115761940515e-14 1.421398341088143e-14
5.0435847705673e-19 -2.461211611742059e-14 -1.4213982795632768e-14
4.963713024682999e-19 -2.461211944735725e-14 -1.4213977029985342e-14
4.997291742643599e-19 -2.461212427749245e-14 -1.4213968666275207e-14
0.0 -0.0 -0.0
-4.7039927477909e-19 2.4612141634576756e-14 1.4213938612663765e-14
4.6271482181563e-19 -2.461215096914125e-14 -1.421392244964107e-14
9.1147922331523e-19 -4.9224320150717394e-14 -2.842781336392491e-14
0.0 -0.0 -0.0
4.426001615565e-19 -2.461217764536687e-14 -1.421387625890012e-14
0.0 -0.0 -0.0
4.3276850105336e-19 -2.461219415395805e-14 -1.4213847673550635e-14
0.0 -0.0 -0.0
2.1850331937830997e-19 -1.2306103635344725e-14 -7.106912480465107e-15
-2.1683262377062e-19 1.2306106538043106e-14 7.106907454293698e-15

SCALARS Gamma float
LOOKUP_TABLE default
-0.0
-0.0
-0.0
64.51045816647711
68.16601907266619
68.19674844981193
65.44527735461364
57.978534875561635
52.40021570817857
55.28684675271755
66.47551800932531
69.50048628502591
67.40387274357826
60.89389733157991
59.757688506324754
57.70782018370409
57.37547364694021
53.964307690128685
50.9456652980434
51.24233572086327
51.09333830972659
50.074836278038454
50.014804231710514
50.28324236516458
45.15521829220578
47.38835541364112
48.397362135254674
46.92316493748501
45.820852646911625
44.15156383820396
45.4356405370889
44.899802104718155
43.8111196590925
45.811054598135875
45.585055596033406
47.04253423058478
46.941415550969126
46.747295489000386
46.27996315701273
45.47347489218849
44.4122608529177
42.836851587611136
40.327205229380844
37.182450840470075
33.069056331840954
29.903749821557383
27.237039485854915
24.136704399873054
21.15638692217103
18.411794057117223
-0.0
-0.0
-0.0
64.51045816647711
68.16601907266619
68.19674844981193
65.44527735461364
57.978534875561635
52.40021570817857
55.28684675271755
66.47551800932531
69.50048628502591
67.40387274357826
60.89389733157991
59.757688506324754
57.70782018370409
57.37547364694021
53.964307690128685
50.9456652980434
51.24233572086327
51.09333830972659
50.074836278038454
50.014804231710514
50.28324236516458
45.15521829220578
47.38835541364112
48.397362135254674
46.92316493748501
45.820852646911625
44.15156383820396
45.4356405370889
44.899802104718155
43.8111196590925
45.811054598135875
45.585055596033406
47.04253423058478
46.941415550969126
46.747295489000386
46.27996315701273
45.47347489218849
44.4122608529177
42.836851587611136
40.327205229380844
37.182450840470075
33.069056331840954
29.903749821557383
27.237039485854915
24.136704399873054
21.15638692217103
18.411794057117223

VECTORS Ftot float
145.01786679268133 21.198691854387008 -36.71721134579483
170.16719468239114 45.93504106399745 -79.5618249706064
170.07093527082796 66.5745775888173 -115.310550876268
1710.3662823916545 -44.07060153467765 76.33252097818469
1718.2594050109083 -143.4301727545276 248.4283465492233
1803.217579155271 -181.71962011314304 314.74761476807925
1883.4477647805684 -175.62904864926773 304.19843554551807
1808.293813805927 -159.82369018554346 276.8227516545088
1753.8745178400109 -159.79921852606154 276.7803654969406
1954.805409655241 -215.22246477214125 372.7762439155518
2482.426009572871 -315.79103008955474 546.9661086896214
2757.052282036701 -363.67851407961325 629.909664007044
2826.3124437691945 -391.8621487488998 678.725151196208
2694.676786084697 -383.2842517968019 663.8677978530842
2802.287827175652 -370.53406186536535 641.7838210856829
2853.158068091136 -355.1060288728496 615.0616840817967
2976.823414981615 -354.9352061168774 614.7658103893639
2929.237045414335 -333.9611590014746 578.4376951451428
2883.569812558889 -317.09537633407786 549.225302655797
3018.4697875948755 -315.84804870621105 547.0648678306474
3119.9476779417278 -321.08877950000686 556.1420798342925
3169.949116877332 -304.70650140229685 527.7671418253359
3269.6244049845563 -306.47358000519426 530.8278117465221
3386.307541808962 -314.6303716894859 544.9557893704705
3129.924988763811 -281.8500105109579 488.1785383188016
3374.630692484116 -296.20325231033553 513.039082368645
3535.4846025249717 -302.3799829979273 523.7374937442238
3512.6580004806115 -288.91118000066643 500.408842635832
3509.3870360285932 -279.7782044266996 484.59006491743577
3454.435585989336 -269.1174371674583 466.1250743767631
3626.7444551841686 -277.31495906539175 480.32359880014224
3652.2361959018476 -274.1099811954568 474.77241429228104
3628.092387563155 -265.8185794549746 460.4112852118008
3857.0355834656875 -279.57213652425315 484.23314484058943
3899.1553805277395 -276.7177054198071 479.2891251409839
4082.213904030953 -289.3687977976793 501.20145991070603
4130.095003396896 -288.34063251695704 499.4206254059168
4166.4487656589845 -286.80086423271376 496.7536685057243
4172.782446539687 -289.9566880921356 502.21971576998095
4148.270586130256 -278.08603076238126 481.65913415560647
4094.021864719201 -270.3967859550027 468.34097147739163
3986.897567462601 -260.3847050631259 450.9995386831715
3786.595045028513 -244.83340414061732 424.06389536159395
3519.665822582658 -225.3415403029292 390.3029968605035
3153.422307605233 -200.00913039094266 346.4259758147814
2870.5676513354306 -180.5929901267677 312.7962343903465
2630.0178107553406 -164.66405702458283 285.20651294699655
2342.883080400233 -145.77010437036046 252.48122699408256
2061.902949226212 -131.35576414690325 227.51485736947095
1801.3899979608004 -114.2687821408351 197.91933638694567
145.01786679268133 21.198691854387008 -36.71721134579483
170.16719468239114 45.93504106399745 -79.5618249706064
170.07093527082796 66.5745775888173 -115.310550876268
1710.3662823916545 -44.07060153467765 76.33252097818469
1718.2594050109083 -143.4301727545276 248.4283465492233
1803.217579155271 -181.71962011314304 314.74761476807925
1883.4477647805684 -175.62904864926773 304.19843554551807
1808.293813805927 -159.82369018554346 276.8227516545088
1753.8745178400109 -159.79921852606154 276.7803654969406
1954.805409655241 -215.22246477214125 372.7762439155518
2482.426009572871 -315.79103008955474 546.9661086896214
2757.052282036701 -363.67851407961325 629.909664007044
2826.3124437691945 -391.8621487488998 678.725151196208
2694.676786084697 -383.2842517968019 663.8677978530842
2802.287827175652 -370.53406186536535 641.7838210856829
2853.158068091136 -355.1060288728496 615.0616840817967
2976.823414981615 -354.9352061168774 614.7658103893639
2929.237045414335 -333.9611590014746 578.4376951451428
2883.569812558889 -317.09537633407786 549.225302655797
3018.4697875948755 -315.84804870621105 547.0648678306474
3119.9476779417278 -321.08877950000686 556.1420798342925
3169.949116877332 -304.70650140229685 527.7671418253359
3269.6244049845563 -306.47358000519426 530.8278117465221
3386.307541808962 -314.6303716894859 544.9557893704705
3129.924988763811 -281.8500105109579 488.1785383188016
3374.630692484116 -296.20325231033553 513.039082368645
3535.4846025249717 -302.3799829979273 523.7374937442238
3512.6580004806115 -288.91118000066643 500.408842635832
3509.3870360285932 -279.7782044266996 484.59006491743577
3454.435585989336 -269.1174371674583 466.1250743767631
3626.7444551841686 -277.31495906539175 480.32359880014224
3652.2361959018476 -274.1099811954568 474.77241429228104
3628.092387563155 -265.8185794549746 460.4112852118008
3857.0355834656875 -279.57213652425315 484.23314484058943
3899.1553805277395 -276.7177054198071 479.2891251409839
4082.213904030953 -289.3687977976793 501.20145991070603
4130.095003396896 -288.34063251695704 499.4206254059168
4166.4487656589845 -286.80086423271376 496.7536685057243
4172.782446539687 -289.9566880921356 502.21971576998095
4148.270586130256 -278.08603076238126 481.65913415560647
4094.021864719201 -270.3967859550027 468.34097147739163
3986.897567462601 -260.3847050631259 450.9995386831715
3786.595045028513 -244.83340414061732 424.06389536159395
3519.665822582658 -225.3415403029292 390.3029968605035
3153.422307605233 -200.00913039094266 346.4259758147814
2870.5676513354306 -180.5929901267677 312.7962343903465
2630.0178107553406 -164.66405702458283 285.20651294699655
2342.883080400233 -145.77010437036046 252.48122699408256
2061.902949226212 -131.35576414690325 227.51485736947095
1801.3899979608004 -114.2687821408351 197.91933638694567

VECTORS D float
122.1793916029206 -17.86913135939883 30.929540378089257
93.35725093905 -25.210865575561062 43.64352219832793
40.81246169335938 -15.982103388730977 27.6679797532614
881.1052345891069 -450.16536329489304 779.3228684603453
806.7581783861027 -506.6255478525895 877.0661999998102
730.9553285407621 -542.9446566255497 939.9446460411889
633.0227081080176 -541.4414244313951 937.3480024836663
513.1216296243623 -495.4599089525899 857.7473754534861
435.17613018891353 -467.1748675831811 808.7779255950747
452.8434051788071 -533.9758595340537 924.4175946862384
541.5703708532894 -694.5425807460635 1202.3769178153814
551.338107559409 -762.7291109777922 1320.4016570362216
526.4999981351981 -780.2824834999708 1350.7678467988862
466.74071449794883 -736.6425036169418 1275.1994394135431
433.43212418462804 -724.8319619927028 1255.1848707041138
398.53315173132864 -703.0934703180362 1217.5621190906027
380.4528651784866 -705.2469432210759 1221.28912761379
343.72363615126267 -667.1363196874295 1155.2883376423124
313.17845147796174 -634.4423302748057 1098.6666261749508
302.6059291770885 -638.0214893430176 1104.8584351788286
294.23643333173874 -644.0009933756039 1115.2059842188605
275.34202733932744 -624.1158230265191 1080.76367945612
267.6967184069541 -627.0340307666295 1085.809188939536
264.08509940093785 -637.9278749029479 1104.665456452934
230.6444302035276 -573.5047255554623 993.1000343954667
236.17931570363265 -603.4538545643269 1044.9534403154876
235.5011894905919 -617.297193843218 1068.9175366670406
221.79488016343646 -595.506383243425 1031.177816030678
211.26530494629827 -580.1911941414317 1004.6523009248209
199.40975014654828 -559.3810081089347 968.6127434667245
201.53326333341667 -576.7260856848123 998.6428287773426
195.71093884857527 -570.6537529365222 988.1246424889359
187.31759113398712 -555.8678762073183 962.5192351385602
193.36745968523277 -583.3615354652269 1010.124113165486
189.18475723271388 -579.6301842811504 1003.6617038276182
193.76046056890686 -602.2969620558383 1042.9097437155867
190.78097106094128 -601.1055573667844 1040.8466234589612
187.64901202960607 -598.741313396809 1036.7531786414831
185.51116801765215 -598.912365831973 1037.050146276223
178.42450137492142 -582.3517878336968 1008.3756445086522
172.26383831501784 -567.9539574293619 983.446225277793
164.57984241383426 -547.7039289266557 948.383388640728
153.60723580519198 -515.5890765367932 892.7757282827383
140.47327241544895 -475.21521142330977 822.8668587113875
123.98320442003273 -422.4291693025007 731.4652557168622
111.36221055665217 -381.87409814817784 661.2421987959381
100.93191130390223 -348.1010624396042 602.7625179955502
88.974067141128 -308.42062177406365 534.0535248452418
78.65173707701612 -273.84490117581726 474.18354015320875
68.19290178316919 -238.32470770558263 412.67795436773065
122.1793916029206 -17.86913135939883 30.929540378089257
93.35725093905 -25.210865575561062 43.64352219832793
40.81246169335938 -15.982103388730977 27.6679797532614
881.1052345891069 -450.16536329489304 779.3228684603453
806.7581783861027 -506.6255478525895 877.0661999998102
730.9553285407621 -542.9446566255497 939.9446460411889
633.0227081080176 -541.4414244313951 937.3480024836663
513.1216296243623 -495.4599089525899 857.7473754534861
435.17613018891353 -467.1748675831811 808.7779255950747
452.8434051788071 -533.9758595340537 924.4175946862384
541.5703708532894 -694.5425807460635 1202.3769178153814
551.338107559409 -762.7291109777922 1320.4016570362216
526.4999981351981 -780.2824834999708 1350.7678467988862
466.74071449794883 -736.6425036169418 1275.1994394135431
433.43212418462804 -724.8319619927028 1255.1848707041138
398.53315173132864 -703.0934703180362 1217.5621190906027
380.4528651784866 -705.2469432210759 1221.28912761379
343.72363615126267 -667.1363196874295 1155.2883376423124
313.17845147796174 -634.4423302748057 1098.6666261749508
302.6059291770885 -638.0214893430176 1104.8584351788286
294.23643333173874 -644.0009933756039 1115.2059842188605
275.34202733932744 -624.1158230265191 1080.76367945612
267.6967184069541 -627.0340307666295 1085.809188939536
264.08509940093785 -637.9278749029479 1104.665456452934
230.6444302035276 -573.5047255554623 993.1000343954667
236.17931570363265 -603.4538545643269 1044.9534403154876
235.5011894905919 -617.297193843218 1068.9175366670406
221.79488016343646 -595.506383243425 1031.177816030678
211.26530494629827 -580.1911941414317 1004.6523009248209
199.40975014654828 -559.3810081089347 968.6127434667245
201.53326333341667 -576.7260856848123 998.6428287773426
195.71093884857527 -570.6537529365222 988.1246424889359
187.31759113398712 -555.8678762073183 962.5192351385602
193.36745968523277 -583.3615354652269 1010.124113165486
189.18475723271388 -579.6301842811504 1003.6617038276182
193.76046056890686 -602.2969620558383 1042.9097437155867
190.78097106094128 -601.1055573667844 1040.8466234589612
187.64901202960607 -598.741313396809 1036.7531786414831
185.51116801765215 -598.912365831973 1037.050146276223
178.42450137492142 -582.3517878336968 1008.3756445086522
172.26383831501784 -567.9539574293619 983.446225277793
164.57984241383426 -547.7039289266557 948.383388640728
153.60723580519198 -515.5890765367932 892.7757282827383
140.47327241544895 -475.21521142330977 822.8668587113875
123.98320442003273 -422.4291693025007 731.4652557168622
111.36221055665217 -381.87409814817784 661.2421987959381
100.93191130390223 -348.1010624396042 602.7625179955502
88.974067141128 -308.42062177406365 534.0535248452418
78.65173707701612 -273.84490117581726 474.18354015320875
68.19290178316919 -238.32470770558263 412.67795436773065

VECTORS L float
22.838475189760736 39.06782321378586 -67.64675172388411
76.80994374334114 71.14590663955853 -123.20534716893432
129.2584735774686 82.55668097754831 -142.97853062952942
829.2610478025478 406.0947617602152 -702.9903474821605
911.5012266248056 363.1953750980619 -628.6378534505869
1072.262250614509 361.22503651240663 -625.1970312731098
1250.4250566725507 365.8123757821275 -633.1495669381482
1295.1721841815647 335.6362187670464 -580.9246237989774
1318.6983876510974 307.3756490571196 -531.9975600981344
1501.9620044764342 318.7533947619124 -551.6413507706865
1940.8556387195815 378.7515506565088 -655.41080912576
2205.7141744772925 399.05059689817887 -690.4919930291777
2299.812445633997 388.4203347510709 -672.0426956026782
2227.9360715867488 353.3582518201399 -611.331641560459
2368.8557029910244 354.29790012733724 -613.4010496184305
2454.6249163598077 347.98744144518685 -602.5004350088063
2596.3705498031286 350.3117371041986 -606.5233172244264
2585.5134092630724 333.17516068595495 -576.8506424971697
2570.3913610809277 317.3469539407279 -549.4413235191539
2715.8638584177875 322.17344063680656 -557.7935673481811
2825.711244609989 322.9122138755973 -559.0639043845683
2894.607089538005 319.4093216242223 -552.996537630784
3001.9276865776023 320.5604507614353 -554.981377193014
3122.2224424080246 323.297503213462 -559.7096670824636
2899.2805585602837 291.6547150445046 -504.92149607666545
3138.451376780484 307.25060225399136 -531.9143579468423
3299.983413034381 314.91721084529075 -545.1800429228168
3290.863120317175 306.59520324275866 -530.7689733948462
3298.1217310822954 300.41298971473196 -520.062236007385
3255.0258358427877 290.2635709414764 -502.4876690899616
3425.211191850751 299.4111266194205 -518.3192299772003
3456.525257053273 296.54377174106565 -513.3522281966551
3440.774796429169 290.0492967523439 -502.10794992675966
3663.668123780455 303.7893989409737 -525.8909683248966
3709.9706232950266 302.91247886134346 -524.3725786866341
3888.4534434620455 312.92816425815903 -541.7082838048805
3939.3140323359544 312.76492484982737 -541.4259980530449
3978.799753629378 311.9404491640953 -539.999510135759
3987.271278522034 308.95567773983737 -534.8304305062419
3969.8460847553333 304.2657570713156 -526.7165103530458
3921.7580264041826 297.55717147435917 -515.1052538004011
3822.3177250487674 287.3192238635298 -497.3838499575566
3632.9878092233225 270.7556723961758 -468.71183292114455
3379.1925501672104 249.87367112038083 -432.5638618508844
3029.4391031852006 222.42003891155807 -385.0392799020808
2759.205440778778 201.28110802141026 -348.44596440559167
2529.0858994514388 183.43700541502147 -317.55600504855386
2253.9090132591054 162.65051740370325 -281.57229785115925
1983.2512121491964 142.48913702891397 -246.6686827837378
1733.1970961776312 124.05592556474754 -214.75861798078492
22.838475189760736 39.06782321378586 -67.64675172388411
76.80994374334114 71.14590663955853 -123.20534716893432
129.2584735774686 82.55668097754831 -142.97853062952942