# vtk DataFile Version 4.0
[MyVLM domain - lattices] 
ASCII
DATASET UNSTRUCTURED_GRID
POINTS 152 float
0.0 -2.2873604333827884 -0.392384273751196
0.0 -4.035362893229196 1.0035917094783986
0.0 -5.7923921982421 2.324906901731567
0.0 -7.522719304763196 3.614141519148053
0.0 -9.226024317825242 4.871676797704318
0.0 -10.878994343947237 6.125295961960108
0.0 -12.46172738809294 7.398717285999662
0.0 -13.969180588013264 8.697950619025283
0.0 -15.432468128389695 9.985915519662171
0.0 -16.864177496938684 11.247610804202509
0.0 -18.264191090025232 12.483176627200809
0.0 -19.632254077272982 13.692916683673596
0.0 -20.96810287175334 14.877145104289983
0.0 -22.269605953526128 16.038402135596378
0.0 -23.538176562073083 17.175003544363204
0.0 -24.776909873819992 18.28326064296532
0.0 -25.98626577302934 19.362625362680735
0.0 -27.16549214529486 20.413994038555167
0.0 -28.314047047803793 21.438012532882695
0.0 -29.43193031858799 22.43468103868944
0.0 -30.51914180000487 23.403999743846523
0.0 -31.57568133873739 24.34596883107007
0.0 -32.60154878579408 25.26058847792121
0.0 -33.596743996509026 26.147858856806046
0.0 -34.561266830541875 27.007780134975725
0.0 -35.49511715187785 27.840352474526348
0.0 -36.39829482882768 28.645576032399042
0.0 -37.27079973402771 29.423450960379938
0.0 -38.11263193537932 30.1739771775473
0.0 -38.923793936826634 30.89715169981673
0.0 -39.70428614079783 31.592974047593007
0.0 -40.45410803899264 32.26144482664478
0.0 -41.17325914308769 32.90256461893321
0.0 -41.86173898473644 33.51633398261195
0.0 -42.519547115569246 34.102753452027144
0.0 -43.146683107193304 34.66182353771745
0.0 -43.74287947427058 35.19386301629543
0.0 -44.30728785562882 35.69988292523596
0.0 -44.83860996410879 36.18143050292526
0.0 -45.336168489070516 36.63931293675183
0.0 -45.80035095915659 37.073068388063604
0.0 -46.23095585096807 37.48293702309528
0.0 -46.62034534271947 37.87802124339931
0.0 -46.96869059339944 38.25811706963606
0.0 -47.28175651456054 38.616354147751764
0.0 -47.56347448126432 38.948047247393006
0.0 -47.8148470074064 39.25200161902304
0.0 -48.03493468512255 39.52933680533899
0.0 -48.2245773545782 39.77905192380649
0.0 -48.385429754688616 39.99917493337846
0.0 -48.51892434600731 40.187998694044026
-0.8152906147965383 -0.0718139682377974 2.248001185644754
-0.840508508576773 -1.7515086461423517 3.7253832134056943
-0.8937965186568912 -3.3630439440152737 5.220091411368865
-0.9506477078523391 -4.937805845749722 6.694721420472494
-1.020681877210228 -6.476442082890746 8.148501304320726
-1.048954977401727 -7.998837013061895 9.557733808279272
-0.9930987765444168 -9.518992968473087 10.905731602632265
-0.9074282632528687 -11.049364217873581 12.177652267854642
-0.838943182597301 -12.563726866249805 13.40474822504064
-0.780438039247949 -14.049592257758992 14.601902874657549
-0.7250391551380654 -15.504394302185503 15.772174363938776
-0.6716005320170477 -16.928327091279918 16.915331383343272
-0.6190912009117757 -18.32185792897033 18.030817021735906
-0.5668551203523576 -19.687255622547028 19.115927419877575
-0.5160737545272154 -21.023181516462202 20.172257925326615
-0.46824322159258064 -22.32642105780597 21.20363949306197
-0.4244759216876314 -23.596514596337723 22.210619912909213
-0.3845740908079094 -24.834209914689332 23.192308012230356
-0.34771109645469384 -26.03999022465859 24.148127921629378
-0.3130568676883623 -27.213775680553876 25.078174797496114
-0.28047282351476527 -28.355539605635315 25.98248043193116
-0.25028172479700606 -29.465280286001416 26.861046867482777
-0.22269967179244904 -30.54298537806999 27.71388881465938
-0.19756508903558764 -31.588623962037623 28.541043122247753
-0.17527331282135344 -32.60218894702439 29.342518240829563
-0.15618952887338375 -33.58366777955271 30.118329131056775
-0.13996799493970205 -34.533023842180285 30.868519431897823
-0.12575834684109707 -35.45021277266997 31.5931420122082
-0.11252036551224441 -36.335195393637335 32.292243561776544
-0.10008619772204906 -37.18796538291194 32.96583161507218
-0.0884564051429673 -38.00851988887424 33.613909570522964
-0.07764813403823374 -38.79685558565371 34.23648139174703
-0.06766754153321136 -39.55296877589224 34.833551485084186
-0.05846867713071129 -40.276854918974976 35.405125261828495
-0.05000632361003568 -40.96850987322632 35.95120765783675
-0.0422455662862189 -41.62792998858995 36.47180302307666
-0.03513713503927796 -42.25530838271612 36.96668120889475
-0.028610254341892315 -42.8512685236416 37.43509919501835
-0.02259956362415257 -43.41774056576875 37.87475671300418
-0.017476911002663225 -43.95572380013051 38.28446285417368
-0.013355710955940858 -44.463410956204925 38.66637143966417
-0.010110762084772787 -44.94085236281634 39.02042248991843
-0.007505342360435571 -45.39737744952603 39.33549762373996
-0.005475063785670375 -45.8330684363909 39.61149885508056
-0.003985447751437076 -46.24089972989265 39.85679896025579
-0.0029419419370193198 -46.61625171457481 40.07690338258226
-0.00222865752783443 -46.958386636055465 40.2726913434951
-0.0017402354220029323 -47.269201677486286 40.44190186815748
-0.0014049497009942318 -47.54805989106461 40.58529404140153
-0.0011720086804816246 -47.793129696277454 40.705050655883724
-0.0010052173229800666 -48.00282557016676 40.803061264285475
-0.6209246712649916 -1.474086396219054 2.316420079109819
-0.6503643852126241 -3.146426607743021 3.770615310691705
-0.6916665849409614 -4.777207609037535 5.210435864550462
-0.7392485943984627 -6.37393592606373 6.626935811404004
-0.7761138204794831 -7.941356993703801 8.014459762183053
-0.765770157729804 -9.486776459580641 9.364301185086799
-0.7126976399239822 -11.016997441893274 10.668352439560708
-0.6548892921938138 -12.53011524609664 11.928883452171661
-0.6072679581919687 -14.017075374669346 13.156684952869906
-0.5645539478947554 -15.473791033349672 14.356627393399036
-0.5237398826831674 -16.899326168461812 15.52982631909007
-0.4840093998483088 -18.293864001222136 16.67606337540014
-0.44472987047405005 -19.65813118497894 17.794472570590848
-0.40609832807983987 -20.99238674157836 18.88474521444652
-0.3691188660449235 -22.295486769837197 19.94824455531178
-0.33476967873007946 -23.56649782616005 20.98608302794495
-0.3033937546858278 -24.80549143142567 21.998175397081823
-0.27460694522347623 -26.0127674513928 22.98416429662713
-0.24778798655364606 -27.18840938525365 23.943950216118576
-0.22257363420117282 -28.332377247145054 24.877580808852223
-0.19903295561691423 -29.44466035170656 25.785068809144803
-0.17736802372104568 -30.52525338959321 26.666420544427215
-0.15759928531051376 -31.574140100328247 27.52165539318108
-0.1398144006963529 -32.59130619427962 28.350790385126714
-0.12429856563552642 -33.576744270268875 29.153834340645137
-0.11105907142990716 -34.53043585573806 29.930809274473646
-0.09964737816779967 -35.452350550925765 30.681751415637127
-0.08935451713250306 -36.34245702104111 31.406698107485177
-0.07972746121286005 -37.20073852523171 32.10566930098877
-0.07070347607438114 -38.02719198662287 32.77866866302439
-0.062289202192950394 -38.82181507542178 33.425698970130966
-0.054493378339291916 -39.58460503333976 34.04676350950895
-0.047301081998971 -40.31555865155321 34.6418661052854
-0.040678125277780114 -41.01467255961369 35.211010774204354
-0.03459445871109547 -41.68194372602642 35.7542011290606
-0.029018512997061326 -42.317409711922764 36.271392406240885
-0.023905271017938854 -42.921237256121564 36.76238589415883
-0.01920368173726683 -43.49411563599608 37.226360144028604
-0.015028677985055923 -44.03689644385963 37.66230026765133
-0.01156223323447653 -44.54924046465417 38.070610525791125
-0.008799927390267616 -45.03051209589856 38.452048399988335
-0.006606039166953134 -45.483248828839336 38.80358982593372
-0.00486765230478973 -45.91004669923372 39.12214096868711
-0.003547691826415294 -46.30904395085133 39.409920582924606
-0.0025977711331711486 -46.6770856661534 39.67068855295736
-0.001938974799320156 -47.01277956757019 39.906104130581014
-0.0014883348561890108 -47.316568329144275 40.11563975741497
-0.0011794444211239365 -47.58891209316918 40.298747057227814
-0.0009663593930534462 -47.82919698391163 40.456157618630094
-0.0008164597512981341 -48.03652748750358 40.58893867349126

CELLS 100 350
4 0 51 52 1
4 1 52 53 2
4 2 53 54 3
4 3 54 55 4
4 4 55 56 5
4 5 56 57 6
4 6 57 58 7
4 7 58 59 8
4 8 59 60 9
4 9 60 61 10
4 10 61 62 11
4 11 62 63 12
4 12 63 64 13
4 13 64 65 14
4 14 65 66 15
4 15 66 67 16
4 16 67 68 17
4 17 68 69 18
4 18 69 70 19
4 19 70 71 20
4 20 71 72 21
4 21 72 73 22
4 22 73 74 23
4 23 74 75 24
4 24 75 76 25
4 25 76 77 26
4 26 77 78 27
4 27 78 79 28
4 28 79 80 29
4 29 80 81 30
4 30 81 82 31
4 31 82 83 32
4 32 83 84 33
4 33 84 85 34
4 34 85 86 35
4 35 86 87 36
4 36 87 88 37
4 37 88 89 38
4 38 89 90 39
4 39 90 91 40
4 40 91 92 41
4 41 92 93 42
4 42 93 94 43
4 43 94 95 44
4 44 95 96 45
4 45 96 97 46
4 46 97 98 47
4 47 98 99 48
4 48 99 100 49
4 49 100 101 50
1 102
1 103
1 104
1 105
1 106
1 107
1 108
1 109
1 110
1 111
1 112
1 113
1 114
1 115
1 116
1 117
1 118
1 119
1 120
1 121
1 122
1 123
1 124
1 125
1 126
1 127
1 128
1 129
1 130
1 131
1 132
1 133
1 134
1 135
1 136
1 137
1 138
1 139
1 140
1 141
1 142
1 143
1 144
1 145
1 146
1 147
1 148
1 149
1 150
1 151

CELL_TYPES 100
9
9
9
9
9
9
9
9
9
9
9
9
9
9
9
9
9
9
9
9
9
9
9
9
9
9
9
9
9
9
9
9
9
9
9
9
9
9
9
9
9
9
9
9
9
9
9
9
9
9
1
1
1
1
1
1
1
1
1
1
1
1
1
1
1
1
1
1
1
1
1
1
1
1
1
1
1
1
1
1
1
1
1
1
1
1
1
1
1
1
1
1
1
1
1
1
1
1
1
1

CELL_DATA 100

VECTORS S float
-0.0 -0.0 0.0
-4.1794286381854e-17 -4.616970181661888e-15 5.4008274841375544e-15
-0.0 -0.0 0.0
8.2741953955564e-19 -2.3262195954594194e-15 2.685232986653804e-15
0.0 -0.0 0.0
0.0 -0.0 0.0
0.0 -0.0 0.0
0.0 -0.0 0.0
0.0 -0.0 0.0
0.0 -0.0 0.0
-1.907897433122269e-16 3.714027877199432e-14 -4.3031820317035847e-14
-1.9840645624415858e-16 3.7132361627229604e-14 -4.303861780596621e-14
1.9453910401132367e-16 -3.7122882774407985e-14 4.304681169192253e-14
1.8489867742908626e-16 -3.711318186042757e-14 4.305521817920773e-14
-8.30928926765905e-17 1.8545125263703532e-14 -2.153752519374145e-14
0.0 -0.0 0.0
-1.4551361402198998e-16 3.7065912207969645e-14 -4.309606995729989e-14
0.0 -0.0 0.0
6.397083339968099e-17 -1.8524976120281216e-14 2.155492367005276e-14
0.0 -0.0 0.0
0.0 -0.0 0.0
-1.0711101811221828e-16 3.7029705857385684e-14 -4.3127296218642773e-14
5.2265673481455575e-17 -1.8512114115519503e-14 2.1566002555403614e-14
-5.0825816955210156e-17 1.8510339824812563e-14 -2.1567528909279453e-14
-4.8533409619044986e-17 1.8507385099801884e-14 -2.1570069731507546e-14
0.0 -0.0 0.0
0.0 -0.0 0.0
4.3253548993463216e-17 -1.8498703075137562e-14 2.1577527212697743e-14
4.2196816842503837e-17 -1.8495892106296405e-14 2.157993886847705e-14
0.0 -0.0 0.0
-3.9726128666438036e-17 1.848893629081618e-14 -2.1585903354160503e-14
0.0 -0.0 0.0
-3.711034555046436e-17 1.8483780750557437e-14 -2.159032280754254e-14
-3.626918766974688e-17 1.848123973577072e-14 -2.15924993764342e-14
3.52357167731495e-17 -1.847867825823057e-14 2.1594693218922476e-14
0.0 -0.0 0.0
0.0 -0.0 0.0
6.72036022490176e-17 -3.6942414699515806e-14 4.320217295032864e-14
3.3731971839166577e-17 -1.8468932897015258e-14 2.160303096201872e-14
0.0 -0.0 0.0
3.146293381268428e-17 -1.846428505770783e-14 2.1607007065714103e-14
0.0 -0.0 0.0
3.027860200637823e-17 -1.846007409781552e-14 2.1610606526789966e-14
-2.973496649591986e-17 1.8458123788603182e-14 -2.161227311003368e-14
-2.9090784041608137e-17 1.8456283199464835e-14 -2.1613845820069872e-14
0.0 -0.0 0.0
2.832573895638708e-17 -1.845306171124483e-14 2.1616597282639532e-14
0.0 -0.0 0.0
2.855370071163256e-17 -1.845053494283754e-14 2.161875370958333e-14
0.0 -0.0 0.0
-0.0 -0.0 0.0
-4.1794286381854e-17 -4.616970181661888e-15 5.4008274841375544e-15
-0.0 -0.0 0.0
8.2741953955564e-19 -2.3262195954594194e-15 2.685232986653804e-15
0.0 -0.0 0.0
0.0 -0.0 0.0
0.0 -0.0 0.0
0.0 -0.0 0.0
0.0 -0.0 0.0
0.0 -0.0 0.0
-1.907897433122269e-16 3.714027877199432e-14 -4.3031820317035847e-14
-1.9840645624415858e-16 3.7132361627229604e-14 -4.303861780596621e-14
1.9453910401132367e-16 -3.7122882774407985e-14 4.304681169192253e-14
1.8489867742908626e-16 -3.711318186042757e-14 4.305521817920773e-14
-8.30928926765905e-17 1.8545125263703532e-14 -2.153752519374145e-14
0.0 -0.0 0.0
-1.4551361402198998e-16 3.7065912207969645e-14 -4.309606995729989e-14
0.0 -0.0 0.0
6.397083339968099e-17 -1.8524976120281216e-14 2.155492367005276e-14
0.0 -0.0 0.0
0.0 -0.0 0.0
-1.0711101811221828e-16 3.7029705857385684e-14 -4.3127296218642773e-14
5.2265673481455575e-17 -1.8512114115519503e-14 2.1566002555403614e-14
-5.0825816955210156e-17 1.8510339824812563e-14 -2.1567528909279453e-14
-4.8533409619044986e-17 1.8507385099801884e-14 -2.1570069731507546e-14
0.0 -0.0 0.0
0.0 -0.0 0.0
4.3253548993463216e-17 -1.8498703075137562e-14 2.1577527212697743e-14
4.2196816842503837e-17 -1.8495892106296405e-14 2.157993886847705e-14
0.0 -0.0 0.0
-3.9726128666438036e-17 1.848893629081618e-14 -2.1585903354160503e-14
0.0 -0.0 0.0
-3.711034555046436e-17 1.8483780750557437e-14 -2.159032280754254e-14
-3.626918766974688e-17 1.848123973577072e-14 -2.15924993764342e-14
3.52357167731495e-17 -1.847867825823057e-14 2.1594693218922476e-14
0.0 -0.0 0.0
0.0 -0.0 0.0
6.72036022490176e-17 -3.6942414699515806e-14 4.320217295032864e-14
3.3731971839166577e-17 -1.8468932897015258e-14 2.160303096201872e-14
0.0 -0.0 0.0
3.146293381268428e-17 -1.846428505770783e-14 2.1607007065714103e-14
0.0 -0.0 0.0
3.027860200637823e-17 -1.846007409781552e-14 2.1610606526789966e-14
-2.973496649591986e-17 1.8458123788603182e-14 -2.161227311003368e-14
-2.9090784041608137e-17 1.8456283199464835e-14 -2.1613845820069872e-14
0.0 -0.0 0.0
2.832573895638708e-17 -1.845306171124483e-14 2.1616597282639532e-14
0.0 -0.0 0.0
2.855370071163256e-17 -1.845053494283754e-14 2.161875370958333e-14
0.0 -0.0 0.0

SCALARS Gamma float
LOOKUP_TABLE default
-0.0
-0.0
-0.0
49.10895468768583
53.5645913228939
52.95329135843489
51.403100112511176
47.851849297897246
44.724172395543846
46.50123867562158
51.39670859632349
53.08118917206098
49.54317061693071
44.43558960886022
42.749734199915956
41.38539386789554
41.369229543935596
36.201392890318026
32.21543524195297
34.02315877097702
34.74070855948586
34.12134581295913
35.22090540052569
36.88059737142491
34.64635531374273
36.79720115890891
38.223516608304735
37.39582446205232
36.64075326824882
35.609606974391674
37.160173560951975
37.014759195509264
37.002776912904224
39.03139043378351
39.155194860916026
41.21968221317028
41.476683364344744
41.57102608065948
41.45061682038602
40.9785950255595
40.23293688982301
38.98113912714207
36.84060014360532
34.08253437355922
30.09124320418885
27.265629347869353
24.924434569129453
22.131389316932662
19.431743081837705
16.93513926463529
-0.0
-0.0
-0.0
49.10895468768583
53.5645913228939
52.95329135843489
51.403100112511176
47.851849297897246
44.724172395543846
46.50123867562158
51.39670859632349
53.08118917206098
49.54317061693071
44.43558960886022
42.749734199915956
41.38539386789554
41.369229543935596
36.201392890318026
32.21543524195297
34.02315877097702
34.74070855948586
34.12134581295913
35.22090540052569
36.88059737142491
34.64635531374273
36.79720115890891
38.223516608304735
37.39582446205232
36.64075326824882
35.609606974391674
37.160173560951975
37.014759195509264
37.002776912904224
39.03139043378351
39.155194860916026
41.21968221317028
41.476683364344744
41.57102608065948
41.45061682038602
40.9785950255595
40.23293688982301
38.98113912714207
36.84060014360532
34.08253437355922
30.09124320418885
27.265629347869353
24.924434569129453
22.131389316932662
19.431743081837705
16.93513926463529

VECTORS Ftot float
112.33507512162417 -29.857931709176885 -25.053779484886782
135.62781502528102 -66.57989323109582 -55.867163854035276
139.35272784259337 -99.12972481368143 -83.17971552986549
1201.3302024187644 13.608741641541883 11.419090092204703
1260.4068645860932 165.03704217089177 138.48252121618472
1341.084648659107 207.56542235997173 174.1680693474089
1435.0161115535807 207.06532905006702 173.74844123551367
1453.758484952777 215.58017266316085 180.89324337079293
1468.7253498755585 226.7635197251673 190.27718576585008
1632.9916625656203 282.9958205216805 237.4616886244543
1927.7061889139804 356.2807614250757 298.955055507342
2117.9111214553136 412.5044214905766 346.1323079317406
2101.69238319733 407.91541346143396 342.2816729870175
1999.2870904015263 375.08013335929263 314.729601563708
2035.442683349707 357.5736069953531 300.039881748531
2075.5260125524364 343.24278134237017 288.01489122864706
2174.441488784021 350.0058726287363 293.6897986326552
1990.6065123629746 301.8927457362091 253.31809160234985
1846.1154870480523 269.47675520234696 226.1178459011399
2026.9609442349247 283.7316106593745 238.07908985761713
2146.515856045945 288.4294683151487 242.02106048390064
2182.6249887706986 277.78172468446803 233.08654273052628
2324.710963807256 292.01081782618627 245.0261695377292
2508.129736369774 308.6372043107176 258.97736430471036
2424.12979409772 288.3980700583294 241.99471421818396
2642.6090739754954 312.6318127088397 262.3292387382723
2815.8332700574047 320.26080661108335 268.73072470789873
2821.374586280081 310.51398357456526 260.55216909280614
2826.010165931267 307.20457756671465 257.7752477322028
2805.922611742963 293.66736890158853 246.41618093412563
2984.711137856131 315.17012492490056 264.4591355825818
3029.3528715138273 311.9537710671257 261.7602942467872
3082.0330638600503 311.35339969361996 261.2565228487092
3304.6801671596663 330.20436068988965 277.0743572680164
3366.990199630257 330.8567032384059 277.6217376598776
3594.549382412849 357.7353135848605 300.1755696881456
3666.452754874813 360.59715546755405 302.5769401564014
3722.049253465707 361.73493520518565 303.5316507146091
3753.7856431051423 370.4174068464268 310.8171094664817
3754.058882966745 357.05566810631484 299.6052794177666
3723.674880794084 350.9256967532292 294.46162271626514
3642.133575413575 340.2278894578685 285.48509656032235
3472.224325628361 321.8829596617845 270.09187273445514
3238.0128597439025 297.8352254205588 249.91342780199332
2879.8781615228368 261.71344525676136 219.6036553890841
2626.6037529596992 237.14883088527097 198.9914965299544
2415.051552594625 217.45657173055628 182.46772913618582
2155.5360538853765 193.14549986347205 162.06831769899105
1900.1889092286588 174.8847905548046 146.74576325305264
1662.4162144156542 152.4728182993892 127.9398855995781
112.33507512162417 -29.857931709176885 -25.053779484886782
135.62781502528102 -66.57989323109582 -55.867163854035276
139.35272784259337 -99.12972481368143 -83.17971552986549
1201.3302024187644 13.608741641541883 11.419090092204703
1260.4068645860932 165.03704217089177 138.48252121618472
1341.084648659107 207.56542235997173 174.1680693474089
1435.0161115535807 207.06532905006702 173.74844123551367
1453.758484952777 215.58017266316085 180.89324337079293
1468.7253498755585 226.7635197251673 190.27718576585008
1632.9916625656203 282.9958205216805 237.4616886244543
1927.7061889139804 356.2807614250757 298.955055507342
2117.9111214553136 412.5044214905766 346.1323079317406
2101.69238319733 407.91541346143396 342.2816729870175
1999.2870904015263 375.08013335929263 314.729601563708
2035.442683349707 357.5736069953531 300.039881748531
2075.5260125524364 343.24278134237017 288.01489122864706
2174.441488784021 350.0058726287363 293.6897986326552
1990.6065123629746 301.8927457362091 253.31809160234985
1846.1154870480523 269.47675520234696 226.1178459011399
2026.9609442349247 283.7316106593745 238.07908985761713
2146.515856045945 288.4294683151487 242.02106048390064
2182.6249887706986 277.78172468446803 233.08654273052628
2324.710963807256 292.01081782618627 245.0261695377292
2508.129736369774 308.6372043107176 258.97736430471036
2424.12979409772 288.3980700583294 241.99471421818396
2642.6090739754954 312.6318127088397 262.3292387382723
2815.8332700574047 320.26080661108335 268.73072470789873
2821.374586280081 310.51398357456526 260.55216909280614
2826.010165931267 307.20457756671465 257.7752477322028
2805.922611742963 293.66736890158853 246.41618093412563
2984.711137856131 315.17012492490056 264.4591355825818
3029.3528715138273 311.9537710671257 261.7602942467872
3082.0330638600503 311.35339969361996 261.2565228487092
3304.6801671596663 330.20436068988965 277.0743572680164
3366.990199630257 330.8567032384059 277.6217376598776
3594.549382412849 357.7353135848605 300.1755696881456
3666.452754874813 360.59715546755405 302.5769401564014
3722.049253465707 361.73493520518565 303.5316507146091
3753.7856431051423 370.4174068464268 310.8171094664817
3754.058882966745 357.05566810631484 299.6052794177666
3723.674880794084 350.9256967532292 294.46162271626514
3642.133575413575 340.2278894578685 285.48509656032235
3472.224325628361 321.8829596617845 270.09187273445514
3238.0128597439025 297.8352254205588 249.91342780199332
2879.8781615228368 261.71344525676136 219.6036553890841
2626.6037529596992 237.14883088527097 198.9914965299544
2415.051552594625 217.45657173055628 182.46772913618582
2155.5360538853765 193.14549986347205 162.06831769899105
1900.1889092286588 174.8847905548046 146.74576325305264
1662.4162144156542 152.4728182993892 127.9398855995781

VECTORS D float
88.1886154086808 22.974340915704307 20.223364807557413
56.65671369731514 27.38441258639954 23.848372059605122
10.300875186648456 7.2261058396553866 6.2695697990958035
495.96713648057045 453.88725442184756 393.05008455929107
492.80882617409145 553.7323159694376 478.9244385482025
445.5709294481831 591.3342688529358 510.9505691488976
390.9310372141528 596.697567076207 514.916020883357
340.62512252632973 584.918965613115 504.3409495105932
302.3858095752291 575.7370450353912 496.1609011543814
309.04750963848846 644.3716729538664 555.0773742134116
334.9194705188808 757.0261272822354 651.8957831311941
340.7923447590659 828.1085366947025 712.8948793855449
308.6517204023824 800.658484459547 689.0802144437172
266.2254831627224 732.8696792775546 630.5832857304545
243.34052494488154 708.0620596157829 608.7458797604736
224.89139769676132 687.7788553471821 591.182269311299
218.0757381498211 698.1725799025227 599.7454196983409
182.7451537596431 610.4384984078476 524.2420055546751
157.32896684523274 546.6663924106226 469.35528767823746
160.6767652575157 579.1502210763647 497.12308682550906
158.88889264505147 592.6120337914817 508.558136175482
150.4183704360618 579.1893462004535 496.926576432817
152.4632015963768 604.7934468134953 518.7812012483479
156.5323558571638 638.1522501321076 547.3255269391967
143.40066942174008 599.9401153562742 514.4333405691734
150.48793288671482 644.9794484769321 552.9239364916692
152.32198838713217 667.713145976757 572.2773289879351
145.7436049180177 652.4352405384872 559.0493175336125
141.01932372867418 643.760010322587 551.4828007267696
134.11091556660796 622.9965887667881 533.4864908186726
139.69096721229442 659.9917968947169 565.0445433667628
136.91885798010588 657.165557978574 562.5015996259887
135.11036880479259 658.0608405201212 563.1429605109997
141.2568722763955 697.4409998068771 596.709571335601
140.16050736022478 700.853096957149 599.4945192215829
147.90785525752747 748.3507259097643 639.9799892294758
147.6338243657312 755.1717391133423 645.6702280330001
146.67635116417844 758.4472002786113 648.3241908553847
146.9430733066505 766.9432165395001 655.4481242642797
142.62474532979718 750.8565462127277 641.5675609761835
139.2171235357748 738.7824671850925 631.1244240872907
134.14795357001782 717.1280600267332 612.507211988575
126.17269545459247 679.0549176643573 579.8811684533387
116.1740367484739 629.1043141118896 537.1314167477248
101.90364282225259 554.9223228120161 473.7166708735188
91.97363626072921 503.3802353586338 429.6516588404315
83.89760261543854 461.253528766815 393.6402782553805
74.27483014203561 409.97827849793845 349.83730144404177
65.95352579271734 365.31008264426555 311.6869417211377
57.35700775138118 318.63468348774916 271.83675981936443
88.1886154086808 22.974340915704307 20.223364807557413
56.65671369731514 27.38441258639954 23.848372059605122
10.300875186648456 7.2261058396553866 6.2695697990958035
495.96713648057045 453.88725442184756 393.05008455929107
492.80882617409145 553.7323159694376 478.9244385482025
445.5709294481831 591.3342688529358 510.9505691488976
390.9310372141528 596.697567076207 514.916020883357
340.62512252632973 584.918965613115 504.3409495105932
302.3858095752291 575.7370450353912 496.1609011543814
309.04750963848846 644.3716729538664 555.0773742134116
334.9194705188808 757.0261272822354 651.8957831311941
340.7923447590659 828.1085366947025 712.8948793855449
308.6517204023824 800.658484459547 689.0802144437172
266.2254831627224 732.8696792775546 630.5832857304545
243.34052494488154 708.0620596157829 608.7458797604736
224.89139769676132 687.7788553471821 591.182269311299
218.0757381498211 698.1725799025227 599.7454196983409
182.7451537596431 610.4384984078476 524.2420055546751
157.32896684523274 546.6663924106226 469.35528767823746
160.6767652575157 579.1502210763647 497.12308682550906
158.88889264505147 592.6120337914817 508.558136175482
150.4183704360618 579.1893462004535 496.926576432817
152.4632015963768 604.7934468134953 518.7812012483479
156.5323558571638 638.1522501321076 547.3255269391967
143.40066942174008 599.9401153562742 514.4333405691734
150.48793288671482 644.9794484769321 552.9239364916692
152.32198838713217 667.713145976757 572.2773289879351
145.7436049180177 652.4352405384872 559.0493175336125
141.01932372867418 643.760010322587 551.4828007267696
134.11091556660796 622.9965887667881 533.4864908186726
139.69096721229442 659.9917968947169 565.0445433667628
136.91885798010588 657.165557978574 562.5015996259887
135.11036880479259 658.0608405201212 563.1429605109997
141.2568722763955 697.4409998068771 596.709571335601
140.16050736022478 700.853096957149 599.4945192215829
147.90785525752747 748.3507259097643 639.9799892294758
147.6338243657312 755.1717391133423 645.6702280330001
146.67635116417844 758.4472002786113 648.3241908553847
146.9430733066505 766.9432165395001 655.4481242642797
142.62474532979718 750.8565462127277 641.5675609761835
139.2171235357748 738.7824671850925 631.1244240872907
134.14795357001782 717.1280600267332 612.507211988575
126.17269545459247 679.0549176643573 579.8811684533387
116.1740367484739 629.1043141118896 537.1314167477248
101.90364282225259 554.9223228120161 473.7166708735188
91.97363626072921 503.3802353586338 429.6516588404315
83.89760261543854 461.253528766815 393.6402782553805
74.27483014203561 409.97827849793845 349.83730144404177
65.95352579271734 365.31008264426555 311.6869417211377
57.35700775138118 318.63468348774916 271.83675981936443

VECTORS L float
24.146459712943372 -52.83227262488119 -45.27714429244422
78.9711013279659 -93.96430581749536 -79.71553591364042
129.0518526559449 -106.35583065333681 -89.44928532896128
705.363065938194 -440.27851278030573 -381.63099446708634
767.5980384120018 -388.69527379854594 -340.4419173320179
895.5137192109239 -383.7688464929641 -336.78249980148877
1044.085074339428 -389.63223802613993 -341.16757964784335
1113.133362426447 -369.3387929499543 -323.44770613980046
1166.3395403003296 -348.973525310224 -305.8837153885313
1323.9441529271319 -361.3758524321859 -317.61568558895743
1592.7867183950998 -400.74536585715964 -352.94072762385196
1777.1187766962482 -415.60411520412583 -366.7625714538041
1793.0406627949478 -392.7430709981132 -346.7985414566998
1733.061607238804 -357.7895459182621 -315.8536841667466
1792.102158404826 -350.48845262043005 -308.7059980119427
1850.6346148556752 -344.53607400481195 -303.167378082652
1956.3657506342004 -348.16670727378647 -306.0556210656858
1807.861358603332 -308.5457526716384 -270.92391395232517
1688.7865202028192 -277.1896372082755 -243.23744177709747
1866.2841789774088 -295.4186104169902 -259.04399696789187
1987.6269634008936 -304.182565476333 -266.53707569158144
2032.2066183346371 -301.40762151598557 -263.84003370229084
2172.2477622108795 -312.78262898730907 -273.7550317106187
2351.59738051261 -329.5150458213901 -288.34816263448647
2280.7291246759796 -311.54204529794475 -272.4386263509894
2492.121141088781 -332.3476357680924 -290.5946977533969
2663.5112816702726 -347.4523393656738 -303.54660428003655
2675.6309813620637 -341.92125696392213 -298.4971484408064
2684.9908422025933 -336.55543275587246 -293.70755299456675
2671.8116961763553 -329.3292198651996 -287.0703098845469
2845.0201706438365 -344.8216719698163 -300.5854077841811
2892.434013533722 -345.2117869114483 -300.7413053792015
2946.9226950552584 -346.7074408265012 -301.8864376622906
3163.4232948832714 -367.2366391169875 -319.63521406758457
3226.8296922700324 -369.9963937187431 -321.87278156170527
3446.641527155322 -390.61541232490407 -339.80441954133045
3518.8189305090827 -394.57458364578815 -343.09328787659865
3575.3729023015294 -396.71226507342556 -344.79254014077554
3606.8425697984917 -396.5258096930734 -344.6310147977982
3611.434137636948 -393.80087810641317 -341.96228155841715
3584.4577572583103 -387.85677043186325 -336.66280137102547
3507.985621843558 -376.90017056886467 -327.0221154282526
3346.051630173768 -357.171958002573 -309.7892957188837
3121.838822995428 -331.26908869133075 -287.21798894573135
2777.974518700584 -293.20887755525484 -254.11301548443475
2534.6301166989697 -266.2314044733629 -230.66016231047706
2331.1539499791866 -243.79695703625862 -211.17254911919466
2081.2612237433414 -216.83277863446648 -187.7689837450508
1834.2353834359415 -190.42529208946084 -164.941178468085
1605.059206664273 -166.16186518835994 -143.89687421978633
24.146459712943372 -52.83227262488119 -45.27714429244422
78.9711013279659 -93.96430581749536 -79.71553591364042
129.0518526559449 -106.35583065333681 -89.44928532896128
705.363065938194 -440.27851278030573 -381.63099446708634
767.5980384120018 -388.69527379854594 -340.4419173320179
895.5137192109239 -383.7688464929641 -336.78249980148877
1044.085074339428 -389.63223802613993 -341.16757964784335
1113.133362426447 -369.3387929499543 -323.44770613980046
1166.3395403003296 -348.973525310224 -305.8837153885313