# vtk DataFile Version 4.0
[MyVLM domain - lattices] 
ASCII
DATASET UNSTRUCTURED_GRID
POINTS 152 float
0.0 -2.1844734746466994 -0.7836190458746076
0.0 -4.14832853494249 0.2876114837191106
0.0 -6.10810859204726 1.2837479922999757
0.0 -8.036021383695928 2.25292809016839
0.0 -9.93181807577718 3.1955827706478077
0.0 -11.777364456360287 4.143121410157464
0.0 -13.557179521505281 5.122357894073566
0.0 -15.267340620733926 6.140086452324754
0.0 -16.932050293277378 7.15438705729048
0.0 -18.56109986641604 8.148300632647558
0.0 -20.15439786076136 9.121985625344795
0.0 -21.71174605346919 10.075785367419485
0.0 -23.232939410306894 11.010054988579839
0.0 -24.71631990309529 11.92766627787259
0.0 -26.162986837001792 12.826715182894757
0.0 -27.575347831883345 13.703031583728773
0.0 -28.953760614192326 14.555995879983923
0.0 -30.297640142777574 15.386621392658558
0.0 -31.606564860965776 16.19563827932911
0.0 -32.880534642768076 16.98304675821467
0.0 -34.11954936556031 17.74884704170653
0.0 -35.323608910083 18.49303933636816
0.0 -36.49271316044135 19.215623842935234
0.0 -37.626862004105256 19.916600756315606
0.0 -38.72605533190931 20.59597026558933
0.0 -39.79029303805277 21.253732554008636
0.0 -40.81957502009961 21.889887798997957
0.0 -41.81390117897847 22.504436172153916
0.0 -42.773271567507244 23.09737758199322
0.0 -43.69768813340871 23.66870865496108
0.0 -44.58715118971641 24.218428848867475
0.0 -45.44166034104294 24.746538848543494
0.0 -46.26121520754012 25.253039311905457
0.0 -47.04581542489904 25.737930869954926
0.0 -47.795460644350015 26.201214126778716
0.0 -48.510150532662614 26.642889659548878
0.0 -49.18967702317997 27.063317850286435
0.0 -49.83338020805734 27.463641692906805
0.0 -50.44025019916089 27.845610364967783
0.0 -51.0097601423402 28.210136404626038
0.0 -51.54221148136672 28.55669769595381
0.0 -52.03744745886373 28.885565750692013
0.0 -52.489526904162744 29.207030978294924
0.0 -52.89858295532218 29.52086277688095
0.0 -53.269099917473085 29.819294102126495
0.0 -53.604135857543184 30.097028226739702
0.0 -53.90447059290963 30.352714467402812
0.0 -54.169373393973636 30.587618484907495
0.0 -54.39949754041324 30.80060876565978
0.0 -54.596130190607354 30.98945588595012
0.0 -54.76038560106299 31.152229896895605
-0.8152906147965383 -0.4610842619754674 2.2013786316880877
-0.840508508576773 -2.3718053003077944 3.3646399869330064
-0.8937965186568912 -4.218411110626028 4.556800041056491
-0.9506477078523391 -6.025315654416191 5.7355725723507245
-1.020681877210228 -7.793022777377306 6.900084894465823
-1.048954977401727 -9.536999763977754 8.023546884847425
-0.9930987765444168 -11.26813849514283 9.087093252342939
-0.9074282632528687 -12.99612667219221 10.07394440605813
-0.838943182597301 -14.700565725973032 11.019431704167454
-0.780438039247949 -16.371741206755285 11.94038106717088
-0.7250391551380654 -18.007657050693787 12.840249779063399
-0.6716005320170477 -19.608464234369034 13.718776340736849
-0.6190912009117757 -21.17452625570867 14.575331155312089
-0.5668551203523576 -22.70760793349274 15.406857466995955
-0.5160737545272154 -24.206667978555398 16.21515884152905
-0.46824322159258064 -25.669205912619333 17.004566234330888
-0.4244759216876314 -27.09486419126888 17.775698930495373
-0.3845740908079094 -28.484224486132895 18.527549445208013
-0.34771109645469384 -29.837662669265004 19.259466748974777
-0.3130568676883623 -31.15511663174275 19.971558417604967
-0.28047282351476527 -32.436565622746194 20.663860392573003
-0.25028172479700606 -33.68200830909666 21.336374983012107
-0.22269967179244904 -34.89143508919166 21.989118819385585
-0.19756508903558764 -36.064821911693784 22.622133559831866
-0.17527331282135344 -37.202163260877576 23.23542875786765
-0.15618952887338375 -38.30344937187096 23.82902132674751
-0.13996799493970205 -39.36865176136021 24.40296060101801
-0.12575834684109707 -40.397735921650636 24.957306349759577
-0.11252036551224441 -41.39067137814703 25.492111356519448
-0.10008619772204906 -42.34745321307382 26.007384139134814
-0.0884564051429673 -43.268079208264744 26.503128539582313
-0.07764813403823374 -44.152546776651796 26.97934903879516
-0.06766754153321136 -45.000853042200916 27.436050618210473
-0.05846867713071129 -45.812994472940765 27.873239395382086
-0.05000632361003568 -46.58896784721963 28.29092095037445
-0.0422455662862189 -47.3287703257977 28.689100200895126
-0.03513713503927796 -48.032552127539944 29.067516960237786
-0.028610254341892315 -48.70079822448638 29.42533123218885
-0.02259956362415257 -49.33501001023367 29.759942526756753
-0.017476911002663225 -49.93596479521674 30.070004502774918
-0.013355710955940858 -50.502256772529336 30.35795208923065
-0.010110762084772787 -51.03392509104703 30.62371747828236
-0.007505342360435571 -51.538226758699594 30.854731163484782
-0.005475063785670375 -52.01522573133778 31.050882370054932
-0.003985447751437076 -52.459457067344495 31.22163665453409
-0.0029419419370193198 -52.86732734380142 31.37321800798975
-0.00222865752783443 -53.23826268967344 31.506620404211827
-0.0017402354220029323 -53.57373885147701 31.619287775254676
-0.0014049497009942318 -53.873260371775615 31.712078278571358
-0.0011720086804816246 -54.13540253384682 31.78745959591152
-0.0010052173229800666 -54.35893201976867 31.84756789657785
-0.6209246712649916 -1.8539338370548717 2.025256036713473
-0.6503643852126241 -3.7533857949739025 3.166959944998447
-0.6916665849409614 -5.609413783858731 4.301724240336251
-0.7392485943984627 -7.4278568443566995 5.419435407658231
-0.7761138204794831 -9.212406269525331 6.513699939843128
-0.765770157729804 -10.968744844403416 7.574674964475267
-0.7126976399239822 -12.70216445553054 8.59319466520019
-0.6548892921938138 -14.411183513563381 9.571825230036499
-0.6072679581919687 -16.0887588697348 10.52276575049413
-0.5645539478947554 -17.731711562440577 11.451522349586899
-0.5237398826831674 -19.339313471177377 12.359356169020629
-0.4840093998483088 -20.91170711675115 13.246020355518267
-0.44472987047405005 -22.4494577351258 14.11053589167207
-0.40609832807983987 -23.95276680953019 14.952553798292795
-0.3691188660449235 -25.420744542801163 15.773615249275418
-0.33476967873007946 -26.852664844717538 16.574977869773935
-0.3033937546858278 -28.248583348646907 17.356545299969078
-0.27460694522347623 -29.608733308742135 18.117913531817003
-0.24778798655364606 -30.93317967584464 18.858970067160378
-0.22257363420117282 -32.22189134647441 19.57976877880689
-0.19903295561691423 -33.47486000889648 20.280324063103752
-0.17736802372104568 -34.69208153317366 20.960643073312056
-0.15759928531051376 -35.87354327090037 21.6207477171129
-0.1398144006963529 -37.019234106716084 22.260657246875436
-0.12429856563552642 -38.129148283525964 22.88038163418043
-0.11105907142990716 -39.203271432230736 23.479945767037897
-0.09964737816779967 -40.241579906013826 24.059390602935576
-0.08935451713250306 -41.24404933073484 24.618758359123024
-0.07972746121286005 -42.21066668432231 25.158071590489637
-0.07070347607438114 -43.1414295733926 25.67733444249749
-0.062289202192950394 -44.03633618568861 26.176550054067917
-0.054493378339291916 -44.89538437564264 26.655722141433234
-0.047301081998971 -45.71857164723302 27.114855027829762
-0.040678125277780114 -46.50589537871628 27.553953254250406
-0.03459445871109547 -47.25735321200808 27.973020905017037
-0.029018512997061326 -47.972974364481935 28.37200737415425
-0.023905271017938854 -48.652888535914535 28.750688015059144
-0.01920368173726683 -49.2976318889223 29.10813416683893
-0.015028677985055923 -49.90786684473154 29.443198482273605
-0.01156223323447653 -50.48332954086814 29.75633798457457
-0.008799927390267616 -51.02352556636994 30.04840901864811
-0.006606039166953134 -51.5304287390333 30.315992831786048
-0.00486765230478973 -52.006058416199636 30.555591794474378
-0.003547691826415294 -52.448966408605266 30.769714244096814
-0.0025977711331711486 -52.85669862605674 30.962610789554716
-0.001938974799320156 -53.22817206885968 31.13615724134341
-0.0014883348561890108 -53.56373107629184 31.28975718633873
-0.0011794444211239365 -53.86373357551809 31.422790676505674
-0.0009663593930534462 -54.12770205598597 31.536084784382314
-0.0008164597512981341 -54.3549399315646 31.630846032539228

CELLS 100 350
4 0 51 52 1
4 1 52 53 2
4 2 53 54 3
4 3 54 55 4
4 4 55 56 5
4 5 56 57 6
4 6 57 58 7
4 7 58 59 8
4 8 59 60 9
4 9 60 61 10
4 10 61 62 11
4 11 62 63 12
4 12 63 64 13
4 13 64 65 14
4 14 65 66 15
4 15 66 67 16
4 16 67 68 17
4 17 68 69 18
4 18 69 70 19
4 19 70 71 20
4 20 71 72 21
4 21 72 73 22
4 22 73 74 23
4 23 74 75 24
4 24 75 76 25
4 25 76 77 26
4 26 77 78 27
4 27 78 79 28
4 28 79 80 29
4 29 80 81 30
4 30 81 82 31
4 31 82 83 32
4 32 83 84 33
4 33 84 85 34
4 34 85 86 35
4 35 86 87 36
4 36 87 88 37
4 37 88 89 38
4 38 89 90 39
4 39 90 91 40
4 40 91 92 41
4 41 92 93 42
4 42 93 94 43
4 43 94 95 44
4 44 95 96 45
4 45 96 97 46
4 46 97 98 47
4 47 98 99 48
4 48 99 100 49
4 49 100 101 50
1 102
1 103
1 104
1 105
1 106
1 107
1 108
1 109
1 110
1 111
1 112
1 113
1 114
1 115
1 116
1 117
1 118
1 119
1 120
1 121
1 122
1 123
1 124
1 125
1 126
1 127
1 128
1 129
1 130
1 131
1 132
1 133
1 134
1 135
1 136
1 137
1 138
1 139
1 140
1 141
1 142
1 143
1 144
1 145
1 146
1 147
1 148
1 149
1 150
1 151

CELL_TYPES 100
9
9
9
9
9
9
9
9
9
9
9
9
9
9
9
9
9
9
9
9
9
9
9
9
9
9
9
9
9
9
9
9
9
9
9
9
9
9
9
9
9
9
9
9
9
9
9
9
9
9
1
1
1
1
1
1
1
1
1
1
1
1
1
1
1
1
1
1
1
1
1
1
1
1
1
1
1
1
1
1
1
1
1
1
1
1
1
1
1
1
1
1
1
1
1
1
1
1
1
1

CELL_DATA 100

VECTORS S float
4.81031658258652e-18 2.731643244290838e-15 -2.2715361609075897e-15
-0.0 -0.0 0.0
-0.0 -0.0 0.0
-9.557975559099e-19 5.4575795983662106e-15 -4.549936477368963e-15
-1.397653464396392e-17 2.1825512564589662e-14 -1.8205503917654525e-14
-1.402817885643274e-17 2.1816733889096156e-14 -1.8216022962460208e-14
0.0 -0.0 0.0
7.54521437516772e-18 -2.1799200719379436e-14 1.8237005182108798e-14
0.0 -0.0 0.0
6.24198357112157e-18 -2.179033752747526e-14 1.824759486679438e-14
0.0 -0.0 0.0
0.0 -0.0 0.0
0.0 -0.0 0.0
-6.2173794430339995e-18 4.3559183077028236e-14 -3.652084060904669e-14
0.0 -0.0 0.0
0.0 -0.0 0.0
-2.8910652930853e-18 4.3552672411637e-14 -3.652860502717889e-14
0.0 -0.0 0.0
-2.1458044371249997e-18 4.355109693669646e-14 -3.653048341852673e-14
-1.744547214434e-18 4.3550148295461263e-14 -3.65316143659865e-14
0.0 -0.0 0.0
1.26855463687996e-18 -4.3548978002661474e-14 3.653300947225318e-14
1.14621108389941e-18 -4.354866416017167e-14 3.653338358728964e-14
1.08333396560479e-18 -4.354848327547011e-14 3.653359920700056e-14
-5.1326907985184e-19 2.1774201066691853e-14 -1.8266847965375592e-14
0.0 -0.0 0.0
-9.926893941594399e-19 4.354846006986756e-14 -3.653362687091145e-14
0.0 -0.0 0.0
-4.9061748733858e-19 2.1774341269761667e-14 -1.8266680841728317e-14
-4.961919790653999e-19 2.1774412060612666e-14 -1.8266596456777476e-14
0.0 -0.0 0.0
-5.2784225202742e-19 2.1774619386502586e-14 -1.826634931344094e-14
-1.04204518566858e-18 4.354928296668541e-14 -3.653264594560555e-14
1.02948702215047e-18 -4.354927364593067e-14 3.6532657056902794e-14
-9.970943047386199e-19 4.354921600940841e-14 -3.6532725764127615e-14
0.0 -0.0 0.0
0.0 -0.0 0.0
0.0 -0.0 0.0
1.9447779321998498e-18 -8.709832725060603e-14 7.306557641944142e-14
9.4931239822974e-19 -4.354921829511618e-14 3.6532723040698576e-14
0.0 -0.0 0.0
4.7159801486668e-19 -2.177464913971915e-14 1.826631384724459e-14
0.0 -0.0 0.0
0.0 -0.0 0.0
-1.40111270904958e-18 6.532407610350837e-14 -5.479878814149791e-14
-9.310212472976e-19 4.3549404308254424e-14 -3.653250130109702e-14
4.652608544595899e-19 -2.177471077283951e-14 1.8266240376416696e-14
0.0 -0.0 0.0
-2.3155971810035e-19 1.0887327281833065e-14 -9.133153690878772e-15
6.9418151037541e-19 -3.266199326865151e-14 2.7399447455485065e-14
4.81031658258652e-18 2.731643244290838e-15 -2.2715361609075897e-15
-0.0 -0.0 0.0
-0.0 -0.0 0.0
-9.557975559099e-19 5.4575795983662106e-15 -4.549936477368963e-15
-1.397653464396392e-17 2.1825512564589662e-14 -1.8205503917654525e-14
-1.402817885643274e-17 2.1816733889096156e-14 -1.8216022962460208e-14
0.0 -0.0 0.0
7.54521437516772e-18 -2.1799200719379436e-14 1.8237005182108798e-14
0.0 -0.0 0.0
6.24198357112157e-18 -2.179033752747526e-14 1.824759486679438e-14
0.0 -0.0 0.0
0.0 -0.0 0.0
0.0 -0.0 0.0
-6.2173794430339995e-18 4.3559183077028236e-14 -3.652084060904669e-14
0.0 -0.0 0.0
0.0 -0.0 0.0
-2.8910652930853e-18 4.3552672411637e-14 -3.652860502717889e-14
0.0 -0.0 0.0
-2.1458044371249997e-18 4.355109693669646e-14 -3.653048341852673e-14
-1.744547214434e-18 4.3550148295461263e-14 -3.65316143659865e-14
0.0 -0.0 0.0
1.26855463687996e-18 -4.3548978002661474e-14 3.653300947225318e-14
1.14621108389941e-18 -4.354866416017167e-14 3.653338358728964e-14
1.08333396560479e-18 -4.354848327547011e-14 3.653359920700056e-14
-5.1326907985184e-19 2.1774201066691853e-14 -1.8266847965375592e-14
0.0 -0.0 0.0
-9.926893941594399e-19 4.354846006986756e-14 -3.653362687091145e-14
0.0 -0.0 0.0
-4.9061748733858e-19 2.1774341269761667e-14 -1.8266680841728317e-14
-4.961919790653999e-19 2.1774412060612666e-14 -1.8266596456777476e-14
0.0 -0.0 0.0
-5.2784225202742e-19 2.1774619386502586e-14 -1.826634931344094e-14
-1.04204518566858e-18 4.354928296668541e-14 -3.653264594560555e-14
1.02948702215047e-18 -4.354927364593067e-14 3.6532657056902794e-14
-9.970943047386199e-19 4.354921600940841e-14 -3.6532725764127615e-14
0.0 -0.0 0.0
0.0 -0.0 0.0
0.0 -0.0 0.0
1.9447779321998498e-18 -8.709832725060603e-14 7.306557641944142e-14
9.4931239822974e-19 -4.354921829511618e-14 3.6532723040698576e-14
0.0 -0.0 0.0
4.7159801486668e-19 -2.177464913971915e-14 1.826631384724459e-14
0.0 -0.0 0.0
0.0 -0.0 0.0
-1.40111270904958e-18 6.532407610350837e-14 -5.479878814149791e-14
-9.310212472976e-19 4.3549404308254424e-14 -3.653250130109702e-14
4.652608544595899e-19 -2.177471077283951e-14 1.8266240376416696e-14
0.0 -0.0 0.0
-2.3155971810035e-19 1.0887327281833065e-14 -9.133153690878772e-15
6.9418151037541e-19 -3.266199326865151e-14 2.7399447455485065e-14

SCALARS Gamma float
LOOKUP_TABLE default
-0.0
-0.0
-0.0
60.98929022137976
64.86049780105658
64.64650183860535
62.16951744216461
55.312516960765485
50.375736669119696
53.08085722071867
62.4540850730029
64.96322552776006
63.190871968279986
56.85939757400301
55.46759211143887
53.4564094853213
53.22208935732258
48.9962553946294
45.53413001864392
46.29088143322331
46.40209136814545
45.493751730613965
45.78832341053854
46.47399322578911
42.09186379402923
44.37689092751916
45.5438264375007
44.253514631374756
43.26328708546415
41.75885374820513
43.12608706920094
42.73006287152862
41.9738647853094
44.024929261025136
43.92326453523577
45.526062878600875
45.54515863667377
45.46497515241391
45.10811940463707
44.40628325884233
43.44224060247126
41.96255450588731
39.55505198554516
36.512044769295464
32.437404126400494
29.35700920405094
26.769592302463174
23.743529278135146
20.82501180076018
18.13321304889826
-0.0
-0.0
-0.0
60.98929022137976
64.86049780105658
64.64650183860535
62.16951744216461
55.312516960765485
50.375736669119696
53.08085722071867
62.4540850730029
64.96322552776006
63.190871968279986
56.85939757400301
55.46759211143887
53.4564094853213
53.22208935732258
48.9962553946294
45.53413001864392
46.29088143322331
46.40209136814545
45.493751730613965
45.78832341053854
46.47399322578911
42.09186379402923
44.37689092751916
45.5438264375007
44.253514631374756
43.26328708546415
41.75885374820513
43.12608706920094
42.73006287152862
41.9738647853094
44.024929261025136
43.92326453523577
45.526062878600875
45.54515863667377
45.46497515241391
45.10811940463707
44.40628325884233
43.44224060247126
41.96255450588731
39.55505198554516
36.512044769295464
32.437404126400494
29.35700920405094
26.769592302463174
23.743529278135146
20.82501180076018
18.13321304889826

VECTORS Ftot float
139.24869749379303 -27.304501750463736 -32.54023805511002
164.39741955408434 -59.533942507910325 -70.9497898650992
165.16331345155638 -86.75021313959475 -103.38487816742536
1598.0093110996472 43.42033263717371 51.74633741198733
1617.5064948868467 175.19768661324676 208.79247243553112
1701.047237941973 221.5179395040978 263.9948002280751
1785.8877778200392 214.95376620394003 256.17192311520114
1723.2067545384964 199.4647372782818 237.7128172472523
1685.6808786430624 202.79177133185658 241.67782203328332
1881.2726588812188 268.71077983272085 320.23703723443646
2345.6324264238274 375.88712863056827 447.9648359554012
2591.9786367208126 431.3370571336822 514.0474874580792
2666.585917321964 463.7557921436444 552.6826313735612
2534.5623444697217 445.90553607833175 531.4095245789983
2618.3328393838747 427.7419238969251 509.762974507319
2658.8494328870365 408.77309568764076 487.1568053416021
2776.0813538287393 409.98037691343666 488.5955870797158
2672.935758091523 376.3135536598747 448.4730295160491
2588.651710277339 352.41155388816804 419.9877354179318
2737.811497684432 354.6986571746443 422.7133989762239
2844.8705570496754 360.57052478300847 429.71121829372953
2889.5501640615803 344.7428031816499 410.8484742127294
3002.8844978564657 348.62072159551025 415.4699974142347
3139.4953563468434 360.4727744631987 429.59472399891894
2926.1912200943566 325.1353938478785 387.4812736977421
3168.3592595175624 345.1175135161081 411.29503660000216
3335.3981590267817 353.02439525465223 420.7180913181297
3320.422828168697 338.5057951928669 403.41549753505853
3320.5415763002466 328.5334315401899 391.5308973253248
3273.7563281795547 316.64272655552844 377.3601069413766
3448.42997530288 327.95736039050576 390.84436246309883
3481.252563987301 326.27173807803644 388.83551601645655
3481.07298614974 319.01000518844353 380.1813197568247
3711.8811112251697 336.7302714171646 401.29951069662883
3761.9699286638393 334.6502596680002 398.82064922192404
3955.236321881623 352.50305862384107 420.09678651540963
4011.6551792849527 352.56626772779987 420.172116192137
4056.3633366283075 351.90688981320176 419.38630019353747
4071.103834886615 357.21766203312296 425.7154320660781
4054.6873483505397 343.23524111172463 409.05183169983724
4008.0825765929244 334.8164238056662 399.01867592994785
3908.748912970017 323.1700286766508 385.139042694172
3717.0101462073776 304.5165250308115 362.90866270977386
3458.798202425068 280.8005080630589 334.64501428642944
3095.457504467405 248.9220475756031 296.65374447413154
2820.070403705829 225.08592769901367 268.2469629776998
2586.6345585122117 205.60782136282134 245.03385977461062
2306.220564995374 182.28961349105458 217.244301770574
2030.896125282488 164.51426473425073 196.06046603003801
1775.2335506051975 143.23924864159838 170.70588916911998
139.24869749379303 -27.304501750463736 -32.54023805511002
164.39741955408434 -59.533942507910325 -70.9497898650992
165.16331345155638 -86.75021313959475 -103.38487816742536
1598.0093110996472 43.42033263717371 51.74633741198733
1617.5064948868467 175.19768661324676 208.79247243553112
1701.047237941973 221.5179395040978 263.9948002280751
1785.8877778200392 214.95376620394003 256.17192311520114
1723.2067545384964 199.4647372782818 237.7128172472523
1685.6808786430624 202.79177133185658 241.67782203328332
1881.2726588812188 268.71077983272085 320.23703723443646
2345.6324264238274 375.88712863056827 447.9648359554012
2591.9786367208126 431.3370571336822 514.0474874580792
2666.585917321964 463.7557921436444 552.6826313735612
2534.5623444697217 445.90553607833175 531.4095245789983
2618.3328393838747 427.7419238969251 509.762974507319
2658.8494328870365 408.77309568764076 487.1568053416021
2776.0813538287393 409.98037691343666 488.5955870797158
2672.935758091523 376.3135536598747 448.4730295160491
2588.651710277339 352.41155388816804 419.9877354179318
2737.811497684432 354.6986571746443 422.7133989762239
2844.8705570496754 360.57052478300847 429.71121829372953
2889.5501640615803 344.7428031816499 410.8484742127294
3002.8844978564657 348.62072159551025 415.4699974142347
3139.4953563468434 360.4727744631987 429.59472399891894
2926.1912200943566 325.1353938478785 387.4812736977421
3168.3592595175624 345.1175135161081 411.29503660000216
3335.3981590267817 353.02439525465223 420.7180913181297
3320.422828168697 338.5057951928669 403.41549753505853
3320.5415763002466 328.5334315401899 391.5308973253248
3273.7563281795547 316.64272655552844 377.3601069413766
3448.42997530288 327.95736039050576 390.84436246309883
3481.252563987301 326.27173807803644 388.83551601645655
3481.07298614974 319.01000518844353 380.1813197568247
3711.8811112251697 336.7302714171646 401.29951069662883
3761.9699286638393 334.6502596680002 398.82064922192404
3955.236321881623 352.50305862384107 420.09678651540963
4011.6551792849527 352.56626772779987 420.172116192137
4056.3633366283075 351.90688981320176 419.38630019353747
4071.103834886615 357.21766203312296 425.7154320660781
4054.6873483505397 343.23524111172463 409.05183169983724
4008.0825765929244 334.8164238056662 399.01867592994785
3908.748912970017 323.1700286766508 385.139042694172
3717.0101462073776 304.5165250308115 362.90866270977386
3458.798202425068 280.8005080630589 334.64501428642944
3095.457504467405 248.9220475756031 296.65374447413154
2820.070403705829 225.08592769901367 268.2469629776998
2586.6345585122117 205.60782136282134 245.03385977461062
2306.220564995374 182.28961349105458 217.244301770574
2030.896125282488 164.51426473425073 196.06046603003801
1775.2335506051975 143.23924864159838 170.70588916911998

VECTORS D float
115.5380412360174 22.41553378356545 27.20054254299868
85.18099897048025 30.6587486308238 36.91990436058033
32.910113694894775 17.207517718333634 20.665847264383956
781.493103259667 533.6824283230472 639.9797883130346
726.4749352103851 610.2670804415485 731.0557450115997
656.5599052653889 652.8060786206448 781.3388349367622
569.132535535007 651.7960975312782 779.3684524321079
464.0738675497772 600.1460176045608 717.1792644283872
397.58649061129876 571.6871478645085 682.8337722555943
412.7556740255236 651.8193042771502 778.2278342242563
479.76084466717674 823.768129920391 983.1860499551825
486.2794994054901 900.3028063234206 1074.219159261745
465.2275548757762 921.9855567978456 1099.7585042465257
408.54822925535984 861.7820550773067 1027.7962276955318
376.9371944970357 841.9111357677472 1003.9717936386508
345.8715758739176 814.3149627049451 970.9606435172307
331.06077861324616 818.3556847248258 975.690692490887
292.4673286140892 756.3869501206709 901.7383227255614
262.6759739025006 708.5004751283408 844.6482590233386
256.7932989042265 720.0789820493362 858.4098734453033
250.71226492016515 729.0159160797515 869.0327100159868
235.7221023152473 709.0984244459896 845.2687886282109
230.98673791017669 717.2920526508868 855.0219793209097
230.08764777083422 736.0893582007133 877.4204167912632
202.77849769323993 667.0708890063663 795.1471217453649
209.38568898576625 707.0449349395997 842.7963795610042
209.82166321018227 726.0803465767697 865.4895612855275
198.45415554924614 702.6782509729329 837.5989408819538
189.62186593265702 685.9842940255872 817.7053741413595
179.5818872049844 662.8606934193147 790.147896700722
182.48060162662037 686.4982835390243 818.3383129763204
178.2799823054568 682.5668259043557 813.6567674897609
172.18110536033188 670.1296877896708 798.8331319031505
178.61936161953972 705.9452577254241 841.5270554652407
175.60798396058706 704.0761420004073 839.2965007673625
180.99369059162538 735.8924781901155 877.2073251915218
179.02371386175676 737.0437726025734 878.5853624607814
176.83966889523276 736.579558719623 878.0365299218782
175.58546278410202 739.3143437948546 881.3001188483657
169.41249997419163 720.5198241493983 858.8988630138048
164.1459935551373 704.6348805134197 839.9652548452649
157.29005049693941 681.0121292790252 811.8072491952241
147.20030072382247 642.3617056218351 765.7350436062189
134.94064069833956 593.1134171784682 707.0291993490163
119.06468540044858 526.7644130670487 627.9378240247939
107.14794319485058 476.8449229269064 568.4311734561401
97.32168642269778 435.4019425523936 519.02886930582
85.95486849763752 386.3135237916318 460.5088114867665
76.10150569555286 343.4166513736972 409.3735835440273
66.05763656311507 299.1233866911322 356.5736207814021
115.5380412360174 22.41553378356545 27.20054254299868
85.18099897048025 30.6587486308238 36.91990436058033
32.910113694894775 17.207517718333634 20.665847264383956
781.493103259667 533.6824283230472 639.9797883130346
726.4749352103851 610.2670804415485 731.0557450115997
656.5599052653889 652.8060786206448 781.3388349367622
569.132535535007 651.7960975312782 779.3684524321079
464.0738675497772 600.1460176045608 717.1792644283872
397.58649061129876 571.6871478645085 682.8337722555943
412.7556740255236 651.8193042771502 778.2278342242563
479.76084466717674 823.768129920391 983.1860499551825
486.2794994054901 900.3028063234206 1074.219159261745
465.2275548757762 921.9855567978456 1099.7585042465257
408.54822925535984 861.7820550773067 1027.7962276955318
376.9371944970357 841.9111357677472 1003.9717936386508
345.8715758739176 814.3149627049451 970.9606435172307
331.06077861324616 818.3556847248258 975.690692490887
292.4673286140892 756.3869501206709 901.7383227255614
262.6759739025006 708.5004751283408 844.6482590233386
256.7932989042265 720.0789820493362 858.4098734453033
250.71226492016515 729.0159160797515 869.0327100159868
235.7221023152473 709.0984244459896 845.2687886282109
230.98673791017669 717.2920526508868 855.0219793209097
230.08764777083422 736.0893582007133 877.4204167912632
202.77849769323993 667.0708890063663 795.1471217453649
209.38568898576625 707.0449349395997 842.7963795610042
209.82166321018227 726.0803465767697 865.4895612855275
198.45415554924614 702.6782509729329 837.5989408819538
189.62186593265702 685.9842940255872 817.7053741413595
179.5818872049844 662.8606934193147 790.147896700722
182.48060162662037 686.4982835390243 818.3383129763204
178.2799823054568 682.5668259043557 813.6567674897609
172.18110536033188 670.1296877896708 798.8331319031505
178.61936161953972 705.9452577254241 841.5270554652407
175.60798396058706 704.0761420004073 839.2965007673625
180.99369059162538 735.8924781901155 877.2073251915218
179.02371386175676 737.0437726025734 878.5853624607814
176.83966889523276 736.579558719623 878.0365299218782
175.58546278410202 739.3143437948546 881.3001188483657
169.41249997419163 720.5198241493983 858.8988630138048
164.1459935551373 704.6348805134197 839.9652548452649
157.29005049693941 681.0121292790252 811.8072491952241
147.20030072382247 642.3617056218351 765.7350436062189
134.94064069833956 593.1134171784682 707.0291993490163
119.06468540044858 526.7644130670487 627.9378240247939
107.14794319485058 476.8449229269064 568.4311734561401
97.32168642269778 435.4019425523936 519.02886930582
85.95486849763752 386.3135237916318 460.5088114867665
76.10150569555286 343.4166513736972 409.3735835440273
66.05763656311507 299.1233866911322 356.5736207814021

VECTORS L float
23.710656257775604 -49.7200355340292 -59.7407805981087
79.21642058360412 -90.19269113873413 -107.86969422567955
132.2531997566616 -103.95773085792837 -124.05072543180933
816.5162078399801 -490.2620956858736 -588.2334509010475
891.0315596764617 -435.06939382830154 -522.2632725760685
1044.4873326765844 -431.28813911654674 -517.3440347086866
1216.7552422850324 -436.8423313273382 -523.1965293169069
1259.132886988719 -400.681280326279 -479.46644718113487
1288.0943880317639 -368.8953765326519 -441.15595022231105
1468.5169848556952 -383.10852444442935 -457.9907969898199
1865.8715817566513 -447.8810012898227 -535.2212139997814
2105.699137315323 -468.9657491897388 -560.1716718036662
2201.3583624461885 -458.22976465420106 -547.0758728729644
2126.014115214362 -415.8765189989749 -496.38670311653345
2241.3956448868394 -414.1692118708221 -494.2088191313318
2312.9778570131193 -405.54186701730436 -483.8038381756287
2445.0205752154934 -408.37530781138923 -487.0951054111713
2380.4684294774343 -380.0733964607962 -453.2652932095122
2325.9757363748395 -356.08892124017274 -424.6605236054068
2481.0181987802057 -365.38032487469184 -435.6964744690793
2594.1582921295103 -368.4453912967429 -439.3214917222575
2653.828061746334 -364.3556212643398 -434.42031441548164
2771.897759946289 -368.6713310553765 -439.5519819066749
2909.4077085760096 -375.6165837375147 -447.82569279234446
2723.4127224011177 -341.93549515848787 -407.6658480476229
2958.9735705317958 -361.9274214234914 -431.5013429610017
3125.576495816599 -373.0559513221175 -444.77146996739805
3121.9686726194514 -364.1724557800661 -434.18344334689544
3130.9197103675897 -357.45086248539735 -426.1744768160346
3094.17444097457 -346.21796686378605 -412.7877897593452
3265.9493736762583 -358.54092314851863 -427.4939505132217
3302.9725816818445 -356.2950878263193 -424.8212514733044
3308.8918807894083 -351.11968260122745 -418.6518121463261
3533.2617496056305 -369.21498630825965 -440.227544768612
3586.3619447032524 -369.4258823324073 -440.4758515454386
3774.2426312899975 -383.3894195662745 -457.1105386761123
3832.6314654231956 -384.47750487477373 -458.4132462686443
3879.5236677330754 -384.6726689064215 -458.6502297283407
3895.5183721025146 -382.0966817617317 -455.58468678228775
3885.274848376349 -377.2845830376735 -449.8470313139673
3843.936583037787 -369.8184567077535 -440.946578915317
3751.4588624730773 -357.84210060237444 -426.66820650105217
3569.8098454835554 -337.84518059102356 -402.8263808964451
3323.8575617267297 -312.31290911540935 -372.3841850625869
2976.3928190669562 -277.84236549144555 -331.28407955066245
2712.9224605109794 -251.75899522789268 -300.18421047844026
2489.3128720895147 -229.7941211895724 -273.9950095312094
2220.265696497737 -204.0239103005772 -243.26450971619246
1954.7946195869351 -178.90238663944652 -213.31311751398934
1709.1759140420825 -155.88413804953387 -185.86773161228214
23.710656257775604 -49.7200355340292 -59.7407805981087
79.21642058360412 -90.19269113873413 -107.86969422567955
132.2531997566616 -103.95773085792837 -124.05072543180933
816.5162078399801 -490.2620956858736 -588.2334509010475
891.0315596764617 -435.06939382830154 -522.2632725760685
1044.4873326765844 -431.28813911654674 -517.3440347086866
1216.7552422850324 -436.8423313273382 -523.1965293169069