# vtk DataFile Version 4.0
[MyVLM domain - lattices] 
ASCII
DATASET UNSTRUCTURED_GRID
POINTS 62 float
0.0 -1.7847231740308636 -1.483512365216409
0.0 -7.332315501560578 -0.7487096283204882
0.0 -12.630400996859175 -0.12399312055335844
0.0 -17.610171252176784 0.7808690299936427
0.0 -22.31305094554358 1.730945799924498
0.0 -26.75416223031303 2.64047519585217
0.0 -30.932541814737412 3.514920316752579
0.0 -34.85271271513597 4.328629862404458
0.0 -38.51355305750652 5.08796629644036
0.0 -41.914963143425666 5.7934950367163704
0.0 -45.05694311084461 6.4452153008723405
0.0 -47.939492856136404 7.043127676605753
0.0 -50.56260889906135 7.587251901336865
0.0 -52.926291241438186 8.077587964751073
0.0 -55.030434678591675 8.514732512210433
0.0 -56.87425001471576 8.903161295541942
0.0 -58.45244139420276 9.272908604372645
0.0 -59.765151115797075 9.623167422420599
0.0 -60.80776939829371 9.980081118026096
0.0 -61.58776386837799 10.30129867573288
0.0 -62.112623046593164 10.544350585128212
-0.8152938918039478 -1.1861957373364334 1.9109054050511016
-0.9232602711185554 -6.652833207861345 3.1048259506881135
-1.045017403566863 -11.846823276945722 4.319896956649302
-0.8624275731409438 -16.829239046487913 5.209755650470879
-0.7172432011617597 -21.570030201577993 5.944825836775352
-0.5835709082011334 -26.05103154846671 6.628127448622591
-0.458823694439046 -30.27405747575922 7.249370576902591
-0.35706975050238215 -34.23441393937806 7.8351764684521745
-0.27205245991127286 -37.93300746731392 8.380403947558884
-0.20240159072431146 -41.369806755157924 8.885230550347686
-0.1506132401889805 -44.54473945211389 9.350066598573514
-0.11426271706148827 -47.45768862756916 9.775575238694074
-0.08424963388989035 -50.10853502494543 10.162432808373865
-0.059335794404298196 -52.49725344355161 10.510782227834017
-0.038970351202568594 -54.62395925752087 10.81996917785077
-0.02333805368457717 -56.489442812433545 11.085511385903045
-0.011931771028020786 -58.09887210971878 11.278099659441892
-0.005641151376299379 -59.45212643649215 11.398418595254254
-0.0026418300562744777 -60.55393597788717 11.419641980389068
-0.0014569859069231085 -61.39680311335132 11.384290933976123
-0.001005086180947595 -61.973196468842985 11.335078000694322
-0.6519578110959388 -4.079265688898097 1.6018715092100935
-0.7381041280070318 -9.43271074410512 2.6751832466423
-0.7152918662654275 -14.533594902417107 3.6557292163501045
-0.5923765403635137 -19.390128742739762 4.4969449114571045
-0.4878052910110849 -23.991299803248843 5.261285106496313
-0.39089797599006726 -28.332746389716025 5.973486198647538
-0.30596004185303555 -32.413833596910656 6.637148914402667
-0.23592082890512064 -36.23356624908981 7.257917175859749
-0.17792026898834412 -39.792119858543465 7.834795603359554
-0.1323805615924845 -43.089443109510704 8.36807522304404
-0.0993284839689258 -46.12546502575377 8.858158561160106
-0.07444213160676699 -48.90009658909268 9.305550464893305
-0.05384453561032071 -51.41328319324883 9.71056062183895
-0.036864804602575046 -53.66504550290592 10.073071836751984
-0.023365651832679663 -55.65561136289632 10.391791937376727
-0.013226184267224234 -57.38645452192192 10.658362879493673
-0.006589845901620062 -58.85882351857907 10.86570384886021
-0.0031061180372151964 -60.073888469653596 11.007178783422082
-0.0015370559861990949 -61.03096881754839 11.086647317106818
-0.0009232770329515139 -61.726298207694256 11.125469508109054

CELLS 40 140
4 0 21 22 1
4 1 22 23 2
4 2 23 24 3
4 3 24 25 4
4 4 25 26 5
4 5 26 27 6
4 6 27 28 7
4 7 28 29 8
4 8 29 30 9
4 9 30 31 10
4 10 31 32 11
4 11 32 33 12
4 12 33 34 13
4 13 34 35 14
4 14 35 36 15
4 15 36 37 16
4 16 37 38 17
4 17 38 39 18
4 18 39 40 19
4 19 40 41 20
1 42
1 43
1 44
1 45
1 46
1 47
1 48
1 49
1 50
1 51
1 52
1 53
1 54
1 55
1 56
1 57
1 58
1 59
1 60
1 61

CELL_TYPES 40
9
9
9
9
9
9
9
9
9
9
9
9
9
9
9
9
9
9
9
9
1
1
1
1
1
1
1
1
1
1
1
1
1
1
1
1
1
1
1
1

CELL_DATA 40

VECTORS S float
-0.0 -0.0 0.0
3.346058362853318e-17 -1.3399501694218976e-14 4.732930009259067e-15
0.0 -0.0 0.0
0.0 -0.0 0.0
2.5927609386617595e-16 -5.374778001083695e-14 1.8500896940394266e-14
2.3713450053906327e-16 -5.37700589934228e-14 1.843634429212448e-14
-2.1290677576055818e-16 5.3783615033144387e-14 -1.839705662481432e-14
-2.0043986896114671e-16 5.380453484865708e-14 -1.833592433895387e-14
1.8821186065092383e-16 -5.381674582957915e-14 1.8300183397858378e-14
-1.8020440327293935e-16 5.383335770231198e-14 -1.8251339475590062e-14
0.0 -0.0 0.0
1.7245185427412166e-16 -5.3864535900953977e-14 1.8159193272776787e-14
0.0 -0.0 0.0
0.0 -0.0 0.0
0.0 -0.0 0.0
8.63924441540331e-17 -2.694508614349034e-14 9.041484170853478e-15
-1.7295975753414505e-16 5.388354154350705e-14 -1.8102715360870234e-14
8.273475899838208e-17 -2.6938700407767147e-14 9.060526598743354e-15
7.862355955229503e-17 -2.693544331281872e-14 9.070241387313151e-15
-8.33206326121035e-18 3.3665376057147574e-15 -1.1349579770045888e-15
-0.0 -0.0 0.0
3.346058362853318e-17 -1.3399501694218976e-14 4.732930009259067e-15
0.0 -0.0 0.0
0.0 -0.0 0.0
2.5927609386617595e-16 -5.374778001083695e-14 1.8500896940394266e-14
2.3713450053906327e-16 -5.37700589934228e-14 1.843634429212448e-14
-2.1290677576055818e-16 5.3783615033144387e-14 -1.839705662481432e-14
-2.0043986896114671e-16 5.380453484865708e-14 -1.833592433895387e-14
1.8821186065092383e-16 -5.381674582957915e-14 1.8300183397858378e-14
-1.8020440327293935e-16 5.383335770231198e-14 -1.8251339475590062e-14
0.0 -0.0 0.0
1.7245185427412166e-16 -5.3864535900953977e-14 1.8159193272776787e-14
0.0 -0.0 0.0
0.0 -0.0 0.0
0.0 -0.0 0.0
8.63924441540331e-17 -2.694508614349034e-14 9.041484170853478e-15
-1.7295975753414505e-16 5.388354154350705e-14 -1.8102715360870234e-14
8.273475899838208e-17 -2.6938700407767147e-14 9.060526598743354e-15
7.862355955229503e-17 -2.693544331281872e-14 9.070241387313151e-15
-8.33206326121035e-18 3.3665376057147574e-15 -1.1349579770045888e-15

SCALARS Gamma float
LOOKUP_TABLE default
0.0
54.51881909957459
80.10614678908969
79.78924417589971
79.10635835550053
85.84051944196787
88.28266580772669
92.89932501115938
97.78983080903241
89.83393179032272
89.92063754045847
88.67618888131067
89.2603257276747
85.50699737073329
79.48927100013904
70.34430927697227
56.99521554795337
40.407554119493014
23.294343682486254
9.515340284548266
0.0
54.51881909957459
80.10614678908969
79.78924417589971
79.10635835550053
85.84051944196787
88.28266580772669
92.89932501115938
97.78983080903241
89.83393179032272
89.92063754045847
88.67618888131067
89.2603257276747
85.50699737073329
79.48927100013904
70.34430927697227
56.99521554795337
40.407554119493014
23.294343682486254
9.515340284548266

VECTORS Ftot float
129.20116725838014 -26.66699020728958 -73.26695343934564
1133.2235946615585 95.78155114153223 263.1576489616978
1997.2579547879461 284.48566638889446 781.617944561988
2581.2176311374237 283.2515571118056 778.2272571900469
3115.2837043677223 276.90201547029403 760.7820349061071
3949.120495730383 300.477090750915 825.554021901556
4618.607107267611 303.67421397512675 834.3380457672915
5409.606836141172 316.3997402086013 869.3011417444407
6235.162684022795 331.74926623671826 911.4736179060228
6189.674137548637 302.4245196763229 830.904538900107
6621.060535851291 303.04578462559454 832.6114503197293
6912.732372385536 300.08679213444555 824.4816852659618
7305.728630170608 308.5623451660596 847.7680758377115
7297.297339816565 299.78964241163453 823.6652731123413
7026.310811330265 290.4579533266744 798.0266680660421
6405.251357589414 263.0297653326707 722.6683408959607
5317.7793178815555 221.80359819553271 609.400377596012
3846.946123276846 155.62803237441855 427.5845047828677
2252.870598084459 87.89808916012908 241.49801518066369
932.2202319984114 31.286249199094936 85.95826321394358
129.20116725838014 -26.66699020728958 -73.26695343934564
1133.2235946615585 95.78155114153223 263.1576489616978
1997.2579547879461 284.48566638889446 781.617944561988
2581.2176311374237 283.2515571118056 778.2272571900469
3115.2837043677223 276.90201547029403 760.7820349061071
3949.120495730383 300.477090750915 825.554021901556
4618.607107267611 303.67421397512675 834.3380457672915
5409.606836141172 316.3997402086013 869.3011417444407
6235.162684022795 331.74926623671826 911.4736179060228
6189.674137548637 302.4245196763229 830.904538900107
6621.060535851291 303.04578462559454 832.6114503197293
6912.732372385536 300.08679213444555 824.4816852659618
7305.728630170608 308.5623451660596 847.7680758377115
7297.297339816565 299.78964241163453 823.6652731123413
7026.310811330265 290.4579533266744 798.0266680660421
6405.251357589414 263.0297653326707 722.6683408959607
5317.7793178815555 221.80359819553271 609.400377596012
3846.946123276846 155.62803237441855 427.5845047828677
2252.870598084459 87.89808916012908 241.49801518066369
932.2202319984114 31.286249199094936 85.95826321394358

VECTORS D float
60.21793751915313 12.169225305787334 34.24270248232864
502.60117308999247 240.9637707035746 678.6445434266616
634.1185785753086 474.5449035191017 1353.5820577546426
502.84636471917537 498.38681673647824 1432.8043273182966
415.9878226968925 502.7239807733133 1454.656080389906
389.7717118228819 551.7034456895872 1604.0435149624022
350.04270788157254 565.7850039069743 1650.0159235473143
328.48027533698917 592.8997522475354 1736.2012544186846
314.6579992141272 623.4106078830903 1830.0749853865527
267.2111081779166 570.8515676790281 1681.1206684599572
251.73430384796458 572.2154682911034 1690.144531762329
237.37759616622085 566.6374095040785 1678.5285790271823
235.34539731876515 580.1621450162409 1722.3785147137257
226.22139651935714 566.3708228530909 1683.9375822254171
217.03212158194535 545.1923862075412 1623.0086640500147
198.64628527354776 496.6589663353054 1478.2260125854025
168.24195086053953 417.6070686120147 1241.4186653990155
121.31305963354096 299.09353665928455 888.1552615637094
70.4343973262275 172.84787219247667 512.6871558957039
27.392580145657877 67.0410092151098 198.65743622696587
60.21793751915313 12.169225305787334 34.24270248232864
502.60117308999247 240.9637707035746 678.6445434266616
634.1185785753086 474.5449035191017 1353.5820577546426
502.84636471917537 498.38681673647824 1432.8043273182966
415.9878226968925 502.7239807733133 1454.656080389906
389.7717118228819 551.7034456895872 1604.0435149624022
350.04270788157254 565.7850039069743 1650.0159235473143
328.48027533698917 592.8997522475354 1736.2012544186846
314.6579992141272 623.4106078830903 1830.0749853865527
267.2111081779166 570.8515676790281 1681.1206684599572
251.73430384796458 572.2154682911034 1690.144531762329
237.37759616622085 566.6374095040785 1678.5285790271823
235.34539731876515 580.1621450162409 1722.3785147137257
226.22139651935714 566.3708228530909 1683.9375822254171
217.03212158194535 545.1923862075412 1623.0086640500147
198.64628527354776 496.6589663353054 1478.2260125854025
168.24195086053953 417.6070686120147 1241.4186653990155
121.31305963354096 299.09353665928455 888.1552615637094
70.4343973262275 172.84787219247667 512.6871558957039
27.392580145657877 67.0410092151098 198.65743622696587

VECTORS L float
68.98322973922701 -38.8362155130769 -107.50965592167425
630.6224215715662 -145.1822195620424 -415.4868944649638
1363.1393762126377 -190.05923713020715 -571.9641131926543
2078.371266418248 -215.13525962467259 -654.5770701282499
2699.2958816708297 -225.82196530301934 -693.8740454837989
3559.348783907501 -251.2263549386724 -778.4894930608466
4268.564399386039 -262.1107899318475 -815.6778777800224
5081.126560804182 -276.50001203893413 -866.9001126742442
5920.5046848086695 -291.66134164637225 -918.6013674805307
5922.463029370721 -268.4270480027052 -850.2161295598504
6369.326232003326 -269.16968366550896 -857.5330814425998
6675.354776219317 -266.5506173696328 -854.0468937612205
7070.383232851842 -271.5997998501811 -874.6104388760141
7071.075943297209 -266.58118044145635 -860.2723091130757
6809.278689748319 -254.73443288086693 -824.9819959839726
6206.605072315866 -233.62920100263466 -755.5576716894419
5149.537367021016 -195.80347041648196 -632.0182878030035
3725.6330636433063 -143.46550428486597 -460.5707567808415
2182.4362007582317 -84.94978303234763 -271.1891407150403
904.8276518527537 -35.75476001601487 -112.69917301302237
68.98322973922701 -38.8362155130769 -107.50965592167425
630.6224215715662 -145.1822195620424 -415.4868944649638
1363.1393762126377 -190.05923713020715 -571.9641131926543
2078.371266418248 -215.13525962467259 -654.5770701282499
2699.2958816708297 -225.82196530301934 -693.8740454837989
3559.348783907501 -251.2263549386724 -778.4894930608466
4268.564399386039 -262.1107899318475 -815.6778777800224
5081.126560804182 -276.50001203893413 -866.9001126742442
5920.5046848086695 -291.66134164637225 -918.6013674805307
5922.463029370721 -268.4270480027052 -850.2161295598504
6369.326232003326 -269.16968366550896 -857.5330814425998
6675.354776219317 -266.5506173696328 -854.0468937612205
7070.383232851842 -271.5997998501811 -874.6104388760141
7071.075943297209 -266.58118044145635 -860.2723091130757
6809.278689748319 -254.73443288086693 -824.9819959839726
6206.605072315866 -233.62920100263466 -755.5576716894419
5149.537367021016 -195.80347041648196 -632.0182878030035
3725.6330636433063 -143.46550428486597 -460.5707567808415
2182.4362007582317 -84.94978303234763 -271.1891407150403
904.8276518527537 -35.75476001601487 -112.69917301302237

SCALARS mu float
LOOKUP_TABLE default
-2.8772021100553333
-4.849507670615794
-0.3722822632592198
-0.17232603319414835
-0.18257695611073987
-0.15184340634262852
-0.1946610505978219
-0.20984359820865198
-0.21198396896422433
-0.22167937777046107
-0.22454779820494405
-0.2296917616439011
-0.20860052079574154
-0.25382688021087985
-0.2035344742205003
-0.23860037546590676
-0.1895268317161845
-0.2699149847892302
-0.28684342349511405
-0.3198169264731302
-2.8772021100553333
-4.849507670615794
-0.3722822632592198
-0.17232603319414835
-0.18257695611073987
-0.15184340634262852
-0.1946610505978219
-0.20984359820865198
-0.21198396896422433
-0.22167937777046107
-0.22454779820494405
-0.2296917616439011
-0.20860052079574154
-0.25382688021087985
-0.2035344742205003
-0.23860037546590676
-0.1895268317161845
-0.2699149847892302
-0.28684342349511405
-0.3198169264731302