# vtk DataFile Version 4.0
[MyVLM domain - lattices] 
ASCII
DATASET UNSTRUCTURED_GRID
POINTS 152 float
0.0 -0.39238427118509955 2.287360431229575
0.0 1.0035917094745077 4.035362893232457
0.0 2.3249069017258837 5.792392198246864
0.0 3.61414151914749 7.522719304763664
0.0 4.871676797705774 9.226024317824011
0.0 6.125295961961401 10.878994343946143
0.0 7.398717285999447 12.461727388093111
0.0 8.697950619024276 13.969180588014101
0.0 9.985915519662269 15.432468128389601
0.0 11.247610804202782 16.864177496938442
0.0 12.483176627201125 18.264191090024955
0.0 13.692916683673705 19.632254077272876
0.0 14.877145104289713 20.968102871753555
0.0 16.03840213559617 22.269605953526284
0.0 17.1750035443634 23.538176562072902
0.0 18.283260642965693 24.776909873819662
0.0 19.36262536268095 25.98626577302914
0.0 20.413994038555124 27.165492145294877
0.0 21.438012532882468 28.31404704780396
0.0 22.4346810386891 29.431930318588257
0.0 23.40399974384614 30.519141800005176
0.0 24.345968831069698 31.575681338737677
0.0 25.260588477920894 32.601548785794314
0.0 26.147858856805858 33.59674399650917
0.0 27.00778013497569 34.56126683054189
0.0 27.840352474526515 35.495117151877686
0.0 28.645576032399436 36.39829482882732
0.0 29.4234509603806 37.27079973402712
0.0 30.173977177548245 38.1126319353785
0.0 30.897151699817776 38.923793936825724
0.0 31.592974047593934 39.70428614079702
0.0 32.26144482664539 40.454108038992096
0.0 32.90256461893333 41.17325914308755
0.0 33.516333982611435 41.86173898473684
0.0 34.10275345202588 42.519547115570276
0.0 34.661823537715314 43.14668310719506
0.0 35.19386301629306 43.74287947427254
0.0 35.69988292523621 44.30728785562857
0.0 36.18143050292573 44.838609964108365
0.0 36.63931293674744 45.33616848907416
0.0 37.073068388061564 45.800350959158266
0.0 37.48293702310383 46.23095585096086
0.0 37.8780212434099 46.62034534271056
0.0 38.258117069637706 46.96869059339802
0.0 38.61635414774581 47.28175651456551
0.0 38.948047247387564 47.563474481268855
0.0 39.252001619023844 47.814847007405696
0.0 39.52933680534273 48.03493468511938
0.0 39.779051923808034 48.224577354576866
0.0 39.99917493337449 48.38542975469191
0.0 40.187998694032785 48.51892434601671
-0.8152906132198464 2.2480011831108087 0.07181397036403125
-0.840508508580286 3.725383213412185 1.7515086461369045
-0.8937965186637556 5.2200914113854955 3.3630439440013173
-0.9506477078574832 6.694721420488577 4.937805845736224
-1.02068187720969 8.148501304320424 6.476442082890996
-1.0489549773990687 9.557733808271916 7.998837013068063
-0.9930987765435385 10.905731602628947 9.518992968475867
-0.9074282632533693 12.177652267855498 11.049364217872856
-0.8389431825969345 13.404748225039224 12.563726866250986
-0.7804380392478915 14.601902874657586 14.049592257758952
-0.7250391551382538 15.772174363939952 15.504394302184506
-0.6716005320172311 16.915331383344252 16.928327091279083
-0.6190912009116674 18.030817021735064 18.321857928971024
-0.5668551203522249 19.115927419876634 19.687255622547802
-0.5160737545271722 20.17225792532655 21.02318151646224
-0.46824322159258325 21.20363949306235 22.326421057805632
-0.42447592168765613 22.210619912909582 23.596514596337396
-0.38457409080794247 23.19230801223054 24.834209914689158
-0.3477110964547294 24.148127921629417 26.03999022465853
-0.31305686768839563 25.078174797496054 27.21377568055391
-0.2804728235147938 25.982480431931034 28.355539605635403
-0.25028172479702737 26.86104686748261 29.465280286001537
-0.22269967179246206 27.713888814659203 30.54298537807011
-0.19756508903559172 28.541043122247597 31.58862396203774
-0.17527331282134875 29.34251824082945 32.602188947024466
-0.15618952887337012 30.11832913105673 33.58366777955273
-0.1399679949396797 30.86851943189786 34.533023842180235
-0.12575834684106657 31.593142012208343 35.45021277266983
-0.11252036551220733 32.29224356177679 36.3351953936371
-0.1000861977220127 32.96583161507248 37.18796538291166
-0.08845640514293837 33.61390957052322 38.00851988887399
-0.07764813403821604 34.23648139174717 38.79685558565355
-0.06766754153320646 34.83355148508415 39.55296877589223
-0.05846867713071907 35.40512526182823 40.27685491897517
-0.05000632361005495 35.9512076578362 40.96850987322675
-0.04224556628624775 36.47180302307579 41.62792998859065
-0.03513713503931205 36.96668120889413 42.25530838271661
-0.02861025434192226 37.43509919502044 42.85126852363981
-0.022599563624171346 37.87475671300606 43.41774056576715
-0.017476911002667815 38.28446285416968 43.95572380013383
-0.0133557109559299 38.66637143966074 44.46341095620777
-0.010110762084749267 39.02042248992329 44.94085236281223
-0.007505342360414162 39.335497623746264 45.39737744952072
-0.005475063785658977 39.61149885507929 45.83306843639195
-0.0039854477514337135 39.856798960248724 46.24089972989854
-0.0029419419370200197 40.07690338257711 46.6162517145791
-0.0022286575278371427 40.27269134349726 46.95838663605361
-0.0017402354220080998 40.44190186816416 47.269201677480645
-0.0014049497010025483 40.58529404140818 47.548059891059
-0.0011720086804935075 40.70505065588731 47.79312969627441
-0.0010052173229957839 40.803061264284274 48.00282557016774
-0.6209246706750498 2.316420078482299 1.4740863967456048
-0.6503643852165156 3.77061531069918 3.146426607736748
-0.6916665849454646 5.2104358645619495 4.777207609027894
-0.73924859440019 6.626935811410034 6.3739359260586665
-0.7761138204782846 8.014459762180525 7.9413569937059165
-0.7657701577284777 9.36430118508293 9.486776459583883
-0.7126976399238405 10.66835243955963 11.016997441894173
-0.6548892921938638 11.92888345217134 12.530115246096903
-0.6072679581918097 13.156684952869433 14.017075374669732
-0.5645539478948045 14.356627393399563 15.473791033349222
-0.5237398826833068 15.529826319090931 16.899326168461073
-0.4840093998483369 16.676063375400172 18.293864001222094
-0.4447298704739596 17.794472570590123 19.658131184979535
-0.40609832807977386 18.88474521444614 20.992386741578667
-0.3691188660449083 19.948244555311973 22.295486769837023
-0.3347696787300898 20.986083027945305 23.566497826159736
-0.3033937546858495 21.998175397082054 24.80549143142546
-0.27460694522350193 22.984164296627185 26.012767451392744
-0.24778798655367185 23.943950216118502 27.188409385253692
-0.22257363420119602 24.877580808852063 28.332377247145168
-0.19903295561693296 25.785068809144594 29.44466035170671
-0.17736802372105853 26.666420544427 30.525253389593367
-0.15759928531052017 27.521655393180897 31.57414010032838
-0.1398144006963527 28.35079038512659 32.5913061942797
-0.12429856563551955 29.15383434064509 33.57674427026889
-0.11105907142989367 29.930809274473713 34.530435855737984
-0.09964737816777985 30.68175141563733 35.45235055092557
-0.08935451713247772 31.40669810748553 36.342457021040794
-0.07972746121283251 32.10566930098923 37.20073852523131
-0.07070347607435665 32.778668663024845 38.02719198662246
-0.06228920219293291 33.42569897013131 38.82181507542147
-0.05449337833928344 34.046763509509084 39.58460503333963
-0.04730108199897208 34.64186610528524 40.31555865155332
-0.04067812527779026 35.21101077420383 41.014672559614105
-0.03459445871111351 35.754201129059645 41.681943726027185
-0.029018512997084925 36.27139240623977 42.31740971192367
-0.023905271017962866 36.762385894159124 42.9212372561213
-0.0192036817372851 37.22636014403018 43.49411563599473
-0.015028677985064689 37.662300267650046 44.036896443860684
-0.011562233234474143 38.07061052578754 44.54924046465715
-0.008799927390254687 38.452048399989685 45.03051209589739
-0.006606039166936287 38.80358982594029 45.48324882883378
-0.004867652304777427 39.12214096869053 45.91004669923082
-0.003547691826409759 39.40992058292094 46.30904395085437
-0.00259777113317015 39.670688552951354 46.67708566615841
-0.001938974799321436 39.906104130579315 47.01277956757159
-0.0014883348561919659 40.115639757418855 47.316568329140985
-0.001179444421128993 40.29874705723347 47.588912093164396
-0.000966359393061021 40.456157618633625 47.82919698390863
-0.0008164597513084843 40.588938673490254 48.03652748750439

CELLS 100 350
4 0 51 52 1
4 1 52 53 2
4 2 53 54 3
4 3 54 55 4
4 4 55 56 5
4 5 56 57 6
4 6 57 58 7
4 7 58 59 8
4 8 59 60 9
4 9 60 61 10
4 10 61 62 11
4 11 62 63 12
4 12 63 64 13
4 13 64 65 14
4 14 65 66 15
4 15 66 67 16
4 16 67 68 17
4 17 68 69 18
4 18 69 70 19
4 19 70 71 20
4 20 71 72 21
4 21 72 73 22
4 22 73 74 23
4 23 74 75 24
4 24 75 76 25
4 25 76 77 26
4 26 77 78 27
4 27 78 79 28
4 28 79 80 29
4 29 80 81 30
4 30 81 82 31
4 31 82 83 32
4 32 83 84 33
4 33 84 85 34
4 34 85 86 35
4 35 86 87 36
4 36 87 88 37
4 37 88 89 38
4 38 89 90 39
4 39 90 91 40
4 40 91 92 41
4 41 92 93 42
4 42 93 94 43
4 43 94 95 44
4 44 95 96 45
4 45 96 97 46
4 46 97 98 47
4 47 98 99 48
4 48 99 100 49
4 49 100 101 50
1 102
1 103
1 104
1 105
1 106
1 107
1 108
1 109
1 110
1 111
1 112
1 113
1 114
1 115
1 116
1 117
1 118
1 119
1 120
1 121
1 122
1 123
1 124
1 125
1 126
1 127
1 128
1 129
1 130
1 131
1 132
1 133
1 134
1 135
1 136
1 137
1 138
1 139
1 140
1 141
1 142
1 143
1 144
1 145
1 146
1 147
1 148
1 149
1 150
1 151

CELL_TYPES 100
9
9
9
9
9
9
9
9
9
9
9
9
9
9
9
9
9
9
9
9
9
9
9
9
9
9
9
9
9
9
9
9
9
9
9
9
9
9
9
9
9
9
9
9
9
9
9
9
9
9
1
1
1
1
1
1
1
1
1
1
1
1
1
1
1
1
1
1
1
1
1
1
1
1
1
1
1
1
1
1
1
1
1
1
1
1
1
1
1
1
1
1
1
1
1
1
1
1
1
1

CELL_DATA 100

VECTORS S float
1.449376648782833e-17 -2.6940334271229015e-15 -2.315976750274842e-15
-0.0 0.0 0.0
-1.5427658630502735e-16 1.6219942639326398e-14 1.3830167783479065e-14
1.326453070554e-19 6.718306153812001e-16 5.809513851113123e-16
0.0 0.0 0.0
-8.969506918150134e-17 -2.1490408572483772e-14 -1.8599673683390164e-14
-1.5523983635500623e-16 -4.3016803116945395e-14 -3.7157836562109346e-14
0.0 0.0 0.0
-7.491955425527976e-17 -2.152897930973403e-14 -1.8555080271660113e-14
1.662149677537258e-16 4.30685336694781e-14 3.709781729335017e-14
-1.7468676786767017e-16 -4.307938033462687e-14 -3.708518224713154e-14
-1.7777109374536655e-16 -4.30882832870353e-14 -3.707482310948614e-14
-1.7425812218202086e-16 -4.310530776716716e-14 -3.7055044787314944e-14
1.6404974884997687e-16 4.3114150099348236e-14 3.704480282949333e-14
0.0 0.0 0.0
7.166107027403536e-17 2.156470915610871e-14 1.8513555861847943e-14
-1.3291631009385605e-16 -4.313608932749932e-14 -3.7019378689677854e-14
-6.297353143784142e-17 -2.1570865329733485e-14 -1.8506414299024977e-14
0.0 0.0 0.0
5.595951835692036e-17 2.1576576057055932e-14 1.8499778407664837e-14
5.4113484724143915e-17 2.1578680932288732e-14 1.8497328669285352e-14
0.0 0.0 0.0
0.0 0.0 0.0
0.0 0.0 0.0
-4.5111670196231495e-17 -2.159035487488026e-14 -1.848372549731959e-14
8.415793540061645e-17 4.318507340342676e-14 3.696236762394714e-14
-4.0896183195915557e-17 -2.1592280930160518e-14 -1.848148529424901e-14
0.0 0.0 0.0
3.83471776650055e-17 2.1595814195712478e-14 1.8477361977959538e-14
0.0 0.0 0.0
0.0 0.0 0.0
7.05603500071834e-17 4.320288546501077e-14 3.694157517647877e-14
0.0 0.0 0.0
-3.362138217667924e-17 -2.1605344398831938e-14 -1.846622673847687e-14
-3.273912839381099e-17 -2.1608078412231668e-14 -1.8463029069647158e-14
-3.2181418501932597e-17 -2.1610015416202852e-14 -1.8460762850275023e-14
-3.138882905450034e-17 -2.1611944167254342e-14 -1.845850619630981e-14
0.0 0.0 0.0
3.035783811636978e-17 2.161562538721549e-14 1.84541969336936e-14
5.971216149583596e-17 4.3233995294612616e-14 3.6905180572765764e-14
-2.958609620859258e-17 -2.161874632697224e-14 -1.8450541966545365e-14
2.8828824505587727e-17 2.1620468260091588e-14 1.844852536273742e-14
-2.79739158544642e-17 -2.1622120526203325e-14 -1.8446590155274898e-14
0.0 0.0 0.0
0.0 0.0 0.0
5.390141577368278e-17 4.325272084080556e-14 3.6883241482955186e-14
-2.657166022143357e-17 -2.1627559514118312e-14 -1.8440215030103627e-14
0.0 0.0 0.0
0.0 0.0 0.0
-1.2856593581429439e-17 -1.081520418345583e-14 -9.21843722735801e-15
1.449376648782833e-17 -2.6940334271229015e-15 -2.315976750274842e-15
-0.0 0.0 0.0
-1.5427658630502735e-16 1.6219942639326398e-14 1.3830167783479065e-14
1.326453070554e-19 6.718306153812001e-16 5.809513851113123e-16
0.0 0.0 0.0
-8.969506918150134e-17 -2.1490408572483772e-14 -1.8599673683390164e-14
-1.5523983635500623e-16 -4.3016803116945395e-14 -3.7157836562109346e-14
0.0 0.0 0.0
-7.491955425527976e-17 -2.152897930973403e-14 -1.8555080271660113e-14
1.662149677537258e-16 4.30685336694781e-14 3.709781729335017e-14
-1.7468676786767017e-16 -4.307938033462687e-14 -3.708518224713154e-14
-1.7777109374536655e-16 -4.30882832870353e-14 -3.707482310948614e-14
-1.7425812218202086e-16 -4.310530776716716e-14 -3.7055044787314944e-14
1.6404974884997687e-16 4.3114150099348236e-14 3.704480282949333e-14
0.0 0.0 0.0
7.166107027403536e-17 2.156470915610871e-14 1.8513555861847943e-14
-1.3291631009385605e-16 -4.313608932749932e-14 -3.7019378689677854e-14
-6.297353143784142e-17 -2.1570865329733485e-14 -1.8506414299024977e-14
0.0 0.0 0.0
5.595951835692036e-17 2.1576576057055932e-14 1.8499778407664837e-14
5.4113484724143915e-17 2.1578680932288732e-14 1.8497328669285352e-14
0.0 0.0 0.0
0.0 0.0 0.0
0.0 0.0 0.0
-4.5111670196231495e-17 -2.159035487488026e-14 -1.848372549731959e-14
8.415793540061645e-17 4.318507340342676e-14 3.696236762394714e-14
-4.0896183195915557e-17 -2.1592280930160518e-14 -1.848148529424901e-14
0.0 0.0 0.0
3.83471776650055e-17 2.1595814195712478e-14 1.8477361977959538e-14
0.0 0.0 0.0
0.0 0.0 0.0
7.05603500071834e-17 4.320288546501077e-14 3.694157517647877e-14
0.0 0.0 0.0
-3.362138217667924e-17 -2.1605344398831938e-14 -1.846622673847687e-14
-3.273912839381099e-17 -2.1608078412231668e-14 -1.8463029069647158e-14
-3.2181418501932597e-17 -2.1610015416202852e-14 -1.8460762850275023e-14
-3.138882905450034e-17 -2.1611944167254342e-14 -1.845850619630981e-14
0.0 0.0 0.0
3.035783811636978e-17 2.161562538721549e-14 1.84541969336936e-14
5.971216149583596e-17 4.3233995294612616e-14 3.6905180572765764e-14
-2.958609620859258e-17 -2.161874632697224e-14 -1.8450541966545365e-14
2.8828824505587727e-17 2.1620468260091588e-14 1.844852536273742e-14
-2.79739158544642e-17 -2.1622120526203325e-14 -1.8446590155274898e-14
0.0 0.0 0.0
0.0 0.0 0.0
5.390141577368278e-17 4.325272084080556e-14 3.6883241482955186e-14
-2.657166022143357e-17 -2.1627559514118312e-14 -1.8440215030103627e-14
0.0 0.0 0.0
0.0 0.0 0.0
-1.2856593581429439e-17 -1.081520418345583e-14 -9.21843722735801e-15

SCALARS Gamma float
LOOKUP_TABLE default
-0.0
-0.0
-0.0
51.21449152777693
54.832668456816066
54.87993436554528
52.70083539598719
47.97516571628011
44.93306526532414
47.52439446283198
54.0901844613122
54.711767667713886
50.7760938042328
45.87619893891665
44.888027346030896
44.13404457386882
40.509096512946265
38.35780843032036
33.63272458421671
33.95014886676789
33.48694592567415
35.13880165888155
36.80146430811726
34.725093686895896
36.825321011592415
38.08531359350431
38.172887076258704
38.30072844452603
38.51423037667105
38.794830405118425
39.1312497805709
39.43360309897988
37.46166094321262
37.77821220538979
38.0362047017581
38.342183183387135
38.59447643942144
40.936110040882994
40.86569936426087
40.47638576798853
39.784740470238354
38.59972587270765
36.54384799671425
33.87440913020287
31.193854241283567
28.574704092709535
25.757584438967985
23.022697341354753
20.244038175279467
17.66645661170949
-0.0
-0.0
-0.0
51.21449152777693
54.832668456816066
54.87993436554528
52.70083539598719
47.97516571628011
44.93306526532414
47.52439446283198
54.0901844613122
54.711767667713886
50.7760938042328
45.87619893891665
44.888027346030896
44.13404457386882
40.509096512946265
38.35780843032036
33.63272458421671
33.95014886676789
33.48694592567415
35.13880165888155
36.80146430811726
34.725093686895896
36.825321011592415
38.08531359350431
38.172887076258704
38.30072844452603
38.51423037667105
38.794830405118425
39.1312497805709
39.43360309897988
37.46166094321262
37.77821220538979
38.0362047017581
38.342183183387135
38.59447643942144
40.936110040882994
40.86569936426087
40.47638576798853
39.784740470238354
38.59972587270765
36.54384799671425
33.87440913020287
31.193854241283567
28.574704092709535
25.757584438967985
23.022697341354753
20.244038175279467
17.66645661170949

VECTORS Ftot float
115.79595192652856 -25.413609573566475 30.286760510084356
139.34968090815562 -56.54465433937438 67.38729495094698
142.74983071650814 -83.98992539208858 100.09529532774089
1273.0577919826862 8.229181132059464 -9.807156178240321
1301.1938247442363 142.26821275907275 -169.54865366758182
1395.582611558567 185.222392487316 -220.7394516756529
1477.2149858051387 181.11345346208677 -215.84260883058548
1466.099049898939 177.31445977902888 -211.3151444605585
1481.2198036743068 189.98718912987536 -226.41791519240383
1673.1632493492546 243.3275786462126 -289.98651602887304
2031.8057593991932 317.7471750756787 -378.6763374331002
2188.8719816665835 355.10923140588216 -423.2027022913272
2156.3904352336917 356.11965256665746 -424.4068753397145
2066.8705233289356 327.88010473117345 -390.7522927535404
2139.1163453393624 318.74367414497516 -379.8639187789511
2212.589124252628 317.82012493147175 -378.7632756858208
2131.5504042719444 288.5438569306029 -343.87317811803456
2109.695594237449 274.36882586000695 -326.9800339145174
1929.5751413966445 236.7604256672571 -282.1600878730871
2023.9948519023178 240.67458304958672 -286.82479899545757
2069.0452232166704 240.48279026541212 -286.5962292558838
2248.656318910259 245.48990827794043 -292.5634801358576
2430.494277762568 259.99590961424343 -309.8510593425731
2362.5828203520423 247.49655851585402 -294.95491276597113
2576.3889616449155 265.54145570318525 -316.4599838169662
2738.681971329159 266.4649846331339 -317.5606027370972
2815.0716264559173 265.8205118056637 -316.7925499296303
2891.7570194857526 267.2204714379784 -318.46095685092814
2973.2898909076425 268.4981182574748 -319.9835970381296
3058.233114808447 270.92280142478216 -322.8732219136708
3146.027040525703 274.1645862076489 -326.73663057506946
3229.633402657217 277.1066682940998 -330.24286747130435
3121.395148302711 266.9922697967257 -318.18899672512936
3200.4012452210563 267.76792431947047 -319.1133857892224
3272.3253474066005 271.01522308081076 -322.98336575427635
3346.2871952159203 275.6537177863336 -328.5113084838124
3414.380783097811 277.6175978321029 -330.851769583782
3667.144786653408 297.6311245224488 -354.7029619174818
3704.2997999210424 298.1059347788615 -355.2688187463623
3709.5516450430987 296.17518755774944 -352.96784380921065
3682.8817064703167 294.68859007196323 -351.1961859147834
3607.488088446871 284.44103612081483 -338.98362667819936
3445.8249004301665 266.5228866886654 -317.62960771979544
3219.6567890465817 247.08928809884134 -294.46954678333896
2986.3968809596413 227.734153714967 -271.40299584621306
2753.0621605685706 211.08228253104363 -251.5580685393564
2496.2053447958715 190.25256067124957 -226.7341726802088
2242.764458053236 169.8564974633405 -202.42709107740467
1980.8797908599333 149.75912983206072 -178.4759810011405
1735.333226920155 130.54580551299017 -155.57843271821054
115.79595192652856 -25.413609573566475 30.286760510084356
139.34968090815562 -56.54465433937438 67.38729495094698
142.74983071650814 -83.98992539208858 100.09529532774089
1273.0577919826862 8.229181132059464 -9.807156178240321
1301.1938247442363 142.26821275907275 -169.54865366758182
1395.582611558567 185.222392487316 -220.7394516756529
1477.2149858051387 181.11345346208677 -215.84260883058548
1466.099049898939 177.31445977902888 -211.3151444605585
1481.2198036743068 189.98718912987536 -226.41791519240383
1673.1632493492546 243.3275786462126 -289.98651602887304
2031.8057593991932 317.7471750756787 -378.6763374331002
2188.8719816665835 355.10923140588216 -423.2027022913272
2156.3904352336917 356.11965256665746 -424.4068753397145
2066.8705233289356 327.88010473117345 -390.7522927535404
2139.1163453393624 318.74367414497516 -379.8639187789511
2212.589124252628 317.82012493147175 -378.7632756858208
2131.5504042719444 288.5438569306029 -343.87317811803456
2109.695594237449 274.36882586000695 -326.9800339145174
1929.5751413966445 236.7604256672571 -282.1600878730871
2023.9948519023178 240.67458304958672 -286.82479899545757
2069.0452232166704 240.48279026541212 -286.5962292558838
2248.656318910259 245.48990827794043 -292.5634801358576
2430.494277762568 259.99590961424343 -309.8510593425731
2362.5828203520423 247.49655851585402 -294.95491276597113
2576.3889616449155 265.54145570318525 -316.4599838169662
2738.681971329159 266.4649846331339 -317.5606027370972
2815.0716264559173 265.8205118056637 -316.7925499296303
2891.7570194857526 267.2204714379784 -318.46095685092814
2973.2898909076425 268.4981182574748 -319.9835970381296
3058.233114808447 270.92280142478216 -322.8732219136708
3146.027040525703 274.1645862076489 -326.73663057506946
3229.633402657217 277.1066682940998 -330.24286747130435
3121.395148302711 266.9922697967257 -318.18899672512936
3200.4012452210563 267.76792431947047 -319.1133857892224
3272.3253474066005 271.01522308081076 -322.98336575427635
3346.2871952159203 275.6537177863336 -328.5113084838124
3414.380783097811 277.6175978321029 -330.851769583782
3667.144786653408 297.6311245224488 -354.7029619174818
3704.2997999210424 298.1059347788615 -355.2688187463623
3709.5516450430987 296.17518755774944 -352.96784380921065
3682.8817064703167 294.68859007196323 -351.1961859147834
3607.488088446871 284.44103612081483 -338.98362667819936
3445.8249004301665 266.5228866886654 -317.62960771979544
3219.6567890465817 247.08928809884134 -294.46954678333896
2986.3968809596413 227.734153714967 -271.40299584621306
2753.0621605685706 211.08228253104363 -251.5580685393564
2496.2053447958715 190.25256067124957 -226.7341726802088
2242.764458053236 169.8564974633405 -202.42709107740467
1980.8797908599333 149.75912983206072 -178.4759810011405
1735.333226920155 130.54580551299017 -155.57843271821054

VECTORS D float
91.61107030506831 20.678428127977572 -23.480627398342786
59.92830568999713 24.83663688051092 -28.54470688660651
12.592796436226319 7.548885100501538 -8.712816182803614
531.3397693401089 414.7726015927078 -479.77751502346445
516.3694428699528 494.5468268830754 -572.8601230986567
473.74847641993387 535.7761104963739 -621.3302779946403
410.7885578944317 533.5860838397866 -619.436985372096
345.9297090399315 505.8768139789755 -587.789607872285
308.58550824870224 500.25347699771413 -581.6771302853695
321.2737791398745 570.3002750381452 -663.5268299853633
359.1594468718236 691.160843191628 -804.5671999221361
355.5757370980583 735.8735489555801 -856.9356874530389
322.7965838593443 712.8500112978002 -830.7605410291828
279.72470827304494 655.4305129780709 -764.0536896537127
260.60481548208384 644.637165046419 -751.6616485952006
246.972130679767 642.1271084593817 -748.9097570372452
216.740443976496 590.0601278516368 -688.3339382130263
198.05844234603154 562.6960615975833 -656.5460607071053
166.48804892417164 492.14602739262654 -574.380747332988
163.17428519014305 500.40969487763573 -584.1291045489324
157.01371919999403 498.313153058338 -581.7833096934324
158.30634225983061 518.3681012829607 -605.4795792769295
162.2641270623597 547.3448891794832 -639.4617096907449
149.95695815411685 520.0530962579347 -607.6995469125633
156.21806618660494 555.9726047689421 -649.7982832138053
156.00700294043176 568.7936694234606 -664.9066922003528
152.8991016323985 570.3901753694487 -666.736341796398
150.73179274091794 574.2151261282997 -671.3174019757686
148.9472458914629 578.603556542702 -676.5644696189487
147.78746108655378 584.6261070262155 -683.7296425360066
147.1146176370212 591.88469456917 -692.3478910407257
146.45374374039824 598.5566437914498 -700.2870838581091
138.27361339476326 573.4335646871524 -671.026455892397
137.50757970583183 578.0375405993518 -676.549871932459
137.16062832596117 584.2789886833705 -684.050091340315
137.46651592113702 592.4630426503288 -693.7719452093016
137.1589569646478 597.5784910320664 -699.9016120477477
144.96966047905323 637.9836030227168 -747.3714625876385
143.8275926797714 638.8684361800655 -748.5509736670439
141.70871042610693 634.7270790887334 -743.8047682754
139.15564148555794 628.2320747866128 -736.3310495762065
133.89750789339783 608.8989986756134 -713.7991423868729
125.4924369489642 574.4873211923888 -673.5740594809098
115.75876440867461 533.1551900489889 -625.2138088707791
106.16294023465858 491.65999433935366 -576.6405219867531
97.37236506510753 453.1922563159415 -531.5977085973706
87.45261284955797 408.8304655642112 -479.62179247099
77.87826231034603 365.4975447322849 -428.8344154462447
68.37288268549985 321.9794488885013 -377.8131557508112
59.49682662376994 280.99324765393334 -329.7483292556019
91.61107030506831 20.678428127977572 -23.480627398342786
59.92830568999713 24.83663688051092 -28.54470688660651
12.592796436226319 7.548885100501538 -8.712816182803614
531.3397693401089 414.7726015927078 -479.77751502346445
516.3694428699528 494.5468268830754 -572.8601230986567
473.74847641993387 535.7761104963739 -621.3302779946403
410.7885578944317 533.5860838397866 -619.436985372096
345.9297090399315 505.8768139789755 -587.789607872285
308.58550824870224 500.25347699771413 -581.6771302853695
321.2737791398745 570.3002750381452 -663.5268299853633
359.1594468718236 691.160843191628 -804.5671999221361
355.5757370980583 735.8735489555801 -856.9356874530389
322.7965838593443 712.8500112978002 -830.7605410291828
279.72470827304494 655.4305129780709 -764.0536896537127
260.60481548208384 644.637165046419 -751.6616485952006
246.972130679767 642.1271084593817 -748.9097570372452
216.740443976496 590.0601278516368 -688.3339382130263
198.05844234603154 562.6960615975833 -656.5460607071053
166.48804892417164 492.14602739262654 -574.380747332988
163.17428519014305 500.40969487763573 -584.1291045489324
157.01371919999403 498.313153058338 -581.7833096934324
158.30634225983061 518.3681012829607 -605.4795792769295
162.2641270623597 547.3448891794832 -639.4617096907449
149.95695815411685 520.0530962579347 -607.6995469125633
156.21806618660494 555.9726047689421 -649.7982832138053
156.00700294043176 568.7936694234606 -664.9066922003528
152.8991016323985 570.3901753694487 -666.736341796398
150.73179274091794 574.2151261282997 -671.3174019757686
148.9472458914629 578.603556542702 -676.5644696189487
147.78746108655378 584.6261070262155 -683.7296425360066
147.1146176370212 591.88469456917 -692.3478910407257
146.45374374039824 598.5566437914498 -700.2870838581091
138.27361339476326 573.4335646871524 -671.026455892397
137.50757970583183 578.0375405993518 -676.549871932459
137.16062832596117 584.2789886833705 -684.050091340315
137.46651592113702 592.4630426503288 -693.7719452093016
137.1589569646478 597.5784910320664 -699.9016120477477
144.96966047905323 637.9836030227168 -747.3714625876385
143.8275926797714 638.8684361800655 -748.5509736670439
141.70871042610693 634.7270790887334 -743.8047682754
139.15564148555794 628.2320747866128 -736.3310495762065
133.89750789339783 608.8989986756134 -713.7991423868729
125.4924369489642 574.4873211923888 -673.5740594809098
115.75876440867461 533.1551900489889 -625.2138088707791
106.16294023465858 491.65999433935366 -576.6405219867531
97.37236506510753 453.1922563159415 -531.5977085973706
87.45261284955797 408.8304655642112 -479.62179247099
77.87826231034603 365.4975447322849 -428.8344154462447
68.37288268549985 321.9794488885013 -377.8131557508112
59.49682662376994 280.99324765393334 -329.7483292556019

VECTORS L float
24.18488162146026 -46.09203770154405 53.76738790842714
79.4213752181585 -81.38129121988531 95.9320018375535
130.15703428028183 -91.53881049259013 108.8081115105445
741.7180226425775 -406.5434204606484 469.9703588452242
784.8243818742833 -352.2786141240028 403.311469431075
921.8341351386332 -350.55371800905795 400.59082631898735
1066.4264279107067 -352.47263037769983 403.5943765415106
1120.169340859008 -328.56235419994664 376.47446341172656
1172.6342954256045 -310.26628786783874 355.2592150929656
1351.8894702093805 -326.9726963919326 373.54031395649025
1672.6463125273697 -373.4136681159494 425.8908624890359
1833.2962445685255 -380.764317549698 433.7329851617115
1833.5938513743479 -356.7303587311426 406.35366568946836
1787.1458150558908 -327.5504082468973 373.30139690017234
1878.5115298572784 -325.8934909014439 371.7977298162498
1965.6169935728612 -324.30698352790984 370.14648135142426
1914.8099602954487 -301.51627092103405 344.46076009499177
1911.637151891417 -288.3272357375764 329.56602679258805
1763.0870924724727 -255.38560172536953 292.22065945990096
1860.8205667121752 -259.73511182804907 297.3043055534749
1912.0315040166765 -257.830362792926 295.1870804375486
2090.3499766504287 -272.87819300502025 312.9160991410718
2268.2301507002085 -287.34897956523974 329.6106503481718
2212.6258621979255 -272.55653774208065 312.7446341465921
2420.1708954583105 -290.431149065757 333.3382993968392
2582.674968388728 -302.3286847903267 347.3460894632555
2662.1725248235193 -304.569663563785 349.94379186676775
2741.0252267448345 -306.9946546903214 352.85644512484043
2824.34264501618 -310.1054382852272 356.5808725808191
2910.445653721894 -313.70330560143356 360.85642062233603
2998.912422888682 -317.72010836152134 365.6112604656563
3083.1796589168193 -321.44997549734995 370.0442163868049
2983.121534907948 -306.4412948904269 352.83745916726775
3062.8936655152243 -310.26961627988135 357.43648614323655
3135.1647190806393 -313.26376560255954 361.06672558603844
3208.8206792947835 -316.80932486399536 365.26063672548946
3277.221826133164 -319.9608931999635 369.04984246396566
3522.1751261743557 -340.352478500268 392.66850067015673
3560.472207241271 -340.7625014012042 393.28215492068176
3567.8429346169914 -338.5518915309837 390.83692446618915
3543.726064984759 -333.54348471464965 385.13486366142325
3473.5905805534726 -324.4579625547985 374.81551570867344
3320.332463481203 -307.9644345037236 355.9444517611144
3103.8980246379074 -286.0659019501475 330.7442620874401
2880.233940724983 -263.92584062438686 305.2375261405402
2655.6897955034638 -242.10997378489796 280.0396400580141
2408.752731946314 -218.57790489296173 252.8876197907812
2164.88619574289 -195.6410472689444 226.40732436884005