# vtk DataFile Version 4.0
[MyVLM domain - lattices] 
ASCII
DATASET UNSTRUCTURED_GRID
POINTS 62 float
0.0 2.2873717900417647 0.39239780809032854
0.0 6.724326307074253 -3.017756192596768
0.0 11.0002446835412 -6.207819306135935
0.0 14.860421154382934 -9.481338043091498
0.0 18.458196054815183 -12.655568508080519
0.0 21.849546550495493 -15.663799712827359
0.0 25.03090685681112 -18.51028119395469
0.0 28.019019670906896 -21.175059781990427
0.0 30.809732189580817 -23.663084595069908
0.0 33.40267536253744 -25.974795450208568
0.0 35.79784970042609 -28.110191738838232
0.0 37.99525481965449 -30.069273918106397
0.0 39.99487783753648 -31.852057341000542
0.0 41.79671876080445 -33.45854199949734
0.0 43.40038815685603 -34.88919200129977
0.0 44.80296468616109 -36.14748886328798
0.0 45.98484485841511 -37.25679511545983
0.0 46.94655541608663 -38.21648301058603
0.0 47.67103248737608 -39.04688847918731
0.0 48.185918734427055 -39.715068279345125
0.0 48.51893416147317 -40.18798699642739
-0.8152938918039478 0.07182293986861565 -2.2479904936714963
-0.9232602711185554 4.209109589804656 -6.015274751555827
-1.045017403566863 8.099701433655287 -9.664552144662363
-0.8624275731409438 11.969670715384295 -12.92640026406142
-0.7172432011617597 15.7077811965767 -15.933385296510728
-0.5835709082011334 19.246791391451058 -18.765642524261686
-0.458823694439046 22.593417561186754 -21.41516781892496
-0.35706975050238215 25.730283920947837 -23.902668834502943
-0.27205245991127286 28.660746134859693 -26.22414644621866
-0.20240159072431146 31.384688324446508 -28.379738752661982
-0.1506132401889805 33.90184267120334 -30.369764927498316
-0.11426271706148827 36.211776337020304 -32.19474080710015
-0.08424963388989035 38.314047873838746 -33.85519248877731
-0.059335794404298196 40.20856399710945 -35.351231144726476
-0.038970351202568594 41.89575178337454 -36.68234780494426
-0.02333805368457717 43.3785368282449 -37.845055880350884
-0.011931771028020786 44.67604934851945 -38.81655686634915
-0.005641151376299379 45.78784250538025 -39.597383284705664
-0.0026418300562744777 46.73142586579302 -40.166668046084226
-0.0014569859069231085 47.47904574032647 -40.55748670957232
-0.001005086180947595 48.002823495395724 -40.80306373690138
-0.6519578110959388 2.7318119607669793 -3.4268942650235514
-0.7381041280070318 6.831375507624411 -7.03313202342341
-0.7152918662654275 10.758597785630359 -10.432751821924848
-0.5923765403635137 14.543871618135139 -13.589532904111058
-0.4878052910110849 18.146432546174243 -16.55205646040314
-0.39089797599006726 21.550135033152504 -19.33956399204275
-0.30596004185303555 24.752628871765225 -21.954856367028604
-0.23592082890512064 27.750230253488784 -24.40232377740314
-0.17792026898834412 30.54358886625461 -26.68119195524005
-0.1323805615924845 33.13251475623913 -28.791687278690965
-0.0993284839689258 35.51674519309394 -30.73412285759251
-0.07444213160676699 37.69595066122101 -32.50889139334242
-0.05384453561032071 39.669929026398194 -34.116233780126166
-0.036864804602575046 41.438756782389056 -35.556058856226166
-0.023365651832679663 43.00327733473442 -36.82736149005915
-0.013226184267224234 44.36894600935866 -37.92364027735599
-0.006589845901620062 45.54038447952511 -38.839387322401286
-0.0031061180372151964 46.52192412712281 -39.56944068526788
-0.0015370559861990949 47.311045755020196 -40.11680262818776
-0.0009232770329515139 47.89380757538335 -40.4980883268992

CELLS 40 140
4 0 21 22 1
4 1 22 23 2
4 2 23 24 3
4 3 24 25 4
4 4 25 26 5
4 5 26 27 6
4 6 27 28 7
4 7 28 29 8
4 8 29 30 9
4 9 30 31 10
4 10 31 32 11
4 11 32 33 12
4 12 33 34 13
4 13 34 35 14
4 14 35 36 15
4 15 36 37 16
4 16 37 38 17
4 17 38 39 18
4 18 39 40 19
4 19 40 41 20
1 42
1 43
1 44
1 45
1 46
1 47
1 48
1 49
1 50
1 51
1 52
1 53
1 54
1 55
1 56
1 57
1 58
1 59
1 60
1 61

CELL_TYPES 40
9
9
9
9
9
9
9
9
9
9
9
9
9
9
9
9
9
9
9
9
1
1
1
1
1
1
1
1
1
1
1
1
1
1
1
1
1
1
1
1

CELL_DATA 40

VECTORS S float
-0.0 0.0 -0.0
-1.4649971104626695e-16 -1.8701870398635523e-14 2.1401218385260684e-14
-5.09208184015555e-16 -3.74391884608019e-14 4.2769406615092925e-14
-3.831229298378165e-16 -3.737193185239941e-14 4.282950144731445e-14
0.0 0.0 -0.0
2.5772877462191807e-16 3.7361496884345494e-14 -4.2839542413814814e-14
0.0 0.0 -0.0
2.0828678133520422e-16 3.7407720206384285e-14 -4.279945505918101e-14
3.891789872531023e-16 7.486144992683746e-14 -8.555880390531733e-14
0.0 0.0 -0.0
1.77223553859032e-16 3.748101380066012e-14 -4.273542399546245e-14
0.0 0.0 -0.0
1.7090658686899871e-16 3.7525405972321836e-14 -4.2696474858426675e-14
0.0 0.0 -0.0
0.0 0.0 -0.0
-1.6359379435103142e-16 -3.751928768086939e-14 4.2701880014536554e-14
1.6242076268381324e-16 3.750276291313989e-14 -4.271639803590575e-14
0.0 0.0 -0.0
7.228483948173713e-17 1.8732278825855058e-14 -2.137498706055092e-14
0.0 0.0 -0.0
-0.0 0.0 -0.0
-1.4649971104626695e-16 -1.8701870398635523e-14 2.1401218385260684e-14
-5.09208184015555e-16 -3.74391884608019e-14 4.2769406615092925e-14
-3.831229298378165e-16 -3.737193185239941e-14 4.282950144731445e-14
0.0 0.0 -0.0
2.5772877462191807e-16 3.7361496884345494e-14 -4.2839542413814814e-14
0.0 0.0 -0.0
2.0828678133520422e-16 3.7407720206384285e-14 -4.279945505918101e-14
3.891789872531023e-16 7.486144992683746e-14 -8.555880390531733e-14
0.0 0.0 -0.0
1.77223553859032e-16 3.748101380066012e-14 -4.273542399546245e-14
0.0 0.0 -0.0
1.7090658686899871e-16 3.7525405972321836e-14 -4.2696474858426675e-14
0.0 0.0 -0.0
0.0 0.0 -0.0
-1.6359379435103142e-16 -3.751928768086939e-14 4.2701880014536554e-14
1.6242076268381324e-16 3.750276291313989e-14 -4.271639803590575e-14
0.0 0.0 -0.0
7.228483948173713e-17 1.8732278825855058e-14 -2.137498706055092e-14
0.0 0.0 -0.0

SCALARS Gamma float
LOOKUP_TABLE default
0.0
54.71609452077256
78.93904905303533
86.82239702115534
86.21055645402593
90.87916625481573
92.83487494404609
96.78690973023059
101.38059948148859
93.02230704530469
92.45171140101293
91.19275909685364
91.29876267817718
86.8460827208427
80.11746201349315
70.54778476506497
56.932513345587864
40.25779762467637
23.219186169825793
9.474593383647663
0.0
54.71609452077256
78.93904905303533
86.82239702115534
86.21055645402593
90.87916625481573
92.83487494404609
96.78690973023059
101.38059948148859
93.02230704530469
92.45171140101293
91.19275909685364
91.29876267817718
86.8460827208427
80.11746201349315
70.54778476506497
56.932513345587864
40.25779762467637
23.219186169825793
9.474593383647663

VECTORS Ftot float
108.24013681215679 49.89873567480901 41.87001070094487
1069.31904512372 -210.5248949678582 -176.65136172116559
1866.5068731799145 -612.6360384531439 -514.0626739119435
2687.9545960629007 -718.2867500561526 -602.7141470516453
3294.4485838960386 -708.1450440006423 -594.2042452409582
4095.2074014299747 -745.9807132855815 -625.9521413832963
4784.159412038353 -749.2094877932124 -628.661404881804
5571.586155433608 -776.3949011465402 -651.4726751999833
6404.5941841673 -812.141119432984 -681.4673137801209
6359.649594684107 -740.5403143156902 -621.3871046142033
6761.7216635200575 -738.9222842858741 -620.0294162129509
7066.658857322625 -733.0033892956602 -615.0628736096853
7432.929628800647 -747.7804363172226 -627.4622883153676
7375.361650374625 -723.734113264858 -607.2850275109588
7050.312241554975 -690.9746833130304 -579.7966019208022
6397.822285972888 -619.9925119989824 -520.235488151022
5291.393499633001 -517.9021039606898 -434.5714644193526
3818.9693284879254 -361.1753315177591 -303.0620874668838
2238.146143518017 -203.1097454941905 -170.42931253268662
925.5854238044001 -71.14417441496666 -59.69705051201067
108.24013681215679 49.89873567480901 41.87001070094487
1069.31904512372 -210.5248949678582 -176.65136172116559
1866.5068731799145 -612.6360384531439 -514.0626739119435
2687.9545960629007 -718.2867500561526 -602.7141470516453
3294.4485838960386 -708.1450440006423 -594.2042452409582
4095.2074014299747 -745.9807132855815 -625.9521413832963
4784.159412038353 -749.2094877932124 -628.661404881804
5571.586155433608 -776.3949011465402 -651.4726751999833
6404.5941841673 -812.141119432984 -681.4673137801209
6359.649594684107 -740.5403143156902 -621.3871046142033
6761.7216635200575 -738.9222842858741 -620.0294162129509
7066.658857322625 -733.0033892956602 -615.0628736096853
7432.929628800647 -747.7804363172226 -627.4622883153676
7375.361650374625 -723.734113264858 -607.2850275109588
7050.312241554975 -690.9746833130304 -579.7966019208022
6397.822285972888 -619.9925119989824 -520.235488151022
5291.393499633001 -517.9021039606898 -434.5714644193526
3818.9693284879254 -361.1753315177591 -303.0620874668838
2238.146143518017 -203.1097454941905 -170.42931253268662
925.5854238044001 -71.14417441496666 -59.69705051201067

VECTORS D float
50.681524940065486 -23.062819735356427 -19.964059089920216
503.39736882435284 -520.1706401572465 -451.1152661743319
657.3132648164504 -1039.8904963482578 -902.4662727925684
605.420451041319 -1272.7013792617993 -1105.1111303610062
504.5764798198357 -1309.8321462754327 -1138.448904945751
456.2282621917749 -1406.323394059265 -1223.7470570567766
407.00544014763227 -1440.1940209262232 -1255.1694113861017
379.694209142879 -1506.2856813328515 -1314.680945251852
363.2387049273648 -1583.735857710073 -1384.0702807046287
307.7701243290011 -1453.162285039655 -1271.7153049817366
288.5051026320683 -1452.6038681673729 -1272.8067407463675
272.6078135419113 -1444.0178218774308 -1266.6818277760951
269.17361288553303 -1472.6118807133562 -1293.182992344446
256.696247564808 -1430.5422472769749 -1256.7503651065797
243.5421160456354 -1363.6902041667431 -1197.8634207328246
220.6882525021078 -1232.6098428889354 -1082.1664069426145
184.88177109934767 -1027.392589600357 -901.2939723023719
132.25311109580488 -731.4598747762371 -641.115623810255
76.43565822260949 -421.3543695126842 -369.00150501028514
29.460882252651366 -162.1013778492729 -141.8631049334205
50.681524940065486 -23.062819735356427 -19.964059089920216
503.39736882435284 -520.1706401572465 -451.1152661743319
657.3132648164504 -1039.8904963482578 -902.4662727925684
605.420451041319 -1272.7013792617993 -1105.1111303610062
504.5764798198357 -1309.8321462754327 -1138.448904945751
456.2282621917749 -1406.323394059265 -1223.7470570567766
407.00544014763227 -1440.1940209262232 -1255.1694113861017
379.694209142879 -1506.2856813328515 -1314.680945251852
363.2387049273648 -1583.735857710073 -1384.0702807046287
307.7701243290011 -1453.162285039655 -1271.7153049817366
288.5051026320683 -1452.6038681673729 -1272.8067407463675
272.6078135419113 -1444.0178218774308 -1266.6818277760951
269.17361288553303 -1472.6118807133562 -1293.182992344446
256.696247564808 -1430.5422472769749 -1256.7503651065797
243.5421160456354 -1363.6902041667431 -1197.8634207328246
220.6882525021078 -1232.6098428889354 -1082.1664069426145
184.88177109934767 -1027.392589600357 -901.2939723023719
132.25311109580488 -731.4598747762371 -641.115623810255
76.43565822260949 -421.3543695126842 -369.00150501028514
29.460882252651366 -162.1013778492729 -141.8631049334205

VECTORS L float
57.55861187209133 72.96155541016545 61.834069790865094
565.9216762993669 309.64574518938844 274.4639044531665
1209.1936083634641 427.25445789511383 388.4035988806247
2082.534145021582 554.4146292056472 502.3969833093611
2789.8721040762034 601.6871022747904 544.2446597047931
3638.9791392382003 660.3426807736832 597.7949156734801
4377.153971890722 690.984533133011 626.5080065042981
5191.891946290728 729.8907801863114 663.2082700518686
6041.355479239935 771.5947382770892 702.6029669245079
6051.879470355107 712.621970723965 650.3282003675333
6473.216560887989 713.6815838814986 652.777324533416
6794.051043780715 711.0144325817706 651.6189541664097
7163.7560159151135 724.8314443961337 665.7207040290783
7118.665402809817 706.8081340121166 649.4653375956207
6806.770125509341 672.7155208537125 618.0668188120222
6177.134033470781 612.6173308899528 561.9309187915925
5106.511728533654 509.4904856396674 466.72250788301955
3686.716217392121 370.2845432584781 338.0535363433714
2161.7104852954076 218.2446240184937 198.57219247759843
896.1245415517488 90.95720343430627 82.16605442140984
57.55861187209133 72.96155541016545 61.834069790865094
565.9216762993669 309.64574518938844 274.4639044531665
1209.1936083634641 427.25445789511383 388.4035988806247
2082.534145021582 554.4146292056472 502.3969833093611
2789.8721040762034 601.6871022747904 544.2446597047931
3638.9791392382003 660.3426807736832 597.7949156734801
4377.153971890722 690.984533133011 626.5080065042981
5191.891946290728 729.8907801863114 663.2082700518686
6041.355479239935 771.5947382770892 702.6029669245079
6051.879470355107 712.621970723965 650.3282003675333
6473.216560887989 713.6815838814986 652.777324533416
6794.051043780715 711.0144325817706 651.6189541664097
7163.7560159151135 724.8314443961337 665.7207040290783
7118.665402809817 706.8081340121166 649.4653375956207
6806.770125509341 672.7155208537125 618.0668188120222
6177.134033470781 612.6173308899528 561.9309187915925
5106.511728533654 509.4904856396674 466.72250788301955
3686.716217392121 370.2845432584781 338.0535363433714
2161.7104852954076 218.2446240184937 198.57219247759843
896.1245415517488 90.95720343430627 82.16605442140984

SCALARS mu float
LOOKUP_TABLE default
-2.632511757692037
-5.053084929131724
-0.6884165548887607
-0.17985157855439532
-0.19230800615841073
-0.15147819329765827
-0.20818980370754755
-0.21700121693597155
-0.2183701748106403
-0.2206142875066848
-0.21355200590158396
-0.21727658973583933
-0.21334666846457373
-0.2392288864780549
-0.21643544253212735
-0.26220045451913887
-0.21798777309465464
-0.30069650127622927
-0.31899006026339916
-0.35623882328846324
-2.632511757692037
-5.053084929131724
-0.6884165548887607
-0.17985157855439532
-0.19230800615841073
-0.15147819329765827
-0.20818980370754755
-0.21700121693597155
-0.2183701748106403
-0.2206142875066848
-0.21355200590158396
-0.21727658973583933
-0.21334666846457373
-0.2392288864780549
-0.21643544253212735
-0.26220045451913887
-0.21798777309465464
-0.30069650127622927
-0.31899006026339916
-0.35623882328846324