# vtk DataFile Version 4.0
[MyVLM domain - lattices] 
ASCII
DATASET UNSTRUCTURED_GRID
POINTS 62 float
0.0 2.1771209821212416 -0.8038594248253337
0.0 4.314559308963962 -5.975616678753785
0.0 6.42258169072349 -10.876251562987903
0.0 8.128833209085624 -15.64129018437668
0.0 9.657482437463482 -20.189141854739827
0.0 11.090362517486174 -24.490021746347853
0.0 12.422260620783293 -28.545827173563925
0.0 13.677652933146192 -32.347649533311625
0.0 14.850468462437327 -35.89769848602147
0.0 15.940167693217871 -39.19617039925414
0.0 16.946751372007192 -42.24306500129879
0.0 17.87021893803088 -45.038382496260624
0.0 18.710551558061724 -47.58212973887375
0.0 19.467749241941807 -49.87430672555597
0.0 20.14124267729291 -51.91512066906691
0.0 20.7267611514288 -53.70612598170351
0.0 21.195646278743997 -55.257753462788244
0.0 21.54866810521213 -56.56972283850773
0.0 21.7608809191075 -57.65111360540268
0.0 21.872695589033977 -58.48721741016047
0.0 21.9246360501669 -59.06328474660191
-0.8152938918039478 -1.0617947563350585 -1.982728344919763
-0.9232602711185554 0.6375584563056187 -7.313935540492867
-1.045017403566863 2.182271132283551 -12.419598390304738
-0.8624275731409438 3.902838782426775 -17.179426365855367
-0.7172432011617597 5.636644905067631 -21.652607033352286
-0.5835709082011334 7.285389024205479 -25.874918840073917
-0.458823694439046 8.85888965683478 -29.842788138089652
-0.35706975050238215 10.331745104875719 -33.56546038940035
-0.27205245991127286 11.70886102109593 -37.04115008241894
-0.20240159072431146 12.990068002496669 -40.26991887479459
-0.1506132401889805 14.174974524616351 -43.25190926977727
-0.11426271706148827 15.262947820469844 -45.98735157571482
-0.08424963388989035 16.253342536169 -48.47648068221307
-0.059335794404298196 17.146022298826068 -50.719346224943955
-0.038970351202568594 17.94161145257758 -52.715720961225806
-0.02333805368457717 18.64438693208365 -54.46404821414845
-0.011931771028020786 19.282315243370665 -55.954149007961874
-0.005641151376299379 19.854743151787556 -57.186261100635036
-0.0026418300562744777 20.387267931804026 -58.15106784618263
-0.0014569859069231085 20.83931640378009 -58.86333667430313
-0.001005086180947595 21.170132731942722 -59.337901496090595
-0.6519578110959388 0.6523714238746107 -4.333683469977126
-0.7381041280070318 2.3995787206818706 -9.506558754266814
-0.7152918662654275 4.100843080492511 -14.414327001980613
-0.5923765403635137 5.800595838629041 -19.040816529592433
-0.4878052910110849 7.439243342846123 -23.407717652670787
-0.39089797599006726 8.993182397673781 -27.523621231800306
-0.30596004185303555 10.458977229882624 -31.38977778616819
-0.23592082890512064 11.831242471687307 -35.00814742934887
-0.17792026898834412 13.110927903304123 -38.37838446961453
-0.1323805615924845 14.297755830820513 -41.50058997928356
-0.0993284839689258 15.391342168162085 -44.37490375425446
-0.07444213160676699 16.39120519575114 -47.00150112611475
-0.05384453561032071 17.297049413123588 -49.38048964823759
-0.036864804602575046 18.10898664668071 -51.51182861914152
-0.023365651832679663 18.828249872838175 -53.39506927211164
-0.013226184267224234 19.462814244566967 -55.02730888885284
-0.006589845901620062 20.019436196178848 -56.40608832838583
-0.0031061180372151964 20.504447784386798 -57.52910291054542
-0.0015370559861990949 20.914166189361726 -58.39769307212755
-0.0009232770329515139 21.22820988079616 -59.019277083492945

CELLS 40 140
4 0 21 22 1
4 1 22 23 2
4 2 23 24 3
4 3 24 25 4
4 4 25 26 5
4 5 26 27 6
4 6 27 28 7
4 7 28 29 8
4 8 29 30 9
4 9 30 31 10
4 10 31 32 11
4 11 32 33 12
4 12 33 34 13
4 13 34 35 14
4 14 35 36 15
4 15 36 37 16
4 16 37 38 17
4 17 38 39 18
4 18 39 40 19
4 19 40 41 20
1 42
1 43
1 44
1 45
1 46
1 47
1 48
1 49
1 50
1 51
1 52
1 53
1 54
1 55
1 56
1 57
1 58
1 59
1 60
1 61

CELL_TYPES 40
9
9
9
9
9
9
9
9
9
9
9
9
9
9
9
9
9
9
9
9
1
1
1
1
1
1
1
1
1
1
1
1
1
1
1
1
1
1
1
1

CELL_DATA 40

VECTORS S float
2.89849053924968e-18 -3.137597415429556e-16 1.7484250181873795e-15
2.9632340807834296e-17 2.575857980786272e-15 -1.3975423761867721e-14
9.370826327538371e-17 5.158769892378031e-15 -2.7949452211183032e-14
0.0 0.0 -0.0
6.911035642701893e-17 5.1544560870112416e-15 -2.7950319732554465e-14
-6.244666697104425e-17 -5.169650925183411e-15 2.7947528990446554e-14
-5.80341778522903e-17 -5.188331472053957e-15 2.794407657298075e-14
-1.1200242768419873e-16 -1.0420227292057504e-14 5.588005535451193e-14
0.0 0.0 -0.0
1.1002062323085912e-16 1.0516403641993965e-14 -5.5862039147227566e-14
5.5284629035905435e-17 5.2811496022033496e-15 -2.7926689195736318e-14
-5.470909715745653e-17 -5.29774762865559e-15 2.7923546406645385e-14
0.0 0.0 -0.0
0.0 0.0 -0.0
0.0 0.0 -0.0
5.150898970215702e-17 5.311670187358175e-15 -2.792090746360201e-14
0.0 0.0 -0.0
-2.3302804057021618e-17 -2.644691779435476e-15 1.3962573334012915e-14
-1.073662470212534e-17 -1.3195659376280852e-15 6.981814119216184e-15
-4.31390648744852e-18 -6.58571396734263e-16 3.4911372916501707e-15
2.89849053924968e-18 -3.137597415429556e-16 1.7484250181873795e-15
2.9632340807834296e-17 2.575857980786272e-15 -1.3975423761867721e-14
9.370826327538371e-17 5.158769892378031e-15 -2.7949452211183032e-14
0.0 0.0 -0.0
6.911035642701893e-17 5.1544560870112416e-15 -2.7950319732554465e-14
-6.244666697104425e-17 -5.169650925183411e-15 2.7947528990446554e-14
-5.80341778522903e-17 -5.188331472053957e-15 2.794407657298075e-14
-1.1200242768419873e-16 -1.0420227292057504e-14 5.588005535451193e-14
0.0 0.0 -0.0
1.1002062323085912e-16 1.0516403641993965e-14 -5.5862039147227566e-14
5.5284629035905435e-17 5.2811496022033496e-15 -2.7926689195736318e-14
-5.470909715745653e-17 -5.29774762865559e-15 2.7923546406645385e-14
0.0 0.0 -0.0
0.0 0.0 -0.0
0.0 0.0 -0.0
5.150898970215702e-17 5.311670187358175e-15 -2.792090746360201e-14
0.0 0.0 -0.0
-2.3302804057021618e-17 -2.644691779435476e-15 1.3962573334012915e-14
-1.073662470212534e-17 -1.3195659376280852e-15 6.981814119216184e-15
-4.31390648744852e-18 -6.58571396734263e-16 3.4911372916501707e-15

SCALARS Gamma float
LOOKUP_TABLE default
0.0
65.16133084098246
82.80562905557134
98.12354543407807
97.84960477821015
100.48969769552428
101.49911235752874
104.3172492490649
107.41387351265728
99.26839844020483
97.30209461738758
95.63829148020956
94.52924013730525
89.07401296218207
81.28100925453589
71.08004361052161
57.07732605189662
40.2252961331336
23.212268360777447
9.45918631200942
0.0
65.16133084098246
82.80562905557134
98.12354543407807
97.84960477821015
100.48969769552428
101.49911235752874
104.3172492490649
107.41387351265728
99.26839844020483
97.30209461738758
95.63829148020956
94.52924013730525
89.07401296218207
81.28100925453589
71.08004361052161
57.07732605189662
40.2252961331336
23.212268360777447
9.45918631200942

VECTORS Ftot float
132.31559072772868 70.1736231284268 12.373503091609201
1349.1330239439235 -358.18154818532554 -63.157070937002004
2023.771094393614 -822.6531767934231 -145.0559508342113
3048.514714972363 -1151.7908584766897 -203.09180448280554
3746.5089213592714 -1145.3679604607914 -201.9592742682638
4533.2622942295275 -1171.0032050726618 -206.47945955039785
5233.243790938951 -1163.464217226631 -205.15013258590943
6005.897713921153 -1186.2381148271666 -209.16578518877563
6785.238523883263 -1214.891412130008 -214.21813458952764
6784.669778742021 -1120.0966079592436 -197.50325298324654
7113.052135756798 -1101.7638421819936 -194.27069174570858
7407.499673603015 -1083.365063048145 -191.02649057231514
7692.981201706273 -1080.3532383171575 -190.49542461107708
7560.789695678124 -1038.8643585692803 -183.1798157121573
7150.635964807778 -966.798763295192 -170.47270688451908
6444.656748703326 -854.5461818728103 -150.6795481255794
5304.334660929833 -703.2989167015381 -124.01057451751637
3815.941927266873 -486.675616021595 -85.81404195752006
2237.927787139073 -271.550370248447 -47.88165689617442
924.7817282143254 -92.79948459083846 -16.36305292920426
132.31559072772868 70.1736231284268 12.373503091609201
1349.1330239439235 -358.18154818532554 -63.157070937002004
2023.771094393614 -822.6531767934231 -145.0559508342113
3048.514714972363 -1151.7908584766897 -203.09180448280554
3746.5089213592714 -1145.3679604607914 -201.9592742682638
4533.2622942295275 -1171.0032050726618 -206.47945955039785
5233.243790938951 -1163.464217226631 -205.15013258590943
6005.897713921153 -1186.2381148271666 -209.16578518877563
6785.238523883263 -1214.891412130008 -214.21813458952764
6784.669778742021 -1120.0966079592436 -197.50325298324654
7113.052135756798 -1101.7638421819936 -194.27069174570858
7407.499673603015 -1083.365063048145 -191.02649057231514
7692.981201706273 -1080.3532383171575 -190.49542461107708
7560.789695678124 -1038.8643585692803 -183.1798157121573
7150.635964807778 -966.798763295192 -170.47270688451908
6444.656748703326 -854.5461818728103 -150.6795481255794
5304.334660929833 -703.2989167015381 -124.01057451751637
3815.941927266873 -486.675616021595 -85.81404195752006
2237.927787139073 -271.550370248447 -47.88165689617442
924.7817282143254 -92.79948459083846 -16.36305292920426

VECTORS D float
72.82162061361863 -38.57970660087516 -7.04395751729924
717.7346077878452 -864.8704622060568 -157.88539678723492
792.4230757806007 -1465.853507010714 -267.90308059765533
821.3736061659127 -2024.7303078913772 -370.17116921901413
690.9694056857421 -2111.278282402411 -387.6427230840276
610.6930228094855 -2215.175888602659 -408.3921101591252
537.8631789746572 -2247.8712238728663 -416.24157943375235
492.9481137585779 -2317.550059949023 -431.17686349932296
461.1781511460524 -2391.092396120667 -447.0878807552566
393.8831635451361 -2215.2864624297245 -416.2667834078983
362.8854778358192 -2182.831292260304 -412.07164018317644
339.08738953262207 -2154.6390324598174 -408.12089173500686
326.95741572583364 -2155.8882399687677 -409.43709182548105
308.0802180104015 -2075.311765163428 -394.6633830879178
285.2815367453697 -1939.1187790694778 -368.7501902022287
253.96940129411115 -1729.7119608058717 -328.5916748806806
209.35591899159184 -1424.4398423993057 -270.05995762337375
148.1123185733256 -1006.5854773169552 -190.41310231435895
84.93093700015254 -576.9593860181345 -108.91497089492016
32.29471780558675 -219.4373477239148 -41.35496032735686
72.82162061361863 -38.57970660087516 -7.04395751729924
717.7346077878452 -864.8704622060568 -157.88539678723492
792.4230757806007 -1465.853507010714 -267.90308059765533
821.3736061659127 -2024.7303078913772 -370.17116921901413
690.9694056857421 -2111.278282402411 -387.6427230840276
610.6930228094855 -2215.175888602659 -408.3921101591252
537.8631789746572 -2247.8712238728663 -416.24157943375235
492.9481137585779 -2317.550059949023 -431.17686349932296
461.1781511460524 -2391.092396120667 -447.0878807552566
393.8831635451361 -2215.2864624297245 -416.2667834078983
362.8854778358192 -2182.831292260304 -412.07164018317644
339.08738953262207 -2154.6390324598174 -408.12089173500686
326.95741572583364 -2155.8882399687677 -409.43709182548105
308.0802180104015 -2075.311765163428 -394.6633830879178
285.2815367453697 -1939.1187790694778 -368.7501902022287
253.96940129411115 -1729.7119608058717 -328.5916748806806
209.35591899159184 -1424.4398423993057 -270.05995762337375
148.1123185733256 -1006.5854773169552 -190.41310231435895
84.93093700015254 -576.9593860181345 -108.91497089492016
32.29471780558675 -219.4373477239148 -41.35496032735686

VECTORS L float
59.493970114110034 108.75332972930195 19.417460608908442
631.3984161560783 506.68891402073143 94.72832585023293
1231.3480186130134 643.2003302172914 122.84712976344407
2227.1411088064506 872.9394494146883 167.07936473620865
3055.5395156735303 965.9103219416197 185.68344881576377
3922.569271420042 1044.172683529998 201.91265060872743
4695.380611964294 1084.4070066462355 211.09144684784297
5512.949600162576 1131.3119451218565 222.0110783105474
6324.060372737213 1176.2009839906596 232.86974616572914
6390.786615196887 1095.1898544704807 218.76353042465172
6750.1666579209805 1081.0674500783107 217.8009484374679
7068.412284070393 1071.2739694116724 217.0944011626918
7366.02378598044 1075.535001651611 218.94166721440402
7252.709477667723 1036.4474065941477 211.48356737576052
6865.354428062408 972.3200157742856 198.27748331770957
6190.687347409216 875.1657789330623 177.91212675510135
5094.978741938243 721.1409256977676 146.0493831058574
3667.829608693547 519.9098612953604 104.59906035683888
2152.9968501389208 305.4090157696875 61.033313998745754
892.4870104087387 126.63786313307635 24.99190739815259
59.493970114110034 108.75332972930195 19.417460608908442
631.3984161560783 506.68891402073143 94.72832585023293
1231.3480186130134 643.2003302172914 122.84712976344407
2227.1411088064506 872.9394494146883 167.07936473620865
3055.5395156735303 965.9103219416197 185.68344881576377
3922.569271420042 1044.172683529998 201.91265060872743
4695.380611964294 1084.4070066462355 211.09144684784297
5512.949600162576 1131.3119451218565 222.0110783105474
6324.060372737213 1176.2009839906596 232.86974616572914
6390.786615196887 1095.1898544704807 218.76353042465172
6750.1666579209805 1081.0674500783107 217.8009484374679
7068.412284070393 1071.2739694116724 217.0944011626918
7366.02378598044 1075.535001651611 218.94166721440402
7252.709477667723 1036.4474065941477 211.48356737576052
6865.354428062408 972.3200157742856 198.27748331770957
6190.687347409216 875.1657789330623 177.91212675510135
5094.978741938243 721.1409256977676 146.0493831058574
3667.829608693547 519.9098612953604 104.59906035683888
2152.9968501389208 305.4090157696875 61.033313998745754
892.4870104087387 126.63786313307635 24.99190739815259

SCALARS mu float
LOOKUP_TABLE default
-2.8712688213014737
-6.756194308015906
-1.7330537271087036
-0.294023040052507
-0.24148442227587816
-0.20936602028106052
-0.24844926615910562
-0.24735032342810187
-0.24876309966619053
-0.22503261408116865
-0.20160195828956137
-0.2125216050110852
-0.23314891672486687
-0.22954372227066644
-0.25316990578346
-0.3138335840443968
-0.28282305248008666
-0.360616724674312
-0.37860749957420364
-0.416535554058145
-2.8712688213014737
-6.756194308015906
-1.7330537271087036
-0.294023040052507
-0.24148442227587816
-0.20936602028106052
-0.24844926615910562
-0.24735032342810187
-0.24876309966619053
-0.22503261408116865
-0.20160195828956137
-0.2125216050110852
-0.23314891672486687
-0.22954372227066644
-0.25316990578346
-0.3138335840443968
-0.28282305248008666
-0.360616724674312
-0.37860749957420364
-0.416535554058145