# vtk DataFile Version 4.0
[MyVLM domain - lattices] 
ASCII
DATASET UNSTRUCTURED_GRID
POINTS 152 float
0.0 -1.7847201060452902 -1.483494965805444
0.0 -3.9965226337647795 -1.1485455311788575
0.0 -6.178812243226271 -0.8827676607877445
0.0 -8.32193678303862 -0.631421283927303
0.0 -10.425809834021884 -0.3940162930734583
0.0 -12.484133450465666 -0.13483526321792327
0.0 -14.491531136124715 0.1766134310482972
0.0 -16.446640568784677 0.5480559029318504
0.0 -18.357867202110373 0.9318224558778821
0.0 -20.228611528380156 1.3086279398503606
0.0 -22.0588417771358 1.678652534071442
0.0 -23.848489106305983 2.0422866613286232
0.0 -25.597482308249 2.399934160225762
0.0 -27.305245555821173 2.754860708774012
0.0 -28.972160633700547 3.1049010984697833
0.0 -30.59906369948847 3.445313243910198
0.0 -32.186078990278055 3.7753925615277497
0.0 -33.73300332340978 4.096291357445456
0.0 -35.239690293787454 4.408839936223719
0.0 -36.70613985765559 4.71303854601214
0.0 -38.13235197242727 5.008887428333178
0.0 -39.51832659668411 5.296386818082153
0.0 -40.864063690176266 5.575536943527244
0.0 -42.16956321382245 5.846338026309489
0.0 -43.434825129709914 6.1087902814427855
0.0 -44.659849401094434 6.362893917313889
0.0 -45.844635992400356 6.608649135682419
0.0 -46.98918486922058 6.846056131680845
0.0 -48.09349604989854 7.075114801278214
0.0 -49.15757021087126 7.295821308209563
0.0 -50.18140746085417 7.508175035919152
0.0 -51.16500766253064 7.7121767631681575
0.0 -52.1083706839808 7.907827238111417
0.0 -53.01149639868149 8.095127178297437
0.0 -53.87438468550626 8.274077270668391
0.0 -54.69703542872539 8.444678171560108
0.0 -55.479376367547296 8.607339692286232
0.0 -56.22117831838265 8.763361597570299
0.0 -56.92209055076327 8.914732978740101
0.0 -57.58193009016294 9.062491535899698
0.0 -58.20080162690477 9.206043540722646
0.0 -58.77865071972322 9.345697744968792
0.0 -59.313414021698655 9.493155970510749
0.0 -59.805137771193536 9.648155986564223
0.0 -60.25537935103609 9.801865436209384
0.0 -60.66520081672468 9.948261103406818
0.0 -61.03487299599222 10.085807047758724
0.0 -61.3641421091123 10.215942525613556
0.0 -61.653235037736145 10.337380827187621
0.0 -61.90259880727745 10.44758674537923
0.0 -62.11262039496003 10.544365623294375
-0.8152906147965383 -1.186193313662888 1.9109191503870053
-0.840508508576773 -3.379542589210237 2.3505221785702717
-0.8937965186568912 -5.52252719524511 2.839209800314779
-0.9506477078523391 -7.623626011610863 3.328895898514178
-1.020681877210228 -9.68301402208242 3.8185880908670273
-1.048954977401727 -11.706062958182557 4.277821774048309
-0.9930987765444168 -13.696555530459364 4.685144130497802
-0.9074282632528687 -15.657856242272722 5.021474113478535
-0.838943182597301 -17.582880744901825 5.326989061094681
-0.780438039247949 -19.468255245361362 5.620822704166993
-0.7250391551380654 -21.313286517952882 5.906906520995928
-0.6716005320170477 -23.11802699629254 6.184943145767514
-0.6190912009117757 -24.88260292188577 6.4542166273270345
-0.5668551203523576 -26.607627209862713 6.711250951240021
-0.5160737545272154 -28.292738224291224 6.958097056793759
-0.46824322159258064 -29.937067558178992 7.199679924775713
-0.4244759216876314 -31.540491037653595 7.436703780211072
-0.3845740908079094 -33.103210675151736 7.668022953640238
-0.34771109645469384 -34.62535700966771 7.892897121638105
-0.3130568676883623 -36.1069084709991 8.11144861490141
-0.28047282351476527 -37.547857852461796 8.323718304566848
-0.25028172479700606 -38.948204691047685 8.52970881648384
-0.22269967179244904 -40.307945652155226 8.729439062117478
-0.19756508903558764 -41.627072382842584 8.922956413354926
-0.17527331282135344 -42.90558296751843 9.110271734054532
-0.15618952887338375 -44.14347401487826 9.291404257259762
-0.13996799493970205 -45.34073563277104 9.46641008414701
-0.12575834684109707 -46.49735583680019 9.63535718160679
-0.11252036551224441 -47.61332404324984 9.798305572874357
-0.10008619772204906 -48.688638544194454 9.955264944076784
-0.0884564051429673 -49.723298569273 10.106239664148688
-0.07764813403823374 -50.71730322000616 10.25123482861934
-0.06766754153321136 -51.67065149755781 10.390256102170001
-0.05846867713071129 -52.58334217528716 10.523310441426224
-0.05000632361003568 -53.45537413432632 10.650404191803169
-0.0422455662862189 -54.286746388617644 10.771542945511554
-0.03513713503927796 -55.07751110862545 10.886430829145693
-0.028610254341892315 -55.82783672337167 10.994112634255545
-0.02259956362415257 -56.53824466138035 11.091631192732507
-0.017476911002663225 -57.20900487973251 11.177455501890913
-0.013355710955940858 -57.83962914681328 11.254354460811847
-0.010110762084772787 -58.43013105888448 11.32225096126289
-0.007505342360435571 -58.98303094835074 11.366851487898266
-0.005475063785670375 -59.498351026845924 11.388030072282577
-0.003985447751437076 -59.974193340064325 11.39655054816445
-0.0029419419370193198 -60.40930990532322 11.399490577043395
-0.00222865752783443 -60.80350141930367 11.397980464208736
-0.0017402354220029323 -61.15728040339228 11.389113556438646
-0.0014049497009942318 -61.47047478702708 11.373865714382688
-0.0011720086804816246 -61.74258977128301 11.355043082189066
-0.0010052173229800666 -61.9731970293408 11.335074821960694
-0.6209246712649916 -2.43480630605368 1.2690354362359415
-0.6503643852126241 -4.610193028794637 1.6922353430860688
-0.6916665849409614 -6.7424010808541 2.1237660189714775
-0.7392485943984627 -8.833458339767544 2.552126798892857
-0.7761138204794831 -10.88464677816031 2.970047254806829
-0.765770157729804 -12.89794000656452 3.366334485183589
-0.7126976399239822 -14.875175877888207 3.7305655082386457
-0.6548892921938138 -16.81583984155234 4.065658485316172
-0.6072679581919687 -18.71748583766001 4.385485711439158
-0.5645539478947554 -20.579009824432333 4.69630851867632
-0.5237398826831674 -22.400158928272255 4.9995610244613
-0.4840093998483088 -24.18098264613624 5.294962517604755
-0.44472987047405005 -25.921677282414453 5.5813997005876175
-0.40609832807983987 -27.622312811497945 5.858475728918142
-0.3691188660449235 -29.28258021007496 6.1279431608860495
-0.33476967873007946 -30.902227309658038 6.391232115049789
-0.3033937546858278 -32.48127343151298 6.648233015065892
-0.27460694522347623 -34.019799583956946 6.898486439938025
-0.24778798655364606 -35.51782832418044 7.141864461481799
-0.22257363420117282 -36.9753488500582 7.378428341593761
-0.19903295561691423 -38.39235827495498 7.608194451195924
-0.17736802372104568 -39.768855164558644 7.831170924676669
-0.15759928531051376 -41.104835126124016 8.047382674531743
-0.1398144006963529 -42.40029429932693 8.256851593747582
-0.12429856563552642 -43.655230684749306 8.459589021587444
-0.11105907142990716 -44.86963929205534 8.655623259652076
-0.09964737816779967 -46.04351190879182 8.845000883078082
-0.08935451713250306 -47.17684006990864 9.027769899550313
-0.07972746121286005 -48.269619252887836 9.20395595754265
-0.07070347607438114 -49.32184862651597 9.373563771100642
-0.062289202192950394 -50.333527561402775 9.536596909673923
-0.054493378339291916 -51.30465531240041 9.693059599205949
-0.047301081998971 -52.23523101264965 9.842956755899692
-0.040678125277780114 -53.12525375162852 9.98629354358175
-0.03459445871109547 -53.97472271038295 10.123074606771581
-0.029018512997061326 -54.78364803600024 10.253242398477258
-0.023905271017938854 -55.55207477274016 10.37654146000753
-0.01920368173726683 -56.28018912792526 10.491915757159319
-0.015028677985055923 -56.9682211580331 10.598060574813758
-0.01156223323447653 -57.61607922458813 10.695495620591329
-0.008799927390267616 -58.22359162046514 10.785194693989457
-0.006606039166953134 -58.791443845390944 10.863270132870378
-0.00486765230478973 -59.320337214810266 10.925744579702187
-0.003547691826415294 -59.80976877787005 10.975470410514337
-0.0025977711331711486 -60.25888623799041 11.017281239404968
-0.001938974799320156 -60.6673134733247 11.05331015936524
-0.0014883348561890108 -61.03517007164904 11.082878954414305
-0.0011794444211239365 -61.36258033976331 11.105282645658148
-0.0009663593930534462 -61.64937843999298 11.121461745285263
-0.0008164597512981341 -61.89532245051362 11.13278826014036

CELLS 100 350
4 0 51 52 1
4 1 52 53 2
4 2 53 54 3
4 3 54 55 4
4 4 55 56 5
4 5 56 57 6
4 6 57 58 7
4 7 58 59 8
4 8 59 60 9
4 9 60 61 10
4 10 61 62 11
4 11 62 63 12
4 12 63 64 13
4 13 64 65 14
4 14 65 66 15
4 15 66 67 16
4 16 67 68 17
4 17 68 69 18
4 18 69 70 19
4 19 70 71 20
4 20 71 72 21
4 21 72 73 22
4 22 73 74 23
4 23 74 75 24
4 24 75 76 25
4 25 76 77 26
4 26 77 78 27
4 27 78 79 28
4 28 79 80 29
4 29 80 81 30
4 30 81 82 31
4 31 82 83 32
4 32 83 84 33
4 33 84 85 34
4 34 85 86 35
4 35 86 87 36
4 36 87 88 37
4 37 88 89 38
4 38 89 90 39
4 39 90 91 40
4 40 91 92 41
4 41 92 93 42
4 42 93 94 43
4 43 94 95 44
4 44 95 96 45
4 45 96 97 46
4 46 97 98 47
4 47 98 99 48
4 48 99 100 49
4 49 100 101 50
1 102
1 103
1 104
1 105
1 106
1 107
1 108
1 109
1 110
1 111
1 112
1 113
1 114
1 115
1 116
1 117
1 118
1 119
1 120
1 121
1 122
1 123
1 124
1 125
1 126
1 127
1 128
1 129
1 130
1 131
1 132
1 133
1 134
1 135
1 136
1 137
1 138
1 139
1 140
1 141
1 142
1 143
1 144
1 145
1 146
1 147
1 148
1 149
1 150
1 151

CELL_TYPES 100
9
9
9
9
9
9
9
9
9
9
9
9
9
9
9
9
9
9
9
9
9
9
9
9
9
9
9
9
9
9
9
9
9
9
9
9
9
9
9
9
9
9
9
9
9
9
9
9
9
9
1
1
1
1
1
1
1
1
1
1
1
1
1
1
1
1
1
1
1
1
1
1
1
1
1
1
1
1
1
1
1
1
1
1
1
1
1
1
1
1
1
1
1
1
1
1
1
1
1
1

CELL_DATA 100

VECTORS S float
-0.0 -0.0 0.0
-0.0 -0.0 0.0
-0.0 -0.0 0.0
0.0 -0.0 0.0
0.0 -0.0 0.0
4.245364344951566e-17 -1.342261442145923e-14 4.666905989793622e-15
0.0 -0.0 0.0
-3.326431764301576e-17 1.3414022139026602e-14 -4.691619685722072e-15
3.371213546509336e-17 -1.3411460026814732e-14 4.698935536656367e-15
3.76089529922177e-17 -1.340978592562189e-14 4.703681402075076e-15
-7.862801398268241e-17 2.6816250642986993e-14 -9.416798077596915e-15
0.0 -0.0 0.0
0.0 -0.0 0.0
7.412847627211613e-17 -2.6807147142746104e-14 9.442718569484151e-15
-6.792605888142147e-17 2.680428297238756e-14 -9.450892409345e-15
0.0 -0.0 0.0
0.0 -0.0 0.0
0.0 -0.0 0.0
0.0 -0.0 0.0
0.0 -0.0 0.0
0.0 -0.0 0.0
-8.522278241779157e-17 5.3580512193100307e-14 -1.898145721454629e-14
-4.105796957756873e-17 2.6788770164140396e-14 -9.494928871893243e-15
3.956541285888108e-17 -2.6787407020983484e-14 9.498780269939195e-15
-3.8310871255848236e-17 2.67861598743512e-14 -9.502301742691473e-15
0.0 -0.0 0.0
3.422807186854976e-17 -2.6783813217239964e-14 9.508929746791381e-15
0.0 -0.0 0.0
0.0 -0.0 0.0
0.0 -0.0 0.0
0.0 -0.0 0.0
0.0 -0.0 0.0
2.825612644496922e-17 -2.6777370420069938e-14 9.5270773022999e-15
-2.734225827273333e-17 2.6776331531256397e-14 -9.529999426834886e-15
-2.6662230537228178e-17 2.6775313559921494e-14 -9.532861052153392e-15
0.0 -0.0 0.0
5.0718121117328055e-17 -5.35466376779094e-14 1.9076930802625127e-14
0.0 -0.0 0.0
-2.425654745822354e-17 2.6771410141705436e-14 -9.543824054896066e-15
2.3697787263423138e-17 -2.6770494985848443e-14 9.546392175783389e-15
0.0 -0.0 0.0
-2.27939198332759e-17 2.676877591063667e-14 -9.551213725472413e-15
-2.2054282886004507e-17 2.676795917156738e-14 -9.553504191877689e-15
0.0 -0.0 0.0
0.0 -0.0 0.0
-1.0537619654885e-17 1.3382926725194265e-14 -4.7797021835290296e-15
-1.036697358896575e-17 1.3382629585215813e-14 -4.7805344520612024e-15
0.0 -0.0 0.0
-1.009763674649012e-17 1.338212754195049e-14 -4.781940215569556e-15
0.0 -0.0 0.0
-0.0 -0.0 0.0
-0.0 -0.0 0.0
-0.0 -0.0 0.0
0.0 -0.0 0.0
0.0 -0.0 0.0
4.245364344951566e-17 -1.342261442145923e-14 4.666905989793622e-15
0.0 -0.0 0.0
-3.326431764301576e-17 1.3414022139026602e-14 -4.691619685722072e-15
3.371213546509336e-17 -1.3411460026814732e-14 4.698935536656367e-15
3.76089529922177e-17 -1.340978592562189e-14 4.703681402075076e-15
-7.862801398268241e-17 2.6816250642986993e-14 -9.416798077596915e-15
0.0 -0.0 0.0
0.0 -0.0 0.0
7.412847627211613e-17 -2.6807147142746104e-14 9.442718569484151e-15
-6.792605888142147e-17 2.680428297238756e-14 -9.450892409345e-15
0.0 -0.0 0.0
0.0 -0.0 0.0
0.0 -0.0 0.0
0.0 -0.0 0.0
0.0 -0.0 0.0
0.0 -0.0 0.0
-8.522278241779157e-17 5.3580512193100307e-14 -1.898145721454629e-14
-4.105796957756873e-17 2.6788770164140396e-14 -9.494928871893243e-15
3.956541285888108e-17 -2.6787407020983484e-14 9.498780269939195e-15
-3.8310871255848236e-17 2.67861598743512e-14 -9.502301742691473e-15
0.0 -0.0 0.0
3.422807186854976e-17 -2.6783813217239964e-14 9.508929746791381e-15
0.0 -0.0 0.0
0.0 -0.0 0.0
0.0 -0.0 0.0
0.0 -0.0 0.0
0.0 -0.0 0.0
2.825612644496922e-17 -2.6777370420069938e-14 9.5270773022999e-15
-2.734225827273333e-17 2.6776331531256397e-14 -9.529999426834886e-15
-2.6662230537228178e-17 2.6775313559921494e-14 -9.532861052153392e-15
0.0 -0.0 0.0
5.0718121117328055e-17 -5.35466376779094e-14 1.9076930802625127e-14
0.0 -0.0 0.0
-2.425654745822354e-17 2.6771410141705436e-14 -9.543824054896066e-15
2.3697787263423138e-17 -2.6770494985848443e-14 9.546392175783389e-15
0.0 -0.0 0.0
-2.27939198332759e-17 2.676877591063667e-14 -9.551213725472413e-15
-2.2054282886004507e-17 2.676795917156738e-14 -9.553504191877689e-15
0.0 -0.0 0.0
0.0 -0.0 0.0
-1.0537619654885e-17 1.3382926725194265e-14 -4.7797021835290296e-15
-1.036697358896575e-17 1.3382629585215813e-14 -4.7805344520612024e-15
0.0 -0.0 0.0
-1.009763674649012e-17 1.338212754195049e-14 -4.781940215569556e-15
0.0 -0.0 0.0

SCALARS Gamma float
LOOKUP_TABLE default
-0.0
-0.0
-0.0
52.66349906167825
56.916797020421036
56.895565307940416
54.31991400082132
49.343208258835
45.973596452958674
49.03888952415102
56.312402949300974
57.039021111509705
53.75580146655194
49.04580066798269
48.07655673982381
47.32882895775292
43.71045020913985
41.45876402184799
36.82796778746981
37.29643724900599
36.71209112234201
38.09493534422308
39.517701385697514
37.058328444404786
39.06259386371454
40.37812141303614
40.41695439944965
40.466387808784944
40.674434979547385
40.88301535361892
41.14989192918833
41.39082555120762
39.2656041438263
39.52862694284348
39.79697665914132
40.05537887840565
40.26169372860852
42.63715607455563
42.50452601441067
42.027490742162136
41.268643628511
40.00746957927642
37.85094612891427
35.064613247321354
32.293250050168886
29.552828177168657
26.63428103385974
23.779301441184955
20.907631194441755
18.24466254071976
-0.0
-0.0
-0.0
52.66349906167825
56.916797020421036
56.895565307940416
54.31991400082132
49.343208258835
45.973596452958674
49.03888952415102
56.312402949300974
57.039021111509705
53.75580146655194
49.04580066798269
48.07655673982381
47.32882895775292
43.71045020913985
41.45876402184799
36.82796778746981
37.29643724900599
36.71209112234201
38.09493534422308
39.517701385697514
37.058328444404786
39.06259386371454
40.37812141303614
40.41695439944965
40.466387808784944
40.674434979547385
40.88301535361892
41.14989192918833
41.39082555120762
39.2656041438263
39.52862694284348
39.79697665914132
40.05537887840565
40.26169372860852
42.63715607455563
42.50452601441067
42.027490742162136
41.268643628511
40.00746957927642
37.85094612891427
35.064613247321354
32.293250050168886
29.552828177168657
26.63428103385974
23.779301441184955
20.907631194441755
18.24466254071976

VECTORS Ftot float
120.23089164285582 -13.836695839605405 -38.016009379177746
144.28639957604045 -30.64366274446382 -84.19277143979761
147.40183353336516 -45.35845346786483 -124.62132668434239
1337.5636529496355 2.3452424613752134 6.443500705774609
1366.1178782895022 80.24197747891486 220.46302121570594
1460.3706627514275 103.26200900867492 283.7100380388555
1535.9441170040996 99.31917927338027 272.87720237237914
1520.4361846682762 96.5374754312114 265.23453387840993
1526.3621635730203 102.65910863048066 282.0535828635861
1735.2398253931026 134.13538807252266 368.5339498790406
2123.9311292427287 176.94280334337722 486.14635672093107
2290.695091000355 196.16773467813053 538.9664214537316
2287.5377124825736 202.47218418148398 556.2877541062873
2212.1672168051955 189.90883174589055 521.7702269768439
2292.6644782289927 185.79972823297706 510.4805578609123
2374.2113192929164 185.22315994566355 508.8964495107449
2300.9481396031224 169.46868066307474 465.61137342656633
2281.016112827289 161.98083568243888 445.0386884218925
2113.2925507836417 141.503917825043 388.7788189886699
2223.301566078972 144.96741866011664 398.294709325297
2267.825121045173 144.72981998287918 397.64191232469483
2437.4273519577864 145.32406214032972 399.2745792339781
2609.1213907830625 152.67235310558286 419.4638427325936
2520.3485036532643 144.57785229141572 397.2243845239123
2731.6851682465335 154.17380169260716 423.58903882191504
2901.724207778436 155.62547432844275 427.5774766093134
2978.5275346552357 154.88077212606512 425.5314241240628
3053.1606557205173 155.27743139608089 426.6212365116485
3137.8911013247143 156.24081532323356 429.26811209776605
3220.6529841730962 157.23560949823354 432.0012866305834
3306.101203900485 158.68028828768996 435.97050898298005
3387.685314361578 160.00401128173885 439.60740801874215
3269.700812904606 153.48536153247295 421.69756502730047
3346.349890249895 154.32768381434053 424.01182647663524
3421.2261769191373 156.1962371575106 429.14563459404144
3493.183780703178 158.58572882599864 435.7107089971873
3559.318518655075 159.3026632857152 437.68047023648745
3817.0647982560113 169.8604945211608 466.6878731542871
3850.412896705307 169.82359681238992 466.5864975326095
3849.3156715112355 168.30367679280894 462.4105515994337
3818.06167482522 166.83899978902724 458.386384604749
3736.657744337075 161.6089683984493 444.0169914560971
3566.8538215766544 151.3003563424244 415.694312606251
3330.7404685972574 140.14820675749257 385.0540334432704
3089.7774371165724 129.16094876821282 354.8667902160017
2845.578003353499 119.55849869313633 328.48427546328855
2579.615421977899 107.7386962914559 296.0096352622559
2315.0957120994526 96.05411501350328 263.9065120452987
2044.6071577195296 84.66391553068887 232.61219616318226
1791.0769856117172 73.80085665925513 202.7661872077117
120.23089164285582 -13.836695839605405 -38.016009379177746
144.28639957604045 -30.64366274446382 -84.19277143979761
147.40183353336516 -45.35845346786483 -124.62132668434239
1337.5636529496355 2.3452424613752134 6.443500705774609
1366.1178782895022 80.24197747891486 220.46302121570594
1460.3706627514275 103.26200900867492 283.7100380388555
1535.9441170040996 99.31917927338027 272.87720237237914
1520.4361846682762 96.5374754312114 265.23453387840993
1526.3621635730203 102.65910863048066 282.0535828635861
1735.2398253931026 134.13538807252266 368.5339498790406
2123.9311292427287 176.94280334337722 486.14635672093107
2290.695091000355 196.16773467813053 538.9664214537316
2287.5377124825736 202.47218418148398 556.2877541062873
2212.1672168051955 189.90883174589055 521.7702269768439
2292.6644782289927 185.79972823297706 510.4805578609123
2374.2113192929164 185.22315994566355 508.8964495107449
2300.9481396031224 169.46868066307474 465.61137342656633
2281.016112827289 161.98083568243888 445.0386884218925
2113.2925507836417 141.503917825043 388.7788189886699
2223.301566078972 144.96741866011664 398.294709325297
2267.825121045173 144.72981998287918 397.64191232469483
2437.4273519577864 145.32406214032972 399.2745792339781
2609.1213907830625 152.67235310558286 419.4638427325936
2520.3485036532643 144.57785229141572 397.2243845239123
2731.6851682465335 154.17380169260716 423.58903882191504
2901.724207778436 155.62547432844275 427.5774766093134
2978.5275346552357 154.88077212606512 425.5314241240628
3053.1606557205173 155.27743139608089 426.6212365116485
3137.8911013247143 156.24081532323356 429.26811209776605
3220.6529841730962 157.23560949823354 432.0012866305834
3306.101203900485 158.68028828768996 435.97050898298005
3387.685314361578 160.00401128173885 439.60740801874215
3269.700812904606 153.48536153247295 421.69756502730047
3346.349890249895 154.32768381434053 424.01182647663524
3421.2261769191373 156.1962371575106 429.14563459404144
3493.183780703178 158.58572882599864 435.7107089971873
3559.318518655075 159.3026632857152 437.68047023648745
3817.0647982560113 169.8604945211608 466.6878731542871
3850.412896705307 169.82359681238992 466.5864975326095
3849.3156715112355 168.30367679280894 462.4105515994337
3818.06167482522 166.83899978902724 458.386384604749
3736.657744337075 161.6089683984493 444.0169914560971
3566.8538215766544 151.3003563424244 415.694312606251
3330.7404685972574 140.14820675749257 385.0540334432704
3089.7774371165724 129.16094876821282 354.8667902160017
2845.578003353499 119.55849869313633 328.48427546328855
2579.615421977899 107.7386962914559 296.0096352622559
2315.0957120994526 96.05411501350328 263.9065120452987
2044.6071577195296 84.66391553068887 232.61219616318226
1791.0769856117172 73.80085665925513 202.7661872077117

VECTORS D float
95.7688422777283 10.296579563985505 30.545160692510454
63.97510240295511 12.936979600248383 37.566825805004775
15.518129906964596 4.576468516877261 13.19219496976031
566.0678382921305 218.35216252087983 627.3721886411807
554.5543560289207 263.0310387514896 753.7591912368479
507.57113554652676 284.70266278817434 814.2237773087589
436.9373395827093 282.0401745671656 805.2270041910323
366.892339243318 267.17332307822215 761.2860135029247
325.36124802272406 262.92004987189796 748.0785997626094
342.64123956968837 303.4301697636199 862.3133445738299
386.68849818768786 371.47134194598334 1054.6115549928086
382.1104217348054 394.86705513390996 1120.0427196548542
354.09299907489606 390.8637670624685 1107.811165603475
311.09543886151175 364.6395836365228 1032.741351973669
291.0097076018821 360.3528677769837 1019.928349384315
275.9959610772668 359.47097713727277 1016.816790679405
243.8990413179849 332.85118009436303 940.9926203962922
223.6021953446703 318.61193020895735 900.4961814790242
190.47943622831454 282.4894001573006 797.8930931794782
187.72378770064608 288.97099672439833 815.729208191003
180.40532983717947 287.5297936203417 811.2359964755934
179.30021231191805 295.20105388873 832.483145298786
182.12698006938797 309.0963305121499 871.2896014578204
167.31567673900415 292.1330392842734 823.1442871145497
173.2028081549036 310.5421465783442 874.6929176270448
173.31679184759705 318.5474733953419 896.9329790363951
169.56157814788563 318.9482309285831 897.7714952787304
166.69311041774543 320.40760017177143 901.603224647682
164.8844938655289 323.1965624640985 909.1201568358052
163.1563655161221 325.8873983049542 916.3896931417619
161.9668716689906 329.2418942191149 925.521223087016
160.84673175879155 332.3607680712539 933.9853924838344
151.3951366879473 317.6391507511256 892.3264805882973
150.5296046477674 320.3430660934728 899.6324069011486
150.25438811404447 324.01656720184354 909.6575541027903
150.295010457238 328.1202360712343 920.8864744539467
149.6191066112619 330.4074619028436 927.0160085806418
157.57037912144986 351.6895891032422 986.4242219336213
156.03696111595391 351.72384000086646 986.2250398987195
153.31481571369522 348.76443977519915 977.6429977423614
150.1768075192392 344.52761384635346 965.4962039144807
144.6309694721899 334.401622162769 936.867882794907
135.4107253735572 315.3336754052338 883.220689786077
124.78703298789578 292.5029561904461 819.0761805515635
114.4199589447828 269.80304775390687 755.3410202949105
104.80789044284253 248.46805677557288 695.4670487938766
94.09462200949524 224.14332298412782 627.2628341255485
83.67364039192152 200.166620781296 560.0689194887495
73.4373190206629 176.32873231503535 493.29601279805695
63.89327962316405 153.89659391859817 430.4841449609971
95.7688422777283 10.296579563985505 30.545160692510454
63.97510240295511 12.936979600248383 37.566825805004775
15.518129906964596 4.576468516877261 13.19219496976031
566.0678382921305 218.35216252087983 627.3721886411807
554.5543560289207 263.0310387514896 753.7591912368479
507.57113554652676 284.70266278817434 814.2237773087589
436.9373395827093 282.0401745671656 805.2270041910323
366.892339243318 267.17332307822215 761.2860135029247
325.36124802272406 262.92004987189796 748.0785997626094
342.64123956968837 303.4301697636199 862.3133445738299
386.68849818768786 371.47134194598334 1054.6115549928086
382.1104217348054 394.86705513390996 1120.0427196548542
354.09299907489606 390.8637670624685 1107.811165603475
311.09543886151175 364.6395836365228 1032.741351973669
291.0097076018821 360.3528677769837 1019.928349384315
275.9959610772668 359.47097713727277 1016.816790679405
243.8990413179849 332.85118009436303 940.9926203962922
223.6021953446703 318.61193020895735 900.4961814790242
190.47943622831454 282.4894001573006 797.8930931794782
187.72378770064608 288.97099672439833 815.729208191003
180.40532983717947 287.5297936203417 811.2359964755934
179.30021231191805 295.20105388873 832.483145298786
182.12698006938797 309.0963305121499 871.2896014578204
167.31567673900415 292.1330392842734 823.1442871145497
173.2028081549036 310.5421465783442 874.6929176270448
173.31679184759705 318.5474733953419 896.9329790363951
169.56157814788563 318.9482309285831 897.7714952787304
166.69311041774543 320.40760017177143 901.603224647682
164.8844938655289 323.1965624640985 909.1201568358052
163.1563655161221 325.8873983049542 916.3896931417619
161.9668716689906 329.2418942191149 925.521223087016
160.84673175879155 332.3607680712539 933.9853924838344
151.3951366879473 317.6391507511256 892.3264805882973
150.5296046477674 320.3430660934728 899.6324069011486
150.25438811404447 324.01656720184354 909.6575541027903
150.295010457238 328.1202360712343 920.8864744539467
149.6191066112619 330.4074619028436 927.0160085806418
157.57037912144986 351.6895891032422 986.4242219336213
156.03696111595391 351.72384000086646 986.2250398987195
153.31481571369522 348.76443977519915 977.6429977423614
150.1768075192392 344.52761384635346 965.4962039144807
144.6309694721899 334.401622162769 936.867882794907
135.4107253735572 315.3336754052338 883.220689786077
124.78703298789578 292.5029561904461 819.0761805515635
114.4199589447828 269.80304775390687 755.3410202949105
104.80789044284253 248.46805677557288 695.4670487938766
94.09462200949524 224.14332298412782 627.2628341255485
83.67364039192152 200.166620781296 560.0689194887495
73.4373190206629 176.32873231503535 493.29601279805695
63.89327962316405 153.89659391859817 430.4841449609971

VECTORS L float
24.462049365127534 -24.133275403590908 -68.56117007168821
80.31129717308534 -43.58064234471222 -121.75959724480242
131.8837036264006 -49.934921984742104 -137.81352165410277
771.4958146575051 -216.00692005950458 -620.9286879354063
811.5635222605815 -182.7890612725747 -533.2961700211418
952.7995272049008 -181.4406537794994 -530.5137392699032
1099.0067774213906 -182.7209952937853 -532.349801818653
1153.5438454249584 -170.63584764701082 -496.0514796245151
1201.0009155502964 -160.26094124141733 -466.02501689902346
1392.5985858234144 -169.2947816910974 -493.77939469478946
1737.242631055041 -194.5285386026063 -568.4651982718777
1908.5846692655498 -198.6993204557794 -581.0762982011228
1933.4447134076775 -188.3915828809845 -551.5234114971877
1901.071777943684 -174.7307518906323 -510.97112499682544
2001.6547706271108 -174.55313954400663 -509.4477915234029
2098.21535821565 -174.24781719160922 -507.9203411686601
2057.0490982851375 -163.38249943128838 -475.3812469697259
2057.4139174826187 -156.6310945265185 -455.4574930571316
1922.8131145553275 -140.98548233225765 -409.1142741908083
2035.5777783783265 -144.00357806428178 -417.4344988657062
2087.4197912079935 -142.7999736374625 -413.59408415089837
2258.1271396458683 -149.87699174840023 -433.208566064808
2426.994410713674 -156.42397740656702 -451.82575872522665
2353.03282691426 -147.55518699285773 -425.9199025906375
2558.48236009163 -156.36834488573712 -451.1038788051299
2728.4074159308393 -162.9219990668992 -469.35550242708183
2808.9659565073503 -164.06745880251802 -472.24007115466776
2886.467545302772 -165.13016877569058 -474.98198813603375
2973.0066074591855 -166.955747140865 -479.8520447380394
3057.4966186569745 -168.6517888067207 -484.3884065111786
3144.134332231494 -170.56160593142488 -489.55071410403576
3226.838582602788 -172.35675678951506 -494.37798446509225
3118.305676216659 -164.1537892186526 -470.62891556099675
3195.820285602128 -166.0153822791323 -475.62058042451326
3270.971788805093 -167.820330044333 -480.51191950874926
3342.88877024594 -169.53450724523555 -485.17576545675917
3409.699412043813 -171.10479861712844 -489.3355383441545
3659.494419134561 -181.82909458208147 -519.7363487793342
3694.375935589354 -181.90024318847665 -519.6385423661103
3696.0008557975407 -180.46076298239018 -515.2324461429275
3667.8848673059806 -177.68861405732636 -507.10981930973196
3592.0267748648853 -172.79265376431974 -492.8508913388101
3431.443096203098 -164.0333190628094 -467.52637717982594
3205.953435609362 -152.3547494329536 -434.0221471082931
2975.3574781717903 -140.64209898569413 -400.4742300789089
2740.7701129106563 -128.90955808243658 -366.9827733305882
2485.5207999684044 -116.40462669267193 -331.25319886329265
2231.422071707532 -104.11250576779267 -296.1624074434508
1971.1698386988667 -91.66481678434653 -260.68381663487474
1727.183705988553 -80.09573725934304 -227.71795775328533
24.462049365127534 -24.133275403590908 -68.56117007168821
80.31129717308534 -43.58064234471222 -121.75959724480242
131.8837036264006 -49.934921984742104 -137.81352165410277
771.4958146575051 -216.00692005950458 -620.9286879354063
811.5635222605815 -182.7890612725747 -533.2961700211418
952.7995272049008 -181.4406537794994 -530.5137392699032
1099.0067774213906 -182.7209952937853 -532.349801818653
1153.5438454249584 -170.63584764701082 -496.0514796245151
1201.0009155502964 -160.26094124141733 -466.02501689902346
1392.5985858234144 -169.2947816910974 -493.77939469478946
1737.242631055041 -194.5285386026063 -568.4651982718777
1908.5846692655498 -198.6993204557794 -581.0762982011228
1933.4447134076775 -188.3915828809845 -551.5234114971877
1901.071777943684 -174.7307518906323 -510.97112499682544
2001.6547706271108 -174.55313954400663 -509.4477915234029
2098.21535821565 -174.24781719160922 -507.9203411686601
2057.0490982851375 -163.38249943128838 -475.3812469697259