# vtk DataFile Version 4.0
[MyVLM domain - lattices] 
ASCII
DATASET UNSTRUCTURED_GRID
POINTS 152 float
0.0 -0.8038654675773494 -2.1771043797964613
0.0 -2.8868173620503352 -2.992930924286336
0.0 -4.909624537454345 -3.8539053414946385
0.0 -6.891298020835876 -4.707795263890482
0.0 -8.832008024751758 -5.554133036317461
0.0 -10.744159080729283 -6.358837488505436
0.0 -12.638340819141197 -7.0928138501249105
0.0 -14.517236490945068 -7.74868994975924
0.0 -16.364290584267522 -8.37195168244803
0.0 -18.17280543678898 -8.981000724177456
0.0 -19.942843624096604 -9.575665149934785
0.0 -21.67454073860153 -10.155572422632169
0.0 -23.368037031979018 -10.720337203958778
0.0 -25.024466662300046 -11.266843420224541
0.0 -26.64307766054277 -11.797157089337079
0.0 -28.222223117730085 -12.31580305652287
0.0 -29.761658334556977 -12.823453627597022
0.0 -31.261783502740197 -13.319009284854312
0.0 -32.72288698402739 -13.801677760904445
0.0 -34.1449688646 -14.271458818965822
0.0 -35.528029228337914 -14.728352228580405
0.0 -36.8720681568194 -15.172357765613683
0.0 -38.17708572932118 -15.603475212254695
0.0 -39.443082022818366 -16.021704357016024
0.0 -40.67005711198451 -16.427044994733798
0.0 -41.85801106919157 -16.819496926567687
0.0 -43.00694396450992 -17.199059960000906
0.0 -44.11685586570838 -17.56573390884022
0.0 -45.18774673665736 -17.919518872350807
0.0 -46.21961524503601 -18.260418511054095
0.0 -47.21246117671679 -18.588433413260713
0.0 -48.16628480216061 -18.903562835885403
0.0 -49.081086381198915 -19.20580606504712
0.0 -49.95686616303368 -19.49516241606906
0.0 -50.79362438623744 -19.771631233478626
0.0 -51.59136127875321 -20.035211891007453
0.0 -52.3502191665566 -20.285513351251375
0.0 -53.07064945319891 -20.521295393146197
0.0 -53.75334294284868 -20.740660047837515
0.0 -54.39866002497 -20.942617153410595
0.0 -55.00639449987902 -21.12773323884066
0.0 -55.57665359593665 -21.29571369662741
0.0 -56.11350131323 -21.43539277829882
0.0 -56.616846579963436 -21.54702070155696
0.0 -57.0836219507697 -21.639025203283794
0.0 -57.5117355846709 -21.717153569331142
0.0 -57.90065405516491 -21.782871376968636
0.0 -58.25087721073587 -21.83480530377276
0.0 -58.56195818176558 -21.874183113929107
0.0 -58.833016500067615 -21.90342387389844
0.0 -59.06328996930145 -21.924621700915466
-0.8152906147965383 -1.982733118624787 1.0618078719818678
-0.840508508576773 -4.102030824712599 0.3458406241954781
-0.8937965186568912 -6.202253744330019 -0.3024357838762055
-0.9506477078523391 -8.266701744263857 -0.9289045911383129
-1.020681877210228 -10.295030173757722 -1.5345127177616191
-1.048954977401727 -12.276658787110145 -2.1483291499031956
-0.9930987765444168 -14.204137098970822 -2.790823927826989
-0.9074282632528687 -16.07083833135204 -3.4802039744179574
-0.838943182597301 -17.890715927344406 -4.1781325198610455
-0.780438039247949 -19.670414961925893 -4.866352370703651
-0.7250391551380654 -21.411300823181335 -5.541112154013931
-0.6716005320170477 -23.11327023704733 -6.202695612949075
-0.6190912009117757 -24.776074556297253 -6.8517859001496575
-0.5668551203523576 -26.398506573786932 -7.491699789984917
-0.5160737545272154 -27.981278573255835 -8.120480298964372
-0.46824322159258064 -29.526100982581557 -8.733428065116774
-0.4244759216876314 -31.03321837654866 -9.329871124744116
-0.3845740908079094 -32.50223286832943 -9.910902662921101
-0.34771109645469384 -33.932887346296546 -10.47722908803804
-0.3130568676883623 -35.32522429545513 -11.028733673502686
-0.28047282351476527 -36.679257910202004 -11.565377420530318
-0.25028172479700606 -37.99498910248509 -12.087157823564576
-0.22269967179244904 -39.2724244401873 -12.594056837495504
-0.19756508903558764 -40.51158037539238 -13.086029260594472
-0.17527331282135344 -41.712460681078745 -13.563064726688498
-0.15618952887338375 -42.87507203681229 -14.025144883821108
-0.13996799493970205 -43.99943392632711 -14.472216200872834
-0.12575834684109707 -45.085569954276565 -14.904213824591583
-0.11252036551224441 -46.1335009665115 -15.321080481472881
-0.10008619772204906 -47.14323032698852 -15.722806929121854
-0.0884564051429673 -48.11475955302273 -16.109388998749605
-0.07764813403823374 -49.04809041427284 -16.480821828258694
-0.06766754153321136 -49.943224878062026 -16.837100012473172
-0.05846867713071129 -50.80016536040098 -17.1782169134582
-0.05000632361003568 -51.61891406502927 -17.504166476489107
-0.0422455662862189 -52.39947293410129 -17.81494336554052
-0.03513713503927796 -53.1417392118616 -18.110829899730224
-0.028610254341892315 -53.84538115789693 -18.392737528352832
-0.02259956362415257 -54.509371758501025 -18.663487948375682
-0.017476911002663225 -55.13317930202119 -18.924542025558324
-0.013355710955940858 -55.71776541701654 -19.173257707148604
-0.010110762084772787 -56.263103324079005 -19.40970856896553
-0.007505342360435571 -56.76422893742408 -19.64753332461026
-0.005475063785670375 -57.22109850867325 -19.88685217176485
-0.003985447751437076 -57.63745027805685 -20.117394379808005
-0.0029419419370193198 -58.015742291617954 -20.33240652274043
-0.00222865752783443 -58.35636710026397 -20.530810075808052
-0.0017402354220029323 -58.65831523392469 -20.715378535234258
-0.0014049497009942318 -58.92192560544706 -20.88518074562501
-0.0011720086804816246 -59.14817277846628 -21.03753911539874
-0.0010052173229800666 -59.33790039212722 -21.170135765054788
-0.6209246712649916 -2.7431218324549804 -0.11838622694384482
-0.6503643852126241 -4.838661950829067 -0.8395777181028945
-0.6916665849409614 -6.900973628008981 -1.531965216303585
-0.7392485943984627 -8.926062724956546 -2.2065225283634673
-0.7761138204794831 -10.91140424851058 -2.8701870159771676
-0.765770157729804 -12.853110944764174 -3.5336388214776124
-0.7126976399239822 -14.747562950131856 -4.206823438327373
-0.6548892921938138 -16.59577373141274 -4.886956389380535
-0.6072679581919687 -18.402561086108427 -5.560800884789947
-0.5645539478947554 -20.170099552025906 -6.2223824310331235
-0.5237398826831674 -21.898887192923016 -6.870332609181995
-0.4840093998483088 -23.58882651882679 -7.5049192707358925
-0.44472987047405005 -25.239530885566452 -8.127204711823381
-0.40609832807983987 -26.85086247049639 -8.737567597051186
-0.3691188660449235 -28.42342993072313 -9.334335654762922
-0.33476967873007946 -29.957729941209717 -9.91614428171282
-0.3033937546858278 -31.45372444649143 -10.483098034430874
-0.27460694522347623 -32.91125389133069 -11.035635287329523
-0.24778798655364606 -34.3302738467353 -11.573878108061555
-0.22257363420117282 -35.710805588738666 -12.097768041205654
-0.19903295561691423 -37.052854802902324 -12.607289465809846
-0.17736802372104568 -38.356424314269724 -13.102434620131078
-0.15759928531051376 -39.62152277485982 -13.583179732942583
-0.1398144006963529 -40.84815778802703 -14.04950391419984
-0.12429856563552642 -42.03633329185615 -14.501396344103787
-0.11105907142990716 -43.186059115389966 -14.9388300175813
-0.09964737816779967 -44.297351434003666 -15.361760493154295
-0.08935451713250306 -45.37022692059124 -15.770141962423052
-0.07972746121286005 -46.404694482774175 -16.163949951898637
-0.07070347607438114 -47.40075575772332 -16.54317996349115
-0.062289202192950394 -48.358411985095515 -16.907828591271375
-0.054493378339291916 -49.277664632545516 -17.257891802891017
-0.047301081998971 -50.158515407452704 -17.59336490736379
-0.040678125277780114 -51.00096610319523 -17.9142429774237
-0.03459445871109547 -51.805018332797786 -18.22052158132187
-0.029018512997061326 -52.570652110399806 -18.512255629758883
-0.023905271017938854 -53.29777871612888 -18.78968887858084
-0.01920368173726683 -53.98603139315517 -19.053828983896157
-0.015028677985055923 -54.634957018673155 -19.30592089038127
-0.01156223323447653 -55.24473608524528 -19.545468698796505
-0.008799927390267616 -55.815706789887784 -19.77154322047631
-0.006606039166953134 -56.34651896170948 -19.9878540194567
-0.00486765230478973 -56.83579127893567 -20.198196246122638
-0.003547691826415294 -57.28451436136544 -20.399848194944916
-0.0025977711331711486 -57.694366905558134 -20.58819768503253
-0.001938974799320156 -58.066089726935196 -20.761209342743154
-0.0014883348561890108 -58.399447283558345 -20.91953031423354
-0.0011794444211239365 -58.69419473882709 -21.063833282534958
-0.0009663593930534462 -58.95065872919665 -21.19322082136235
-0.0008164597512981341 -59.169315747643694 -21.306383777021807

CELLS 100 350
4 0 51 52 1
4 1 52 53 2
4 2 53 54 3
4 3 54 55 4
4 4 55 56 5
4 5 56 57 6
4 6 57 58 7
4 7 58 59 8
4 8 59 60 9
4 9 60 61 10
4 10 61 62 11
4 11 62 63 12
4 12 63 64 13
4 13 64 65 14
4 14 65 66 15
4 15 66 67 16
4 16 67 68 17
4 17 68 69 18
4 18 69 70 19
4 19 70 71 20
4 20 71 72 21
4 21 72 73 22
4 22 73 74 23
4 23 74 75 24
4 24 75 76 25
4 25 76 77 26
4 26 77 78 27
4 27 78 79 28
4 28 79 80 29
4 29 80 81 30
4 30 81 82 31
4 31 82 83 32
4 32 83 84 33
4 33 84 85 34
4 34 85 86 35
4 35 86 87 36
4 36 87 88 37
4 37 88 89 38
4 38 89 90 39
4 39 90 91 40
4 40 91 92 41
4 41 92 93 42
4 42 93 94 43
4 43 94 95 44
4 44 95 96 45
4 45 96 97 46
4 46 97 98 47
4 47 98 99 48
4 48 99 100 49
4 49 100 101 50
1 102
1 103
1 104
1 105
1 106
1 107
1 108
1 109
1 110
1 111
1 112
1 113
1 114
1 115
1 116
1 117
1 118
1 119
1 120
1 121
1 122
1 123
1 124
1 125
1 126
1 127
1 128
1 129
1 130
1 131
1 132
1 133
1 134
1 135
1 136
1 137
1 138
1 139
1 140
1 141
1 142
1 143
1 144
1 145
1 146
1 147
1 148
1 149
1 150
1 151

CELL_TYPES 100
9
9
9
9
9
9
9
9
9
9
9
9
9
9
9
9
9
9
9
9
9
9
9
9
9
9
9
9
9
9
9
9
9
9
9
9
9
9
9
9
9
9
9
9
9
9
9
9
9
9
1
1
1
1
1
1
1
1
1
1
1
1
1
1
1
1
1
1
1
1
1
1
1
1
1
1
1
1
1
1
1
1
1
1
1
1
1
1
1
1
1
1
1
1
1
1
1
1
1
1

CELL_DATA 100

VECTORS S float
-7.16376076707035e-18 -1.7455914691966968e-15 -3.2909379222865443e-16
-9.96453566047964e-18 -1.7465319955478507e-15 -3.239912304997779e-16
-0.0 -0.0 -0.0
-6.531577589338999e-20 4.361545626112488e-16 8.357283980153268e-17
-3.815756892123506e-17 1.395421035225699e-14 2.68829856628256e-15
0.0 -0.0 -0.0
1.936873546061532e-17 -6.979101069326397e-15 -1.3337432475399996e-15
0.0 -0.0 -0.0
-1.8476843102203558e-17 6.98078613143098e-15 1.3249081204501077e-15
0.0 -0.0 -0.0
0.0 -0.0 -0.0
-8.788098248523302e-17 2.7927199523565137e-14 5.2780082086158815e-15
-4.38764445232308e-17 1.3964235603480086e-14 2.6356385572938618e-15
0.0 -0.0 -0.0
-3.76583403104472e-17 1.3965806361499084e-14 2.6273991434678963e-15
-3.5760896539074467e-17 1.3966260700759693e-14 2.6250095110824293e-15
3.3191992153238867e-17 -1.3966713005370825e-14 -2.622635669291746e-15
0.0 -0.0 -0.0
2.930821816868222e-17 -1.396747363718512e-14 -2.6186280681810193e-15
1.392538512823204e-17 -6.983999199294938e-15 -1.3079217109756395e-15
0.0 -0.0 -0.0
0.0 -0.0 -0.0
2.424475886881078e-17 -1.396889934265743e-14 -2.61106397526971e-15
0.0 -0.0 -0.0
-2.2903907749951178e-17 1.3969421838639408e-14 2.6082792491857863e-15
0.0 -0.0 -0.0
-2.0522658053677798e-17 1.3970001586794876e-14 2.6051921660472756e-15
-3.9714139620101317e-17 2.7940582021264956e-14 5.2072897025608306e-15
0.0 -0.0 -0.0
0.0 -0.0 -0.0
1.7982329492306018e-17 -1.3971302101718062e-14 -2.598227464048043e-15
3.498239436706381e-17 -2.794318457093637e-14 -5.1933398899921896e-15
-1.722965907109494e-17 1.3971875667534366e-14 2.595146471085676e-15
0.0 -0.0 -0.0
-1.629323747071318e-17 1.3972452550599354e-14 2.5920447504318545e-15
0.0 -0.0 -0.0
-1.5738960916947798e-17 1.3972818936171211e-14 2.5900723925526717e-15
1.5530320150271378e-17 -1.3973077845802186e-14 -2.5886765075781954e-15
0.0 -0.0 -0.0
-1.492527822473254e-17 1.3973585250768891e-14 2.5859397154889447e-15
0.0 -0.0 -0.0
-1.4419070839732998e-17 1.3974059322784091e-14 2.583379544373246e-15
0.0 -0.0 -0.0
0.0 -0.0 -0.0
-6.7651739379449e-18 6.987347195542389e-15 1.2899733855829096e-15
-6.743421951265709e-18 6.987436156719757e-15 1.289491533966235e-15
-6.64898292138754e-18 6.9875193795887365e-15 1.289040978806611e-15
1.311642576072458e-17 -1.397518893494936e-14 -2.5772686954260843e-15
0.0 -0.0 -0.0
0.0 -0.0 -0.0
-7.16376076707035e-18 -1.7455914691966968e-15 -3.2909379222865443e-16
-9.96453566047964e-18 -1.7465319955478507e-15 -3.239912304997779e-16
-0.0 -0.0 -0.0
-6.531577589338999e-20 4.361545626112488e-16 8.357283980153268e-17
-3.815756892123506e-17 1.395421035225699e-14 2.68829856628256e-15
0.0 -0.0 -0.0
1.936873546061532e-17 -6.979101069326397e-15 -1.3337432475399996e-15
0.0 -0.0 -0.0
-1.8476843102203558e-17 6.98078613143098e-15 1.3249081204501077e-15
0.0 -0.0 -0.0
0.0 -0.0 -0.0
-8.788098248523302e-17 2.7927199523565137e-14 5.2780082086158815e-15
-4.38764445232308e-17 1.3964235603480086e-14 2.6356385572938618e-15
0.0 -0.0 -0.0
-3.76583403104472e-17 1.3965806361499084e-14 2.6273991434678963e-15
-3.5760896539074467e-17 1.3966260700759693e-14 2.6250095110824293e-15
3.3191992153238867e-17 -1.3966713005370825e-14 -2.622635669291746e-15
0.0 -0.0 -0.0
2.930821816868222e-17 -1.396747363718512e-14 -2.6186280681810193e-15
1.392538512823204e-17 -6.983999199294938e-15 -1.3079217109756395e-15
0.0 -0.0 -0.0
0.0 -0.0 -0.0
2.424475886881078e-17 -1.396889934265743e-14 -2.61106397526971e-15
0.0 -0.0 -0.0
-2.2903907749951178e-17 1.3969421838639408e-14 2.6082792491857863e-15
0.0 -0.0 -0.0
-2.0522658053677798e-17 1.3970001586794876e-14 2.6051921660472756e-15
-3.9714139620101317e-17 2.7940582021264956e-14 5.2072897025608306e-15
0.0 -0.0 -0.0
0.0 -0.0 -0.0
1.7982329492306018e-17 -1.3971302101718062e-14 -2.598227464048043e-15
3.498239436706381e-17 -2.794318457093637e-14 -5.1933398899921896e-15
-1.722965907109494e-17 1.3971875667534366e-14 2.595146471085676e-15
0.0 -0.0 -0.0
-1.629323747071318e-17 1.3972452550599354e-14 2.5920447504318545e-15
0.0 -0.0 -0.0
-1.5738960916947798e-17 1.3972818936171211e-14 2.5900723925526717e-15
1.5530320150271378e-17 -1.3973077845802186e-14 -2.5886765075781954e-15
0.0 -0.0 -0.0
-1.492527822473254e-17 1.3973585250768891e-14 2.5859397154889447e-15
0.0 -0.0 -0.0
-1.4419070839732998e-17 1.3974059322784091e-14 2.583379544373246e-15
0.0 -0.0 -0.0
0.0 -0.0 -0.0
-6.7651739379449e-18 6.987347195542389e-15 1.2899733855829096e-15
-6.743421951265709e-18 6.987436156719757e-15 1.289491533966235e-15
-6.64898292138754e-18 6.9875193795887365e-15 1.289040978806611e-15
1.311642576072458e-17 -1.397518893494936e-14 -2.5772686954260843e-15
0.0 -0.0 -0.0
0.0 -0.0 -0.0

SCALARS Gamma float
LOOKUP_TABLE default
-0.0
-0.0
-0.0
51.221916740006904
54.832357572637484
54.91399025798228
52.72535299289641
47.99730509699988
44.95003528379229
47.547783220469945
54.13833913356361
54.787280126276514
50.85474911781909
45.989693570951545
45.000052622729555
44.24117104300499
40.609052039194616
38.44772965008228
33.7210371259156
33.93093273135244
33.50744009159943
35.10837620195014
36.77746812012984
34.70410486233513
36.801269107624606
38.05346133204057
38.15194578258828
38.27911516759766
38.52202774782932
38.79339889836065
39.121850373002474
39.41723584189118
37.44038475012862
37.75181412447013
38.06652007234685
38.369316144642454
38.61598670204393
40.95789762773846
40.88645858506662
40.473469386380955
39.78015232483729
38.59389395584749
36.53725199372748
33.867465916942066
31.18670847483281
28.567774742173942
25.750946046346286
23.016645173986454
20.238501673450905
17.66146870273716
-0.0
-0.0
-0.0
51.221916740006904
54.832357572637484
54.91399025798228
52.72535299289641
47.99730509699988
44.95003528379229
47.547783220469945
54.13833913356361
54.787280126276514
50.85474911781909
45.989693570951545
45.000052622729555
44.24117104300499
40.609052039194616
38.44772965008228
33.7210371259156
33.93093273135244
33.50744009159943
35.10837620195014
36.77746812012984
34.70410486233513
36.801269107624606
38.05346133204057
38.15194578258828
38.27911516759766
38.52202774782932
38.79339889836065
39.121850373002474
39.41723584189118
37.44038475012862
37.75181412447013
38.06652007234685
38.369316144642454
38.61598670204393
40.95789762773846
40.88645858506662
40.473469386380955
39.78015232483729
38.59389395584749
36.53725199372748
33.867465916942066
31.18670847483281
28.567774742173942
25.750946046346286
23.016645173986454
20.238501673450905
17.66146870273716

VECTORS Ftot float
115.73423183455604 6.8637920679213344 -38.9264991684381
139.28501890409038 15.26626211841635 -86.57927480569226
142.6917203436123 22.67364467582055 -128.5886288344516
1273.1956270491721 -2.199378973379167 12.473297986174599
1301.288524176819 -38.43521259435232 217.9769224194896
1396.0732970124022 -50.05845757453861 283.89562036058226
1477.6189110141538 -48.92803350157584 277.48466686713033
1466.550750684854 -47.89467498137767 271.62419947838345
1482.6256176435527 -51.38271188359883 291.4058397481058
1674.690996384765 -65.79458372552467 373.1396265118793
2034.2827122533151 -85.94350080162297 487.4098136105393
2191.8545018372406 -96.02919906765004 544.6086508248078
2159.2143615622663 -96.35613824858554 546.4628150577679
2072.188443209523 -88.8555165815797 503.9246757618476
2144.5339000994104 -86.3817770132486 489.89540152150255
2217.9258315171187 -86.12696907225171 488.45031387823275
2136.695032135513 -78.19373014448027 443.4586801764795
2114.4493586670346 -74.34662977639478 421.64068980071187
1934.309414617979 -64.16626833942728 363.90499106610145
2023.1558432421934 -64.9761340583369 368.49796779408524
2070.6025079870883 -65.02542391951596 368.7775044876815
2246.7631081727695 -66.24429796121701 375.69008268078454
2428.9753007473732 -70.17552694308637 397.9851901344142
2361.2248437051217 -66.80388679069561 378.86366863586767
2574.787905277148 -71.66754640100321 406.4468529606138
2736.488609263742 -71.89029775108033 407.71013864260146
2813.571404349778 -71.74898946683078 406.9087395391756
2890.1770417176485 -72.12458383569695 409.03884105487714
2974.0613304098642 -72.55991778344736 411.50774255821636
3058.2933141138838 -73.18632178950458 415.0602562095043
3145.4459202686153 -74.03673814733393 419.8832070387675
3228.466889000347 -74.80876264436777 424.26157553309486
3119.7825879689967 -72.06131177997446 408.6800073955683
3198.326110410357 -72.24838787598671 409.7409686577676
3274.84165975045 -73.31744013866067 415.80386531929156
3348.573243475701 -74.56174945611394 422.86069412934523
3416.2348282325215 -75.07277361733209 425.758856164247
3669.042118038138 -80.47809034797307 456.41393066800623
3706.1227120335957 -80.60371703422253 457.1263950097917
3709.228644851342 -80.00095082575363 453.7079379702222
3682.408648148425 -79.5938430580482 451.39911508860916
3606.9023308025844 -76.81993425739118 435.66749653816566
3445.1682732891536 -71.97672471136251 408.2002902911746
3218.967596213869 -66.72542359577716 378.4186817450175
2985.687901133731 -61.49601169751026 348.7612131190843
2752.3733529381643 -56.997825503850194 323.2507315377248
2495.5439454046277 -51.37173722251003 291.3435993521964
2242.1593477133433 -45.86373210819931 260.106150085045
1980.3248189485976 -40.436386473214135 229.32614345657234
1734.832023578083 -35.24799659839988 199.90132228644998
115.73423183455604 6.8637920679213344 -38.9264991684381
139.28501890409038 15.26626211841635 -86.57927480569226
142.6917203436123 22.67364467582055 -128.5886288344516
1273.1956270491721 -2.199378973379167 12.473297986174599
1301.288524176819 -38.43521259435232 217.9769224194896
1396.0732970124022 -50.05845757453861 283.89562036058226
1477.6189110141538 -48.92803350157584 277.48466686713033
1466.550750684854 -47.89467498137767 271.62419947838345
1482.6256176435527 -51.38271188359883 291.4058397481058
1674.690996384765 -65.79458372552467 373.1396265118793
2034.2827122533151 -85.94350080162297 487.4098136105393
2191.8545018372406 -96.02919906765004 544.6086508248078
2159.2143615622663 -96.35613824858554 546.4628150577679
2072.188443209523 -88.8555165815797 503.9246757618476
2144.5339000994104 -86.3817770132486 489.89540152150255
2217.9258315171187 -86.12696907225171 488.45031387823275
2136.695032135513 -78.19373014448027 443.4586801764795
2114.4493586670346 -74.34662977639478 421.64068980071187
1934.309414617979 -64.16626833942728 363.90499106610145
2023.1558432421934 -64.9761340583369 368.49796779408524
2070.6025079870883 -65.02542391951596 368.7775044876815
2246.7631081727695 -66.24429796121701 375.69008268078454
2428.9753007473732 -70.17552694308637 397.9851901344142
2361.2248437051217 -66.80388679069561 378.86366863586767
2574.787905277148 -71.66754640100321 406.4468529606138
2736.488609263742 -71.89029775108033 407.71013864260146
2813.571404349778 -71.74898946683078 406.9087395391756
2890.1770417176485 -72.12458383569695 409.03884105487714
2974.0613304098642 -72.55991778344736 411.50774255821636
3058.2933141138838 -73.18632178950458 415.0602562095043
3145.4459202686153 -74.03673814733393 419.8832070387675
3228.466889000347 -74.80876264436777 424.26157553309486
3119.7825879689967 -72.06131177997446 408.6800073955683
3198.326110410357 -72.24838787598671 409.7409686577676
3274.84165975045 -73.31744013866067 415.80386531929156
3348.573243475701 -74.56174945611394 422.86069412934523
3416.2348282325215 -75.07277361733209 425.758856164247
3669.042118038138 -80.47809034797307 456.41393066800623
3706.1227120335957 -80.60371703422253 457.1263950097917
3709.228644851342 -80.00095082575363 453.7079379702222
3682.408648148425 -79.5938430580482 451.39911508860916
3606.9023308025844 -76.81993425739118 435.66749653816566
3445.1682732891536 -71.97672471136251 408.2002902911746
3218.967596213869 -66.72542359577716 378.4186817450175
2985.687901133731 -61.49601169751026 348.7612131190843
2752.3733529381643 -56.997825503850194 323.2507315377248
2495.5439454046277 -51.37173722251003 291.3435993521964
2242.1593477133433 -45.86373210819931 260.106150085045
1980.3248189485976 -40.436386473214135 229.32614345657234
1734.832023578083 -35.24799659839988 199.90132228644998

VECTORS D float
91.54974764956779 -6.156744233555912 30.663962554062838
59.916265173510865 -7.229120129718468 37.127090837282324
12.630636455548016 -2.1859844572306946 11.350714309640273
531.5776787915805 -119.28031062556846 622.9221388335765
516.3699503273496 -141.81245618990374 743.4383558729132
474.28223093398003 -153.361811708801 806.3990984957248
411.1846983311869 -152.4224990831535 803.5550740105442
346.27920916473676 -144.27255170810344 762.2839567921174
308.791129870402 -142.39823085169638 754.585970828039
321.59131653271936 -162.16205863288317 860.6070930452305
359.75577029494684 -196.42725027152866 1043.774149044201
356.3918122884724 -208.99182984518944 1111.7596565909835
323.5635438681509 -202.38782625036566 1077.6849879730603
280.8171065808986 -186.11987066222832 992.5228730655182
261.62425234737447 -182.9749143788726 976.3436837273664
247.91069498858562 -182.16992156776845 972.605285576295
217.55452346675597 -167.3307767120899 893.8649126100084
198.76628321447126 -159.48818903554985 852.4116084401372
167.11443938822336 -139.4727974170534 745.80291535349
163.05073539659142 -141.18531511426528 755.6328973687929
157.1689178878405 -140.75015818050758 753.6630538197802
158.09851848259254 -146.1009394863774 782.6840165615776
162.09552226214618 -154.25463804655263 826.7501291837651
149.80621973579196 -146.520681095296 785.6604189790396
156.04157921767944 -156.57553379089754 839.957471484179
155.77451282864303 -160.08623954433682 859.1774432300721
152.74870663924526 -160.51145874781074 861.9249559187516
150.5776716599901 -161.51401879732433 867.7788274857286
149.00427864986614 -162.8184664608174 875.5183710907417
147.77828417673084 -164.38225762104375 884.4264846084798
147.04833508791492 -166.29859678546245 895.2457929800911
146.3375241108145 -168.0535194411818 905.2112605952699
138.12343653126348 -160.89230241699823 867.1368225367914
137.3163972626297 -162.0729806265748 874.0047023030185
137.38055384839927 -164.13767354652197 885.6499213602634
137.66490585358696 -166.34270262640445 898.0635052089323
137.31582122802033 -167.73346570449672 905.7162112202611
145.1268168296547 -178.99237641557514 967.0301669827685
143.97829128842386 -179.16326783897426 968.4647795252502
141.68773231138925 -177.76485619531812 961.4018016625173
139.12264421894642 -175.86803209277065 951.6197020502163
133.8544981729759 -170.38296015274972 922.3854293680896
125.44394570089969 -160.68996546330789 870.3139696402598
115.70770917032307 -149.07352089365267 807.7522628757324
106.1108509153134 -137.423323271229 744.9319044596062
97.32122732554599 -126.63167786828717 686.6947314497189
87.40376264676372 -114.20307314832186 619.5127587773915
77.83325638749865 -102.07288205258861 553.8843150045897
68.33184130723821 -89.89910661645092 487.96049523294
59.4599783801066 -78.44001760763925 425.86435732766006
91.54974764956779 -6.156744233555912 30.663962554062838
59.916265173510865 -7.229120129718468 37.127090837282324
12.630636455548016 -2.1859844572306946 11.350714309640273
531.5776787915805 -119.28031062556846 622.9221388335765
516.3699503273496 -141.81245618990374 743.4383558729132
474.28223093398003 -153.361811708801 806.3990984957248
411.1846983311869 -152.4224990831535 803.5550740105442
346.27920916473676 -144.27255170810344 762.2839567921174
308.791129870402 -142.39823085169638 754.585970828039
321.59131653271936 -162.16205863288317 860.6070930452305
359.75577029494684 -196.42725027152866 1043.774149044201
356.3918122884724 -208.99182984518944 1111.7596565909835
323.5635438681509 -202.38782625036566 1077.6849879730603
280.8171065808986 -186.11987066222832 992.5228730655182
261.62425234737447 -182.9749143788726 976.3436837273664
247.91069498858562 -182.16992156776845 972.605285576295
217.55452346675597 -167.3307767120899 893.8649126100084
198.76628321447126 -159.48818903554985 852.4116084401372
167.11443938822336 -139.4727974170534 745.80291535349
163.05073539659142 -141.18531511426528 755.6328973687929
157.1689178878405 -140.75015818050758 753.6630538197802
158.09851848259254 -146.1009394863774 782.6840165615776
162.09552226214618 -154.25463804655263 826.7501291837651
149.80621973579196 -146.520681095296 785.6604189790396
156.04157921767944 -156.57553379089754 839.957471484179
155.77451282864303 -160.08623954433682 859.1774432300721
152.74870663924526 -160.51145874781074 861.9249559187516
150.5776716599901 -161.51401879732433 867.7788274857286
149.00427864986614 -162.8184664608174 875.5183710907417
147.77828417673084 -164.38225762104375 884.4264846084798
147.04833508791492 -166.29859678546245 895.2457929800911
146.3375241108145 -168.0535194411818 905.2112605952699
138.12343653126348 -160.89230241699823 867.1368225367914
137.3163972626297 -162.0729806265748 874.0047023030185
137.38055384839927 -164.13767354652197 885.6499213602634
137.66490585358696 -166.34270262640445 898.0635052089323
137.31582122802033 -167.73346570449672 905.7162112202611
145.1268168296547 -178.99237641557514 967.0301669827685
143.97829128842386 -179.16326783897426 968.4647795252502
141.68773231138925 -177.76485619531812 961.4018016625173
139.12264421894642 -175.86803209277065 951.6197020502163
133.8544981729759 -170.38296015274972 922.3854293680896
125.44394570089969 -160.68996546330789 870.3139696402598
115.70770917032307 -149.07352089365267 807.7522628757324
106.1108509153134 -137.423323271229 744.9319044596062
97.32122732554599 -126.63167786828717 686.6947314497189
87.40376264676372 -114.20307314832186 619.5127587773915
77.83325638749865 -102.07288205258861 553.8843150045897
68.33184130723821 -89.89910661645092 487.96049523294
59.4599783801066 -78.44001760763925 425.86435732766006

VECTORS L float
24.184484184988253 13.020536301477252 -69.59046172250095
79.36875373057953 22.495382248134817 -123.70636564297462
130.06108388806433 24.85962913305125 -139.9393431440919
741.6179482575916 117.08093165218928 -610.4488408474017
784.9185738494696 103.3772435955514 -525.4614334534236
921.7910660784221 103.30335413426232 -522.5034781351424
1066.434212682967 103.49446558157764 -526.0704071434138
1120.2715415201171 96.37787672672575 -490.6597573137336
1173.834487773151 91.0155189680976 -463.1801310799333
1353.0996798520455 96.36747490735848 -487.46746653335106
1674.5269419583688 110.48374946990569 -556.3643354336617
1835.462689548768 112.96263077753945 -567.151005766176
1835.6508176941147 106.0316880017801 -531.2221729152922
1791.3713366286247 97.26435408064857 -488.5981973036704
1882.909647752036 96.59313736562406 -486.4482822058642
1970.015136528533 96.04295249551674 -484.15497169806224
1919.1405086687573 89.13704656760956 -450.4062324335287
1915.6830754525638 85.14155925915509 -430.7709186394253
1767.1949752297558 75.30652907762614 -381.89792428738843
1860.1051078456023 76.20918105592844 -387.1349295747078
1913.4335900992482 75.72473426099161 -384.8855493320987
2088.6645896901773 79.85664152516038 -406.99393388079295
2266.8797784852272 84.07911110346626 -428.7649390493509
2211.41862396933 79.71679430460043 -406.7967503431722
2418.746326059469 84.90798738989436 -433.5106185235652
2580.7140964350992 88.19594179325658 -451.46730458747106
2660.822697710533 88.76246928098003 -455.01621637957635
2739.599370057659 89.38943496162742 -458.73998643085156
2825.0570517599986 90.25854867737003 -464.01062853252523
2910.515029937153 91.19593583153919 -469.36622839897547
2998.397585180701 92.26185863812853 -475.3625859413238
3082.1293648895326 93.24475679681406 -480.9496850621753
2981.6591514377337 88.83099063702375 -458.4568151412229
3061.009713147728 89.82459275058812 -464.2637336452511
3137.461105902051 90.82023340786132 -469.84605604097186
3210.9083376221142 91.7809531702905 -475.20281107958726
3278.9190070045015 92.66069208716462 -479.9573550560141
3523.9153012084844 98.51428606760204 -510.61623631476215
3562.144420745172 98.55955080475177 -511.3383845154588
3567.540912539953 97.76390536956447 -507.69386369229505
3543.286003929478 96.27418903472247 -500.22058696160735
3473.0478326296084 93.56302589535855 -486.71793282992394
3319.7243275882543 88.71324075194538 -462.11367934908515
3103.259887043546 82.34809729787551 -429.33358113071483
2879.5770502184178 75.92731157371877 -396.1706913405221
2655.0521256126185 69.63385236443696 -363.4439999119941
2408.140182757864 62.83133592581188 -328.1691594251952
2164.3260913258446 56.209149944389296 -293.7781649195446
1911.9929776413596 49.46272014323677 -258.63435177636757