# vtk DataFile Version 4.0
[MyVLM domain - lattices] 
ASCII
DATASET UNSTRUCTURED_GRID
POINTS 152 float
0.0 -0.39238427375119445 2.287360433382781
0.0 1.0035917094783964 4.035362893229183
0.0 2.324906901731562 5.792392198242083
0.0 3.614141519148044 7.522719304763173
0.0 4.871676797704306 9.226024317825214
0.0 6.125295961960093 10.878994343947205
0.0 7.398717285999645 12.461727388092903
0.0 8.69795061902526 13.969180588013224
0.0 9.985915519662145 15.43246812838965
0.0 11.24761080420248 16.864177496938634
0.0 12.483176627200777 18.26419109002518
0.0 13.692916683673564 19.632254077272925
0.0 14.877145104289946 20.96810287175328
0.0 16.03840213559634 22.269605953526057
0.0 17.175003544363157 23.538176562073012
0.0 18.28326064296527 24.77690987381992
0.0 19.36262536268069 25.98626577302926
0.0 20.413994038555114 27.165492145294785
0.0 21.438012532882638 28.31404704780371
0.0 22.434681038689384 29.431930318587913
0.0 23.403999743846462 30.519141800004782
0.0 24.34596883107001 31.575681338737297
0.0 25.260588477921143 32.60154878579399
0.0 26.147858856805982 33.59674399650893
0.0 27.007780134975654 34.56126683054178
0.0 27.840352474526277 35.495117151877736
0.0 28.645576032398964 36.39829482882757
0.0 29.423450960379856 37.2707997340276
0.0 30.173977177547226 38.112631935379206
0.0 30.897151699816654 38.92379393682652
0.0 31.592974047592925 39.70428614079771
0.0 32.2614448266447 40.45410803899253
0.0 32.90256461893313 41.17325914308756
0.0 33.51633398261186 41.86173898473632
0.0 34.10275345202705 42.51954711556912
0.0 34.66182353771736 43.14668310719318
0.0 35.193863016295346 43.74287947427045
0.0 35.69988292523587 44.30728785562869
0.0 36.18143050292516 44.83860996410866
0.0 36.63931293675173 45.33616848907038
0.0 37.07306838806351 45.80035095915646
0.0 37.48293702309518 46.23095585096794
0.0 37.87802124339922 46.62034534271934
0.0 38.25811706963596 46.9686905933993
0.0 38.616354147751665 47.281756514560406
0.0 38.9480472473929 47.56347448126418
0.0 39.25200161902294 47.814847007406264
0.0 39.529336805338886 48.03493468512241
0.0 39.779051923806385 48.22457735457805
0.0 39.999174933378356 48.38542975468848
0.0 40.18799869404393 48.518924346007175
-0.8152906147965383 2.248001185644748 0.07181396823779806
-0.840508508576773 3.725383213405684 1.7515086461423472
-0.8937965186568912 5.220091411368852 3.363043944015265
-0.9506477078523391 6.694721420472477 4.937805845749708
-1.020681877210228 8.148501304320705 6.476442082890729
-1.048954977401727 9.557733808279245 7.998837013061873
-0.9930987765444168 10.905731602632239 9.51899296847306
-0.9074282632528687 12.177652267854608 11.049364217873551
-0.838943182597301 13.404748225040604 12.56372686624977
-0.780438039247949 14.60190287465751 14.04959225775895
-0.7250391551380654 15.772174363938731 15.504394302185457
-0.6716005320170477 16.915331383343226 16.928327091279872
-0.6190912009117757 18.030817021735857 18.321857928970278
-0.5668551203523576 19.115927419877522 19.687255622546967
-0.5160737545272154 20.172257925326562 21.02318151646214
-0.46824322159258064 21.20363949306191 22.326421057805906
-0.4244759216876314 22.210619912909156 23.596514596337656
-0.3845740908079094 23.192308012230292 24.83420991468926
-0.34771109645469384 24.14812792162931 26.039990224658517
-0.3130568676883623 25.07817479749605 27.213775680553802
-0.28047282351476527 25.982480431931094 28.355539605635236
-0.25028172479700606 26.861046867482706 29.46528028600133
-0.22269967179244904 27.713888814659306 30.542985378069897
-0.19756508903558764 28.541043122247686 31.58862396203753
-0.17527331282135344 29.342518240829484 32.602188947024295
-0.15618952887338375 30.118329131056694 33.583667779552606
-0.13996799493970205 30.86851943189774 34.533023842180185
-0.12575834684109707 31.59314201220812 35.450212772669865
-0.11252036551224441 32.29224356177646 36.33519539363722
-0.10008619772204906 32.9658316150721 37.187965382911834
-0.0884564051429673 33.61390957052288 38.00851988887413
-0.07764813403823374 34.236481391746935 38.796855585653596
-0.06766754153321136 34.833551485084094 39.55296877589212
-0.05846867713071129 35.40512526182841 40.276854918974855
-0.05000632361003568 35.951207657836655 40.968509873226196
-0.0422455662862189 36.47180302307656 41.627929988589834
-0.03513713503927796 36.966681208894656 42.255308382716
-0.028610254341892315 37.43509919501826 42.85126852364147
-0.02259956362415257 37.874756713004075 43.417740565768625
-0.017476911002663225 38.28446285417358 43.95572380013038
-0.013355710955940858 38.66637143966407 44.4634109562048
-0.010110762084772787 39.02042248991833 44.940852362816216
-0.007505342360435571 39.335497623739855 45.39737744952591
-0.005475063785670375 39.611498855080455 45.83306843639078
-0.003985447751437076 39.85679896025569 46.24089972989251
-0.0029419419370193198 40.07690338258215 46.61625171457467
-0.00222865752783443 40.27269134349499 46.95838663605533
-0.0017402354220029323 40.44190186815737 47.269201677486144
-0.0014049497009942318 40.585294041401426 47.54805989106447
-0.0011720086804816246 40.70505065588362 47.793129696277326
-0.0010052173229800666 40.80306126428537 48.00282557016663
-0.6209246712649916 2.316420079109813 1.4740863962190498
-0.6503643852126241 3.7706153106916958 3.1464266077430127
-0.6916665849409614 5.210435864550448 4.7772076090375215
-0.7392485943984627 6.626935811403987 6.373935926063712
-0.7761138204794831 8.014459762183032 7.94135699370378
-0.765770157729804 9.364301185086774 9.486776459580614
-0.7126976399239822 10.66835243956068 11.016997441893244
-0.6548892921938138 11.92888345217163 12.530115246096605
-0.6072679581919687 13.156684952869872 14.017075374669306
-0.5645539478947554 14.356627393398998 15.473791033349633
-0.5237398826831674 15.529826319090029 16.899326168461762
-0.4840093998483088 16.676063375400094 18.29386400122208
-0.44472987047405005 17.794472570590802 19.658131184978885
-0.40609832807983987 18.88474521444647 20.992386741578304
-0.3691188660449235 19.94824455531173 22.295486769837133
-0.33476967873007946 20.986083027944893 23.56649782615998
-0.3033937546858278 21.99817539708177 24.805491431425597
-0.27460694522347623 22.98416429662707 26.012767451392726
-0.24778798655364606 23.943950216118512 27.18840938525357
-0.22257363420117282 24.87758080885216 28.332377247144972
-0.19903295561691423 25.785068809144732 29.44466035170647
-0.17736802372104568 26.666420544427144 30.525253389593125
-0.15759928531051376 27.521655393181007 31.574140100328155
-0.1398144006963529 28.35079038512664 32.59130619427952
-0.12429856563552642 29.153834340645055 33.576744270268776
-0.11105907142990716 29.93080927447357 34.53043585573796
-0.09964737816779967 30.681751415637052 35.452350550925665
-0.08935451713250306 31.406698107485102 36.34245702104101
-0.07972746121286005 32.105669300988694 37.200738525231614
-0.07070347607438114 32.778668663024305 38.02719198662277
-0.062289202192950394 33.42569897013088 38.82181507542167
-0.054493378339291916 34.046763509508864 39.58460503333965
-0.047301081998971 34.64186610528531 40.3155586515531
-0.040678125277780114 35.21101077420426 41.01467255961357
-0.03459445871109547 35.754201129060505 41.6819437260263
-0.029018512997061326 36.271392406240786 42.31740971192264
-0.023905271017938854 36.76238589415874 42.921237256121444
-0.01920368173726683 37.22636014402851 43.49411563599595
-0.015028677985055923 37.66230026765124 44.036896443859504
-0.01156223323447653 38.070610525791025 44.54924046465404
-0.008799927390267616 38.45204839998823 45.03051209589842
-0.006606039166953134 38.803589825933614 45.4832488288392
-0.00486765230478973 39.12214096868701 45.91004669923358
-0.003547691826415294 39.40992058292451 46.3090439508512
-0.0025977711331711486 39.67068855295726 46.67708566615327
-0.001938974799320156 39.90610413058091 47.01277956757006
-0.0014883348561890108 40.11563975741487 47.31656832914414
-0.0011794444211239365 40.298747057227715 47.58891209316904
-0.0009663593930534462 40.45615761862999 47.82919698391149
-0.0008164597512981341 40.58893867349116 48.036527487503434

CELLS 100 350
4 0 51 52 1
4 1 52 53 2
4 2 53 54 3
4 3 54 55 4
4 4 55 56 5
4 5 56 57 6
4 6 57 58 7
4 7 58 59 8
4 8 59 60 9
4 9 60 61 10
4 10 61 62 11
4 11 62 63 12
4 12 63 64 13
4 13 64 65 14
4 14 65 66 15
4 15 66 67 16
4 16 67 68 17
4 17 68 69 18
4 18 69 70 19
4 19 70 71 20
4 20 71 72 21
4 21 72 73 22
4 22 73 74 23
4 23 74 75 24
4 24 75 76 25
4 25 76 77 26
4 26 77 78 27
4 27 78 79 28
4 28 79 80 29
4 29 80 81 30
4 30 81 82 31
4 31 82 83 32
4 32 83 84 33
4 33 84 85 34
4 34 85 86 35
4 35 86 87 36
4 36 87 88 37
4 37 88 89 38
4 38 89 90 39
4 39 90 91 40
4 40 91 92 41
4 41 92 93 42
4 42 93 94 43
4 43 94 95 44
4 44 95 96 45
4 45 96 97 46
4 46 97 98 47
4 47 98 99 48
4 48 99 100 49
4 49 100 101 50
1 102
1 103
1 104
1 105
1 106
1 107
1 108
1 109
1 110
1 111
1 112
1 113
1 114
1 115
1 116
1 117
1 118
1 119
1 120
1 121
1 122
1 123
1 124
1 125
1 126
1 127
1 128
1 129
1 130
1 131
1 132
1 133
1 134
1 135
1 136
1 137
1 138
1 139
1 140
1 141
1 142
1 143
1 144
1 145
1 146
1 147
1 148
1 149
1 150
1 151

CELL_TYPES 100
9
9
9
9
9
9
9
9
9
9
9
9
9
9
9
9
9
9
9
9
9
9
9
9
9
9
9
9
9
9
9
9
9
9
9
9
9
9
9
9
9
9
9
9
9
9
9
9
9
9
1
1
1
1
1
1
1
1
1
1
1
1
1
1
1
1
1
1
1
1
1
1
1
1
1
1
1
1
1
1
1
1
1
1
1
1
1
1
1
1
1
1
1
1
1
1
1
1
1
1

CELL_DATA 100

VECTORS S float
1.1199581704477559e-17 2.7431900579391943e-15 2.2575556159105793e-15
0.0 0.0 0.0
0.0 0.0 0.0
3.6483824640073995e-17 -1.1019524275318367e-14 -8.973134648091928e-15
-0.0 0.0 0.0
1.1116932797022432e-16 -4.3719855067007596e-14 -3.6328173393189394e-14
5.47878419362015e-18 -4.355301732145577e-14 -3.6528193494411435e-14
0.0 0.0 0.0
-2.3383064804036196e-16 -8.665103120155212e-14 -7.359511659123e-14
1.4962602000630335e-16 4.3235635810847466e-14 3.6903003615846305e-14
-1.687117975458688e-16 -4.316270175966619e-14 -3.6988200563432956e-14
-5.439676390311282e-16 -1.2930565383121423e-13 -1.1117697781715988e-13
1.8915230313361143e-16 4.30506950059355e-14 3.711840714116654e-14
-3.866821604741382e-16 -8.601777684968069e-14 -7.433363716303923e-14
0.0 0.0 0.0
-1.9259369596902852e-16 -4.294379599425998e-14 -3.7242013386186816e-14
-1.9062818701651732e-16 -4.291457638151454e-14 -3.7275689969130465e-14
-5.635304100313103e-16 -1.2868029613592955e-13 -1.1190009932932957e-13
3.715178230165788e-16 8.573536931790047e-14 7.46592626106865e-14
-1.842152710670994e-16 -4.284412162760083e-14 -3.735668045314676e-14
0.0 0.0 0.0
-1.7855513798186146e-16 -4.2808503271265695e-14 -3.7397519082447156e-14
-3.583553513611022e-16 -8.5581298748056e-14 -7.483588682697088e-14
0.0 0.0 0.0
-1.7360868667317644e-16 -4.27576671425265e-14 -3.745565415712408e-14
0.0 0.0 0.0
1.705388637349892e-16 4.272698530509583e-14 3.7490664318191874e-14
0.0 0.0 0.0
-1.686110306001977e-16 -4.2700647013695977e-14 -3.7520668740273814e-14
0.0 0.0 0.0
0.0 0.0 0.0
0.0 0.0 0.0
-3.42935234930899e-16 -8.530514757615047e-14 -7.515059057370667e-14
-1.718087443854877e-16 -4.264513449721276e-14 -3.7583736552600136e-14
-1.695940820690977e-16 -4.263939437509567e-14 -3.7590258750873894e-14
-1.7010200789720414e-16 -4.2634886534568937e-14 -3.7595369173298535e-14
0.0 0.0 0.0
-1.7242290182681223e-16 -4.2629960487840834e-14 -3.760094422927859e-14
0.0 0.0 0.0
1.704308818341454e-16 4.264003718383189e-14 3.758952580255856e-14
1.6955991186037898e-16 4.2643409732153065e-14 3.758570371347685e-14
1.702555422948111e-16 4.264758006617833e-14 3.758096852576436e-14
3.373325594388549e-16 8.530525855741642e-14 7.515048995407637e-14
-8.344282019450372e-17 -2.1329076789320333e-14 -1.8784490612134008e-14
8.246195458154121e-17 2.1331978504499933e-14 1.8781199643683985e-14
1.5824535170180614e-16 4.267025596574107e-14 3.755527235971093e-14
0.0 0.0 0.0
-3.7151695369795e-17 -1.0670510529044233e-14 -9.385479025476873e-15
-1.7340360676704038e-17 -5.335981602718762e-15 -4.691918326386689e-15
-6.51861474761894e-18 -2.6684586097864643e-15 -2.345433998017095e-15
1.1199581704477559e-17 2.7431900579391943e-15 2.2575556159105793e-15
0.0 0.0 0.0
0.0 0.0 0.0
3.6483824640073995e-17 -1.1019524275318367e-14 -8.973134648091928e-15
-0.0 0.0 0.0
1.1116932797022432e-16 -4.3719855067007596e-14 -3.6328173393189394e-14
5.47878419362015e-18 -4.355301732145577e-14 -3.6528193494411435e-14
0.0 0.0 0.0
-2.3383064804036196e-16 -8.665103120155212e-14 -7.359511659123e-14
1.4962602000630335e-16 4.3235635810847466e-14 3.6903003615846305e-14
-1.687117975458688e-16 -4.316270175966619e-14 -3.6988200563432956e-14
-5.439676390311282e-16 -1.2930565383121423e-13 -1.1117697781715988e-13
1.8915230313361143e-16 4.30506950059355e-14 3.711840714116654e-14
-3.866821604741382e-16 -8.601777684968069e-14 -7.433363716303923e-14
0.0 0.0 0.0
-1.9259369596902852e-16 -4.294379599425998e-14 -3.7242013386186816e-14
-1.9062818701651732e-16 -4.291457638151454e-14 -3.7275689969130465e-14
-5.635304100313103e-16 -1.2868029613592955e-13 -1.1190009932932957e-13
3.715178230165788e-16 8.573536931790047e-14 7.46592626106865e-14
-1.842152710670994e-16 -4.284412162760083e-14 -3.735668045314676e-14
0.0 0.0 0.0
-1.7855513798186146e-16 -4.2808503271265695e-14 -3.7397519082447156e-14
-3.583553513611022e-16 -8.5581298748056e-14 -7.483588682697088e-14
0.0 0.0 0.0
-1.7360868667317644e-16 -4.27576671425265e-14 -3.745565415712408e-14
0.0 0.0 0.0
1.705388637349892e-16 4.272698530509583e-14 3.7490664318191874e-14
0.0 0.0 0.0
-1.686110306001977e-16 -4.2700647013695977e-14 -3.7520668740273814e-14
0.0 0.0 0.0
0.0 0.0 0.0
0.0 0.0 0.0
-3.42935234930899e-16 -8.530514757615047e-14 -7.515059057370667e-14
-1.718087443854877e-16 -4.264513449721276e-14 -3.7583736552600136e-14
-1.695940820690977e-16 -4.263939437509567e-14 -3.7590258750873894e-14
-1.7010200789720414e-16 -4.2634886534568937e-14 -3.7595369173298535e-14
0.0 0.0 0.0
-1.7242290182681223e-16 -4.2629960487840834e-14 -3.760094422927859e-14
0.0 0.0 0.0
1.704308818341454e-16 4.264003718383189e-14 3.758952580255856e-14
1.6955991186037898e-16 4.2643409732153065e-14 3.758570371347685e-14
1.702555422948111e-16 4.264758006617833e-14 3.758096852576436e-14
3.373325594388549e-16 8.530525855741642e-14 7.515048995407637e-14
-8.344282019450372e-17 -2.1329076789320333e-14 -1.8784490612134008e-14
8.246195458154121e-17 2.1331978504499933e-14 1.8781199643683985e-14
1.5824535170180614e-16 4.267025596574107e-14 3.755527235971093e-14
0.0 0.0 0.0
-3.7151695369795e-17 -1.0670510529044233e-14 -9.385479025476873e-15
-1.7340360676704038e-17 -5.335981602718762e-15 -4.691918326386689e-15
-6.51861474761894e-18 -2.6684586097864643e-15 -2.345433998017095e-15

SCALARS Gamma float
LOOKUP_TABLE default
0.0
0.0
0.0
40.948683243444755
71.66034439431384
82.08182896860309
88.31995199905899
88.67853973042882
86.35739031009885
82.5703419162499
81.45924008240539
81.93178335309047
84.92811140942588
87.27272186766606
87.6219441771995
88.75037259520589
90.1038482290753
92.5557333205764
93.78125898064717
94.45222000045948
95.6530265563408
98.6196625396002
95.81053823456624
92.64311322385474
91.32645089792186
90.48250556710742
90.74188707754021
90.61458928212649
90.33180375857938
89.37327374576354
90.37349859899737
89.85589351817563
87.93174153990968
86.19110534876627
85.15203786596649
83.28102613111234
80.43361786158007
77.4499554876073
73.71647625369259
69.24291191245541
64.25966516793895
58.69342757526191
50.80387627494659
43.3142130634733
36.63029576602574
29.629876575593453
23.24083506389415
17.053462738357283
11.309231273078625
5.590564054639963
0.0
0.0
0.0
40.948683243444755
71.66034439431384
82.08182896860309
88.31995199905899
88.67853973042882
86.35739031009885
82.5703419162499
81.45924008240539
81.93178335309047
84.92811140942588
87.27272186766606
87.6219441771995
88.75037259520589
90.1038482290753
92.5557333205764
93.78125898064717
94.45222000045948
95.6530265563408
98.6196625396002
95.81053823456624
92.64311322385474
91.32645089792186
90.48250556710742
90.74188707754021
90.61458928212649
90.33180375857938
89.37327374576354
90.37349859899737
89.85589351817563
87.93174153990968
86.19110534876627
85.15203786596649
83.28102613111234
80.43361786158007
77.4499554876073
73.71647625369259
69.24291191245541
64.25966516793895
58.69342757526191
50.80387627494659
43.3142130634733
36.63029576602574
29.629876575593453
23.24083506389415
17.053462738357283
11.309231273078625
5.590564054639963

VECTORS Ftot float
131.41715659029413 -27.907015643226604 33.25828615139803
152.15520221501063 -60.508214456938184 72.11088196051679
149.1782434704438 -88.23124097890116 105.14989841565064
898.6610470842837 100.64682788730707 -119.94621871790898
1527.844295142025 345.0341972081748 -411.1957440907003
1885.1288379710477 492.37953862873474 -586.7950840806726
2233.422916523603 599.4878407086834 -714.441787881117
2495.3811945176285 614.0067940063034 -731.7448026342631
2682.6443750271746 593.8993735290209 -707.7817120426594
2799.8525801993214 563.3430394255004 -671.3660910982799
2989.8941265126355 549.4171590724908 -654.7698731575437
3229.587617864344 550.7339578421235 -656.339172821977
3572.9878431944267 570.1837912102889 -679.5185816138469
3898.6167852241847 586.6766103292346 -699.1739580508569
4140.199962828059 580.3932171185189 -691.6857016183044
4413.573584898053 590.4982046353701 -703.7283567946314
4702.13403625199 594.063504454605 -707.97731566288
5049.872184642167 608.451266989837 -725.1239833536351
5335.281799434999 611.7612112734724 -729.0686213449443
5587.156662707647 614.1646712417545 -731.9329533968008
5870.757761964838 618.4597879152597 -737.0516741230618
6264.429653427729 635.4926218755879 -757.3506151873436
6283.186497151007 624.6434064493992 -744.4210237263547
6264.728955812363 594.440039675072 -708.4260528646097
6354.143924891767 586.6977980533292 -699.1992085971655
6465.144779104387 588.571675242221 -701.4324084691075
6652.038797720778 580.9704556592789 -692.3736277230388
6802.995032351396 580.5055811078898 -691.8196118063154
6935.647424477747 580.4341506599233 -691.7344843133307
7008.043193983688 578.6952603822562 -689.6621555777937
7228.629185047299 588.516313560155 -701.3664309856134
7321.297103967204 596.1554497312081 -710.4703989617823
7291.511145227698 587.5495404759357 -700.2142756892717
7265.801696111051 581.8576795242567 -693.4309799515615
7291.601347327594 572.7890929656845 -682.6234593406315
7235.1782554220235 567.2742459193078 -676.0511205605045
7081.772617909841 560.6224678423667 -668.1238401401706
6905.901792564855 545.9335615247184 -650.6182832648335
6651.159461383404 525.2734108171142 -625.9964744355084
6316.442007024248 498.98450873399446 -594.6665809325932
5921.968620061522 467.14781290825874 -556.7250843059436
5459.396715521359 434.4084505027864 -517.7078315399784
4766.95615406061 377.8660027437445 -450.32316628906983
4096.865139905883 323.2944906660809 -385.28737071721616
3490.0694197076414 273.9410113544871 -326.47018444060035
2843.064898539082 215.63805648929468 -256.98742852114947
2243.6974526332874 167.03509896157146 -199.06467927678162
1655.6275809846923 119.51276028729815 -142.42976143323781
1103.864378959771 74.87965974608582 -89.23810351462959
549.607447645326 28.272230595908827 -33.6935323833262
131.41715659029413 -27.907015643226604 33.25828615139803
152.15520221501063 -60.508214456938184 72.11088196051679
149.1782434704438 -88.23124097890116 105.14989841565064
898.6610470842837 100.64682788730707 -119.94621871790898
1527.844295142025 345.0341972081748 -411.1957440907003
1885.1288379710477 492.37953862873474 -586.7950840806726
2233.422916523603 599.4878407086834 -714.441787881117
2495.3811945176285 614.0067940063034 -731.7448026342631
2682.6443750271746 593.8993735290209 -707.7817120426594
2799.8525801993214 563.3430394255004 -671.3660910982799
2989.8941265126355 549.4171590724908 -654.7698731575437
3229.587617864344 550.7339578421235 -656.339172821977
3572.9878431944267 570.1837912102889 -679.5185816138469
3898.6167852241847 586.6766103292346 -699.1739580508569
4140.199962828059 580.3932171185189 -691.6857016183044
4413.573584898053 590.4982046353701 -703.7283567946314
4702.13403625199 594.063504454605 -707.97731566288
5049.872184642167 608.451266989837 -725.1239833536351
5335.281799434999 611.7612112734724 -729.0686213449443
5587.156662707647 614.1646712417545 -731.9329533968008
5870.757761964838 618.4597879152597 -737.0516741230618
6264.429653427729 635.4926218755879 -757.3506151873436
6283.186497151007 624.6434064493992 -744.4210237263547
6264.728955812363 594.440039675072 -708.4260528646097
6354.143924891767 586.6977980533292 -699.1992085971655
6465.144779104387 588.571675242221 -701.4324084691075
6652.038797720778 580.9704556592789 -692.3736277230388
6802.995032351396 580.5055811078898 -691.8196118063154
6935.647424477747 580.4341506599233 -691.7344843133307
7008.043193983688 578.6952603822562 -689.6621555777937
7228.629185047299 588.516313560155 -701.3664309856134
7321.297103967204 596.1554497312081 -710.4703989617823
7291.511145227698 587.5495404759357 -700.2142756892717
7265.801696111051 581.8576795242567 -693.4309799515615
7291.601347327594 572.7890929656845 -682.6234593406315
7235.1782554220235 567.2742459193078 -676.0511205605045
7081.772617909841 560.6224678423667 -668.1238401401706
6905.901792564855 545.9335615247184 -650.6182832648335
6651.159461383404 525.2734108171142 -625.9964744355084
6316.442007024248 498.98450873399446 -594.6665809325932
5921.968620061522 467.14781290825874 -556.7250843059436
5459.396715521359 434.4084505027864 -517.7078315399784
4766.95615406061 377.8660027437445 -450.32316628906983
4096.865139905883 323.2944906660809 -385.28737071721616
3490.0694197076414 273.9410113544871 -326.47018444060035
2843.064898539082 215.63805648929468 -256.98742852114947
2243.6974526332874 167.03509896157146 -199.06467927678162
1655.6275809846923 119.51276028729815 -142.42976143323781
1103.864378959771 74.87965974608582 -89.23810351462959
549.607447645326 28.272230595908827 -33.6935323833262

VECTORS D float
105.5501295840944 21.90423027102939 -27.139789414127414
67.91213688696413 26.33446215021515 -32.74983664059129
12.387324264437279 7.177795951497663 -8.856086578862737
432.43384478448263 338.0873934209079 -413.43248974962336
688.1481078888827 684.1320669837922 -828.5891247046
728.737400211206 881.564167979946 -1058.7057046064574
728.6349243624641 1036.3093259029552 -1235.4951523905966
666.2430191157497 1083.9269735186379 -1284.1065742986457
591.2934705934373 1077.6438845440687 -1270.6986649484413
520.5329457463364 1045.6566336266083 -1227.2040275926026
475.52309194069727 1040.9356723182927 -1216.8697488729772
447.066230019225 1057.1253217671028 -1231.689088540114
435.39212932225934 1104.816494066769 -1283.6077034884745
422.44721740529576 1143.9280657134009 -1325.9340677109005
398.6733601434785 1146.703058040484 -1326.5900322125142
384.0637295736407 1168.7359922411358 -1349.6565761334925
369.60281698604336 1185.4603440928963 -1366.6812134379852
360.8154392218098 1217.8832455929476 -1402.3303653419377
348.8316009946526 1232.3584299726865 -1416.9213381380926
336.94642080009345 1241.8396561908983 -1425.9189869633237
327.4485148727612 1256.151064220161 -1440.8705100320885
325.68904742273406 1295.4315283366593 -1484.4203474812355
308.13304686999413 1267.7527750798463 -1451.2602805145173
287.08250336185495 1218.7155291299387 -1393.7948377497676
275.54780329290725 1204.2478021585198 -1375.9915647943847
267.81883276218235 1202.469399790714 -1372.7579004182942
260.4813801894581 1199.0781937091867 -1367.738328818921
254.80755393256132 1200.1821847987592 -1367.8963066952708
250.4162790181035 1201.9157054162592 -1368.973500436244
245.64898550493203 1198.2409867973697 -1363.5158506801718
246.31970280577582 1219.4477793831916 -1386.7677387104698
245.23132474245384 1228.7022053551107 -1396.5101095449666
239.80361282651864 1212.6088430515624 -1377.5542231491265
236.02008563567966 1201.3136115723362 -1364.1733248540045
233.27830470989605 1192.2693626270172 -1353.4678362161706
230.61340071673422 1181.034257413038 -1340.3908637913864
226.7236271751055 1161.4332511742584 -1317.9304665017848
221.31599758790216 1132.492448077884 -1284.9748656907634
214.11963224948155 1091.7635271549166 -1239.1684429464228
203.80634989496207 1037.5645586430935 -1177.8953129036256
191.82429298195365 973.4407879363029 -1105.2968542736758
178.41101096146187 902.431326406612 -1024.9040730328732
156.18481042019397 787.5289699555152 -894.6455128428428
134.48804561960452 676.1475732745786 -768.3373412197836
114.69345374549555 575.1080251238031 -653.7202153755309
92.21275487304639 461.30991867385944 -524.5283368070528
72.33609065240198 361.15258424022727 -410.76930321865615
52.7402872513421 262.87644813935543 -299.0774675618432
34.25500388294989 170.50504146592533 -194.03700048129474
15.252525345268495 75.8363447804557 -86.32328714940039
105.5501295840944 21.90423027102939 -27.139789414127414
67.91213688696413 26.33446215021515 -32.74983664059129
12.387324264437279 7.177795951497663 -8.856086578862737
432.43384478448263 338.0873934209079 -413.43248974962336
688.1481078888827 684.1320669837922 -828.5891247046
728.737400211206 881.564167979946 -1058.7057046064574
728.6349243624641 1036.3093259029552 -1235.4951523905966
666.2430191157497 1083.9269735186379 -1284.1065742986457
591.2934705934373 1077.6438845440687 -1270.6986649484413
520.5329457463364 1045.6566336266083 -1227.2040275926026
475.52309194069727 1040.9356723182927 -1216.8697488729772
447.066230019225 1057.1253217671028 -1231.689088540114
435.39212932225934 1104.816494066769 -1283.6077034884745
422.44721740529576 1143.9280657134009 -1325.9340677109005
398.6733601434785 1146.703058040484 -1326.5900322125142
384.0637295736407 1168.7359922411358 -1349.6565761334925
369.60281698604336 1185.4603440928963 -1366.6812134379852
360.8154392218098 1217.8832455929476 -1402.3303653419377
348.8316009946526 1232.3584299726865 -1416.9213381380926
336.94642080009345 1241.8396561908983 -1425.9189869633237
327.4485148727612 1256.151064220161 -1440.8705100320885
325.68904742273406 1295.4315283366593 -1484.4203474812355
308.13304686999413 1267.7527750798463 -1451.2602805145173
287.08250336185495 1218.7155291299387 -1393.7948377497676
275.54780329290725 1204.2478021585198 -1375.9915647943847
267.81883276218235 1202.469399790714 -1372.7579004182942
260.4813801894581 1199.0781937091867 -1367.738328818921
254.80755393256132 1200.1821847987592 -1367.8963066952708
250.4162790181035 1201.9157054162592 -1368.973500436244
245.64898550493203 1198.2409867973697 -1363.5158506801718
246.31970280577582 1219.4477793831916 -1386.7677387104698
245.23132474245384 1228.7022053551107 -1396.5101095449666
239.80361282651864 1212.6088430515624 -1377.5542231491265
236.02008563567966 1201.3136115723362 -1364.1733248540045
233.27830470989605 1192.2693626270172 -1353.4678362161706
230.61340071673422 1181.034257413038 -1340.3908637913864
226.7236271751055 1161.4332511742584 -1317.9304665017848
221.31599758790216 1132.492448077884 -1284.9748656907634
214.11963224948155 1091.7635271549166 -1239.1684429464228
203.80634989496207 1037.5645586430935 -1177.8953129036256
191.82429298195365 973.4407879363029 -1105.2968542736758
178.41101096146187 902.431326406612 -1024.9040730328732
156.18481042019397 787.5289699555152 -894.6455128428428
134.48804561960452 676.1475732745786 -768.3373412197836
114.69345374549555 575.1080251238031 -653.7202153755309
92.21275487304639 461.30991867385944 -524.5283368070528
72.33609065240198 361.15258424022727 -410.76930321865615
52.7402872513421 262.87644813935543 -299.0774675618432
34.25500388294989 170.50504146592533 -194.03700048129474
15.252525345268495 75.8363447804557 -86.32328714940039

VECTORS L float
25.86702700619973 -49.811245914256006 60.39807556552545
84.24306532804651 -86.84267660715335 104.86071860110809
136.79091920600655 -95.40903693039884 114.0059849945134
466.22720229980115 -237.44056553360085 293.4862710317143
839.6961872531424 -339.0978697756174 417.3933806138996
1156.391437759842 -389.18462935121136 471.9106205257849
1504.787992161139 -436.82148519427176 521.0533645094795
1829.1381754018792 -469.9201795123349 552.361771664383
2091.350904433738 -483.74451101504775 562.9169529057818
2279.319634452985 -482.3135942011078 555.837936494323
2514.3710345719383 -491.5185132458021 562.0998757154335
2782.5213878451195 -506.3913639249795 575.3499157181367
3137.5957138721683 -534.6327028564804 604.0891218746278
3476.1695678188885 -557.2514553841665 626.7601096600439
3741.526602684581 -566.3098409219654 634.9043305942101
4029.509855324413 -578.237787605766 645.9282193388615
4332.531219265948 -591.3968396382911 658.703897775105
4689.0567454203565 -609.4319786031106 677.2063819883025
4986.450198440348 -620.5972186992142 687.8527167931484
5250.2102419075545 -627.6749849491438 693.9860335665228
5543.309247092077 -637.6912763049014 703.8188359090267
5938.740606004995 -659.9389064610713 727.0697322938919
5975.053450281012 -643.1093686304472 706.8392567881626
5977.646452450508 -624.2754894548668 685.3687848851581
6078.59612159886 -617.5500041051909 676.7923561972194
6197.325946342205 -613.8977245484936 671.3254919491869
6391.557417531321 -618.1077380499082 675.3647010958823
6548.187478418835 -619.6766036908693 676.0766948889553
6685.231145459643 -621.481554756336 677.2390161229132
6762.394208478758 -619.5457264151136 673.8536951023779
6982.309482241522 -630.9314658230365 685.4013077248565
7076.06577922475 -632.5467556239025 686.0397105831845
7051.707532401181 -625.0593025756268 677.3399474598549
7029.781610475372 -619.4559320480797 670.742344902443
7058.323042617699 -619.4802696613331 670.8443768755393
7004.564854705291 -613.7600114937303 664.3397432308818
6855.0489907347355 -600.8107833318918 649.8066263616145
6684.5857949769525 -586.5588865531661 634.3565824259305
6437.039829133923 -566.4901163378024 613.1719685109147
6112.635657129287 -538.5800499090988 583.2287319710321
5730.144327079569 -506.292975028044 548.571769967732
5280.985704559897 -468.0228759038258 507.1962414928949
4610.771343640417 -409.6629672117708 444.3223465537732
3962.377094286279 -352.85308260849746 383.0499705025672
3375.375965962146 -301.1670137693162 327.2500309349307