# vtk DataFile Version 4.0
[MyVLM domain - lattices] 
ASCII
DATASET UNSTRUCTURED_GRID
POINTS 152 float
0.0 -1.1697031535729991 -2.0044394955073193
0.0 -3.3626771205618846 -2.4461710042949107
0.0 -5.504259948314157 -2.9428085057286273
0.0 -7.604103787640368 -3.4396119323963896
0.0 -9.662295057718188 -3.936091176786995
0.0 -11.68513170425822 -4.396528813890978
0.0 -13.677990223505914 -4.790433218298265
0.0 -15.642232937676077 -5.110078276799557
0.0 -17.569454393104174 -5.403133685948191
0.0 -19.45625409751119 -5.68888459578384
0.0 -21.302663821355548 -5.967150827083312
0.0 -23.108752406708536 -6.237541957059263
0.0 -24.87459106121188 -6.499654147107746
0.0 -26.600755612009397 -6.7502217192168095
0.0 -28.286864274423017 -6.991409881890166
0.0 -29.932080890851267 -7.227960720531433
0.0 -31.536281224200994 -7.460578818708258
0.0 -33.0996684571318 -7.688111870297314
0.0 -34.6223889947399 -7.90972957073798
0.0 -36.10444288078078 -8.125431671880659
0.0 -37.54583015784135 -8.335217932202896
0.0 -38.946550867340015 -8.539088116809381
0.0 -40.30660504952659 -8.737041997431941
0.0 -41.62599274348238 -8.929079352429543
0.0 -42.90471398712013 -9.115199966788296
0.0 -44.142768817184056 -9.29540363212145
0.0 -45.34015726924981 -9.469690146669397
0.0 -46.49687937772452 -9.638059315299662
0.0 -47.612935124264716 -9.80051124204323
0.0 -48.688323832433326 -9.957049763165312
0.0 -49.723045393514944 -10.107675495221693
0.0 -50.71709994482617 -10.25238765945117
0.0 -51.670487618286906 -10.391185507698872
0.0 -52.5832085404203 -10.524068322416266
0.0 -53.455262832352815 -10.651035416661152
0.0 -54.286650609814146 -10.772086134097664
0.0 -55.07744413359609 -10.886810663411232
0.0 -55.827872587288454 -10.993909239875427
0.0 -56.53828670135825 -11.091392772169241
0.0 -57.208869450331086 -11.178223560192064
0.0 -57.8395161438866 -11.254995332254513
0.0 -58.43028122329062 -11.321399336595443
0.0 -58.98322803545892 -11.365733751363805
0.0 -59.4983103420285 -11.388260807347024
0.0 -59.973970760173955 -11.397812861449104
0.0 -60.40914723439843 -11.400413129700738
0.0 -60.80356893696849 -11.397597552502791
0.0 -61.15748964760849 -11.387926873518428
0.0 -61.47068248466678 -11.372687802533685
0.0 -61.7427004227301 -11.354415546647934
0.0 -61.97315648457496 -11.335304762753163
-0.8152906132198464 -1.7682299447993277 1.3899746141286378
-0.840508508580286 -3.979657165118793 1.0528967054675613
-0.8937965186637556 -6.160544996300389 0.7791689554025769
-0.9506477078574832 -8.302414559071911 0.5207052500664853
-1.02068187720969 -10.405090869657267 0.2765132071512253
-1.0489549773990687 -12.463202196539383 0.016128223364131333
-0.9930987765435385 -14.472965829170573 -0.2819025188527564
-0.9074282632533693 -16.431017264188473 -0.6366600662504811
-0.8389431825969345 -18.34444085031239 -1.0079670807333456
-0.7804380392478915 -20.21661038052995 -1.3766898314675156
-0.7250391551382538 -22.048219080538676 -1.7388968401577234
-0.6716005320172311 -23.839214516722194 -2.094885472619255
-0.6190912009116674 -25.589470447574993 -2.4453716800072067
-0.5668551203522249 -27.2983739579677 -2.793831476751743
-0.5160737545271722 -28.966286683832294 -3.138213923566527
-0.46824322159258325 -30.594077032160758 -3.4735940396659113
-0.42447592168765613 -32.181869176825494 -3.79926760002474
-0.38457409080794247 -33.72946110538991 -4.116380274102243
-0.3477110964547294 -35.236722278859716 -4.425672385323252
-0.31305686768839563 -36.70367426743734 -4.727021602991035
-0.2804728235147938 -38.1303242778069 -5.0203870559689
-0.25028172479702737 -39.5166727729765 -5.305766118407432
-0.22269967179246206 -40.86272308754768 -5.583139878841537
-0.19756508903559172 -42.168483574462265 -5.85246096538406
-0.17527331282134875 -43.433956149311605 -6.113718514176653
-0.15618952887337012 -44.65914420340019 -6.366893292175855
-0.1399679949396797 -45.84405762887905 -6.6119291982052735
-0.12575834684106657 -46.988708410144795 -6.848758265374398
-0.11252036551220733 -48.09310713091327 -7.077320470447983
-0.1000861977220127 -49.15725549910997 -7.2976061272990576
-0.08845640514293837 -50.18115428509597 -7.509610866993019
-0.07764813403821604 -51.16480438735055 -7.713329594000593
-0.06766754153320646 -52.108206804709866 -7.908756643640494
-0.05846867713071907 -53.01136276381469 -8.095885059287172
-0.05000632361005495 -53.874273383532916 -8.274708495525449
-0.04224556628624775 -54.696939649922186 -8.445221360144595
-0.03513713503931205 -55.47930939251834 -8.607719526549518
-0.02861025434192226 -56.22121418229987 -8.763158203187817
-0.022599563624171346 -56.922132590741505 -8.914494558175038
-0.017476911002667815 -57.58179466076161 -9.063259594200352
-0.0133557109559299 -58.200688623977804 -9.206684412167103
-0.010110762084749267 -58.77880088412852 -9.344846120306087
-0.007505342360414162 -59.31361110880588 -9.492038233981795
-0.005475063785658977 -59.80509708637546 -9.648386721632429
-0.0039854477514337135 -60.25515677114548 -9.80312774949546
-0.0029419419370200197 -60.665038145799976 -9.949183656063793
-0.0022286575278371427 -61.034940513657354 -10.085424136051026
-0.0017402354220080998 -61.364351353329184 -10.214755842689554
-0.0014049497010025483 -61.653442735377 -10.33620291533206
-0.0011720086804935075 -61.902709458726264 -10.446959209828385
-0.0010052173229957839 -62.112579850196475 -10.544595564073937
-0.6209246706750498 -2.7220052004861555 0.35975043237329596
-0.6503643852165156 -4.910942944141698 0.01340218407335969
-0.6916665849454646 -7.062155300258928 -0.31034972771472846
-0.73924859440019 -9.17361439144326 -0.6230059671912811
-0.7761138204782846 -11.244038245070795 -0.9318369623914874
-0.7657701577284777 -13.271453250611751 -1.2480356148318896
-0.7126976399238405 -15.254021555157387 -1.582024906300942
-0.6548892921938638 -17.192257709285354 -1.930886675462404
-0.6072679581918097 -19.088607772892797 -2.2807486272918265
-0.5645539478948045 -20.94417578775908 -2.6253494297178586
-0.5237398826833068 -22.75921462748084 -2.963254965309189
-0.4840093998483369 -24.5336747951015 -3.2947459452557983
-0.4447298704739596 -26.267359986231167 -3.620935667075175
-0.40609832807977386 -27.96020022647905 -3.9422209752577237
-0.3691188660449083 -29.612504539156674 -4.2568493115148645
-0.3347696787300898 -31.224525092751378 -4.5633905572889555
-0.3033937546858495 -32.796242565997375 -4.8619542889233145
-0.27460694522350193 -34.32757595057757 -5.152999927413972
-0.24778798655367185 -35.818502689301475 -5.436655400945187
-0.22257363420119602 -37.269033584294355 -5.71285944762042
-0.19903295561693296 -38.679171522191446 -5.981595696517659
-0.17736802372105853 -40.048917937304886 -6.242856013248528
-0.15759928531052017 -41.37827722237984 -6.496615485317284
-0.1398144006963527 -42.66725323774052 -6.742852219737497
-0.12429856563551955 -43.91584798280495 -6.981554877245909
-0.11105907142989367 -45.124066447908945 -7.21269515624178
-0.09964737816777985 -46.29191684550573 -7.436226481588508
-0.08935451713247772 -47.41940764064542 -7.652100845601254
-0.07972746121283251 -48.50654335584596 -7.8602925998062085
-0.07070347607435665 -49.55332482232076 -8.060797030157904
-0.06228920219293291 -50.55975266946008 -8.25361056720671
-0.05449337833928344 -51.525827642411784 -8.438728985009162
-0.04730108199897208 -52.45155060803511 -8.616147367362267
-0.04067812527779026 -53.33692247685199 -8.78586055043941
-0.03459445871111351 -54.18194406781653 -8.947863889721118
-0.029018512997084925 -54.98660523384147 -9.102214932198905
-0.023905271017962866 -55.750860930667386 -9.249169136562333
-0.0192036817372851 -56.47452495097134 -9.389782537016655
-0.015028677985064689 -57.15736723827484 -9.525359848685936
-0.011562233234474143 -57.79947943105449 -9.655381363943619
-0.008799927390254687 -58.40103323643702 -9.778873283283689
-0.006606039166936287 -58.96134315469409 -9.899723268852862
-0.004867652304777427 -59.47970787037893 -10.021908678194187
-0.003547691826409759 -59.95663033434566 -10.142577135272475
-0.00259777113317015 -60.3929628431761 -10.25689502597845
-0.001938974799321436 -60.78908151871737 -10.362729257318499
-0.0014883348561919659 -61.14486677319208 -10.46075804528037
-0.001179444421128993 -61.460194299799234 -10.551686368764619
-0.000966359393061021 -61.73522993621334 -10.634573715582869
-0.0008164597513084843 -61.970215604259145 -10.708048078888508

CELLS 100 350
4 0 51 52 1
4 1 52 53 2
4 2 53 54 3
4 3 54 55 4
4 4 55 56 5
4 5 56 57 6
4 6 57 58 7
4 7 58 59 8
4 8 59 60 9
4 9 60 61 10
4 10 61 62 11
4 11 62 63 12
4 12 63 64 13
4 13 64 65 14
4 14 65 66 15
4 15 66 67 16
4 16 67 68 17
4 17 68 69 18
4 18 69 70 19
4 19 70 71 20
4 20 71 72 21
4 21 72 73 22
4 22 73 74 23
4 23 74 75 24
4 24 75 76 25
4 25 76 77 26
4 26 77 78 27
4 27 78 79 28
4 28 79 80 29
4 29 80 81 30
4 30 81 82 31
4 31 82 83 32
4 32 83 84 33
4 33 84 85 34
4 34 85 86 35
4 35 86 87 36
4 36 87 88 37
4 37 88 89 38
4 38 89 90 39
4 39 90 91 40
4 40 91 92 41
4 41 92 93 42
4 42 93 94 43
4 43 94 95 44
4 44 95 96 45
4 45 96 97 46
4 46 97 98 47
4 47 98 99 48
4 48 99 100 49
4 49 100 101 50
1 102
1 103
1 104
1 105
1 106
1 107
1 108
1 109
1 110
1 111
1 112
1 113
1 114
1 115
1 116
1 117
1 118
1 119
1 120
1 121
1 122
1 123
1 124
1 125
1 126
1 127
1 128
1 129
1 130
1 131
1 132
1 133
1 134
1 135
1 136
1 137
1 138
1 139
1 140
1 141
1 142
1 143
1 144
1 145
1 146
1 147
1 148
1 149
1 150
1 151

CELL_TYPES 100
9
9
9
9
9
9
9
9
9
9
9
9
9
9
9
9
9
9
9
9
9
9
9
9
9
9
9
9
9
9
9
9
9
9
9
9
9
9
9
9
9
9
9
9
9
9
9
9
9
9
1
1
1
1
1
1
1
1
1
1
1
1
1
1
1
1
1
1
1
1
1
1
1
1
1
1
1
1
1
1
1
1
1
1
1
1
1
1
1
1
1
1
1
1
1
1
1
1
1
1

CELL_DATA 100

VECTORS S float
2.9090927697157e-19 6.461996299795827e-17 8.5370637898985e-19
9.2890433157178e-19 1.5559436028520204e-16 1.4763266455285099e-18
-1.89962330733781e-18 -2.5518138183139156e-16 -2.08317706950009e-18
3.9369573296399996e-21 -2.925407286394071e-17 -4.4059377752944e-19
-2.1095293040189798e-18 7.769147169173332e-16 1.237417209453152e-17
2.3928850442995e-18 -7.610703378552358e-16 -1.158368077360369e-17
5.359554648639499e-19 -1.9835579004917192e-16 -2.81565418510487e-18
6.3851759135346e-19 -2.4263224745355005e-16 -3.4032353945542198e-18
6.238358418983999e-20 -2.340275138326754e-17 -3.1356055499562996e-19
2.535417575903e-18 -8.625640308806102e-16 -1.1208312583349279e-17
-2.97699007285886e-18 9.694727031665633e-16 1.223583004755646e-17
-1.70404851580327e-18 5.51132741857279e-16 6.76588286883774e-18
-3.2432936028633e-19 1.0526193119042686e-16 1.2601969216862e-18
1.01033735593553e-18 -3.50064886687684e-16 -4.07996465427461e-18
-1.5582553654292098e-18 5.894949647936188e-16 6.69761090316746e-18
-2.32080350682812e-18 9.29978455126678e-16 1.0344364500524569e-17
-1.4692442122281799e-18 6.108741676218054e-16 6.95353784960768e-18
-2.51919054030092e-18 1.1140041366465341e-15 1.2396054424970319e-17
4.1653033517163996e-19 -1.9946551451791086e-16 -2.1716717058918298e-18
-1.6535588079218e-19 8.31740002495287e-17 8.885029856008399e-19
-9.246613053486999e-20 4.8392906217133715e-17 5.080304549461599e-19
-6.420031172928099e-19 3.6472044447433574e-16 3.76117919470117e-18
5.4314828989284e-19 -3.196211731000094e-16 -3.24632349245185e-18
1.6234401901481998e-19 -9.894552895430682e-17 -9.9056638886147e-19
9.9776199296896e-19 -6.265550646567559e-16 -6.18770829301354e-18
7.305621536650099e-19 -4.922799651046632e-16 -4.79296888883214e-18
-6.5295220165183e-19 4.59191997055656e-16 4.4132483635150394e-18
-9.1261212041772e-19 6.640955267620664e-16 6.3039654380615295e-18
-2.0690051931937e-19 1.5221877694811196e-16 1.4628418113718599e-18
-1.5153881329513e-19 1.1531574283782872e-16 1.09219269077358e-18
-1.16034410458359e-18 9.107016946683722e-16 8.50192252786066e-18
-6.431264143316e-20 5.2013359241526515e-17 4.7863877739319e-19
6.603321496103899e-19 -5.436187518430992e-16 -4.93245230313028e-18
1.9063196930017999e-19 -1.626316621699662e-16 -1.45446180422448e-18
1.1086771058173899e-18 -9.680568192661832e-16 -8.53620977080392e-18
1.7955390575404999e-19 -1.598424008917604e-16 -1.38994233304506e-18
2.3005340707085e-19 -2.1045625762939378e-16 -1.8046728900328697e-18
1.7353431354469e-19 -1.6147869263313187e-16 -1.3644705673023999e-18
-4.4238421058032e-19 4.2061653691349765e-16 3.50837690378293e-18
6.385466469396e-20 -6.200904650596501e-17 -5.1068621005087e-19
-6.005936815895799e-19 5.8949902229241e-16 4.79599954218426e-18
-6.1393898015613e-19 6.183498725938028e-16 4.97011024756242e-18
7.652029631381999e-20 -7.950188154072722e-17 -6.3152068165224e-19
4.9665739176207e-19 -5.258799287907126e-16 -4.13132185932281e-18
7.503782879032e-20 -8.080082557695837e-17 -6.281894766961699e-19
6.3281228333158e-19 -6.842558369422713e-16 -5.26934799309126e-18
8.027039925603e-20 -8.809885413771253e-17 -6.7238690954275e-19
-6.510766908874e-20 7.250332102044996e-17 5.4887142012524e-19
2.6283538436912e-19 -2.9533172689152126e-16 -2.2197364632108397e-18
3.4039578420795e-19 -3.8680861208038213e-16 -2.88900269073713e-18
2.9090927697157e-19 6.461996299795827e-17 8.5370637898985e-19
9.2890433157178e-19 1.5559436028520204e-16 1.4763266455285099e-18
-1.89962330733781e-18 -2.5518138183139156e-16 -2.08317706950009e-18
3.9369573296399996e-21 -2.925407286394071e-17 -4.4059377752944e-19
-2.1095293040189798e-18 7.769147169173332e-16 1.237417209453152e-17
2.3928850442995e-18 -7.610703378552358e-16 -1.158368077360369e-17
5.359554648639499e-19 -1.9835579004917192e-16 -2.81565418510487e-18
6.3851759135346e-19 -2.4263224745355005e-16 -3.4032353945542198e-18
6.238358418983999e-20 -2.340275138326754e-17 -3.1356055499562996e-19
2.535417575903e-18 -8.625640308806102e-16 -1.1208312583349279e-17
-2.97699007285886e-18 9.694727031665633e-16 1.223583004755646e-17
-1.70404851580327e-18 5.51132741857279e-16 6.76588286883774e-18
-3.2432936028633e-19 1.0526193119042686e-16 1.2601969216862e-18
1.01033735593553e-18 -3.50064886687684e-16 -4.07996465427461e-18
-1.5582553654292098e-18 5.894949647936188e-16 6.69761090316746e-18
-2.32080350682812e-18 9.29978455126678e-16 1.0344364500524569e-17
-1.4692442122281799e-18 6.108741676218054e-16 6.95353784960768e-18
-2.51919054030092e-18 1.1140041366465341e-15 1.2396054424970319e-17
4.1653033517163996e-19 -1.9946551451791086e-16 -2.1716717058918298e-18
-1.6535588079218e-19 8.31740002495287e-17 8.885029856008399e-19
-9.246613053486999e-20 4.8392906217133715e-17 5.080304549461599e-19
-6.420031172928099e-19 3.6472044447433574e-16 3.76117919470117e-18
5.4314828989284e-19 -3.196211731000094e-16 -3.24632349245185e-18
1.6234401901481998e-19 -9.894552895430682e-17 -9.9056638886147e-19
9.9776199296896e-19 -6.265550646567559e-16 -6.18770829301354e-18
7.305621536650099e-19 -4.922799651046632e-16 -4.79296888883214e-18
-6.5295220165183e-19 4.59191997055656e-16 4.4132483635150394e-18
-9.1261212041772e-19 6.640955267620664e-16 6.3039654380615295e-18
-2.0690051931937e-19 1.5221877694811196e-16 1.4628418113718599e-18
-1.5153881329513e-19 1.1531574283782872e-16 1.09219269077358e-18
-1.16034410458359e-18 9.107016946683722e-16 8.50192252786066e-18
-6.431264143316e-20 5.2013359241526515e-17 4.7863877739319e-19
6.603321496103899e-19 -5.436187518430992e-16 -4.93245230313028e-18
1.9063196930017999e-19 -1.626316621699662e-16 -1.45446180422448e-18
1.1086771058173899e-18 -9.680568192661832e-16 -8.53620977080392e-18
1.7955390575404999e-19 -1.598424008917604e-16 -1.38994233304506e-18
2.3005340707085e-19 -2.1045625762939378e-16 -1.8046728900328697e-18
1.7353431354469e-19 -1.6147869263313187e-16 -1.3644705673023999e-18
-4.4238421058032e-19 4.2061653691349765e-16 3.50837690378293e-18
6.385466469396e-20 -6.200904650596501e-17 -5.1068621005087e-19
-6.005936815895799e-19 5.8949902229241e-16 4.79599954218426e-18
-6.1393898015613e-19 6.183498725938028e-16 4.97011024756242e-18
7.652029631381999e-20 -7.950188154072722e-17 -6.3152068165224e-19
4.9665739176207e-19 -5.258799287907126e-16 -4.13132185932281e-18
7.503782879032e-20 -8.080082557695837e-17 -6.281894766961699e-19
6.3281228333158e-19 -6.842558369422713e-16 -5.26934799309126e-18
8.027039925603e-20 -8.809885413771253e-17 -6.7238690954275e-19
-6.510766908874e-20 7.250332102044996e-17 5.4887142012524e-19
2.6283538436912e-19 -2.9533172689152126e-16 -2.2197364632108397e-18
3.4039578420795e-19 -3.8680861208038213e-16 -2.88900269073713e-18

SCALARS Gamma float
LOOKUP_TABLE default
-0.0
-0.0
-0.0
51.544136335006634
55.30777297292562
55.35033752656487
53.06278198000987
48.262441457323085
45.15609493346898
47.85119446192004
54.572847293533506
55.2265950496893
51.40854826625362
46.52504977710056
45.518541777370025
44.74644563767549
40.99648104050421
38.88972926128456
34.23032426678737
34.60356466609068
34.14109715776675
35.70095658744755
37.32522351069368
35.17640448445242
37.26302614602432
38.53611489064779
38.636785894591576
38.747364394563895
38.92137430869043
39.19354185060638
39.52064434083855
39.813998271176295
37.81257388389769
38.119968073447495
38.43000312668514
38.7276676667241
38.97218225940546
41.34671337510704
41.26198687527847
40.835105584448314
40.12749117223635
38.92472322156368
36.84562013755816
34.14950214726902
31.44819685854037
28.80151393120909
25.961235763260312
23.198960172934786
20.39892842179966
17.80166401571995
-0.0
-0.0
-0.0
51.544136335006634
55.30777297292562
55.35033752656487
53.06278198000987
48.262441457323085
45.15609493346898
47.85119446192004
54.572847293533506
55.2265950496893
51.40854826625362
46.52504977710056
45.518541777370025
44.74644563767549
40.99648104050421
38.88972926128456
34.23032426678737
34.60356466609068
34.14109715776675
35.70095658744755
37.32522351069368
35.17640448445242
37.26302614602432
38.53611489064779
38.636785894591576
38.747364394563895
38.92137430869043
39.19354185060638
39.52064434083855
39.813998271176295
37.81257388389769
38.119968073447495
38.43000312668514
38.7276676667241
38.97218225940546
41.34671337510704
41.26198687527847
40.835105584448314
40.12749117223635
38.92472322156368
36.84562013755816
34.14950214726902
31.44819685854037
28.80151393120909
25.961235763260312
23.198960172934786
20.39892842179966
17.80166401571995

VECTORS Ftot float
116.73105724265463 8.611529715970272e-14 -39.77731489223993
140.390769783125 1.9123700185039933e-13 -88.33383489978615
143.73439257438764 2.837571687473588e-13 -131.06960814710982
1287.2145578807908 -2.4901077066201016e-14 11.5019980919454
1315.6254305719633 -4.855640350658083e-13 224.28574434737473
1409.9490828297328 -6.305558006888995e-13 291.25855066860015
1489.9432372132687 -6.139937547715877e-13 283.6084148920157
1477.8136981362695 -6.002682963064982e-13 277.26852057110625
1491.0806148949746 -6.422363223845835e-13 296.6538730435926
1686.7634127041654 -8.260536903479913e-13 381.5605222604371
2052.135064105433 -1.080922936926347e-12 499.28657804694893
2211.2302030097194 -1.2056917222975176e-12 556.9182350013157
2183.8545014195847 -1.2167921310323862e-12 562.0455987594711
2096.5368323421767 -1.1239768019440653e-12 519.1734878367598
2169.651703653317 -1.0928324447974703e-12 504.7876708890572
2243.7626618685613 -1.0898238670949654e-12 503.3979858203479
2157.9067356156906 -9.871102859884884e-13 455.9537965283456
2139.476283496586 -9.4130390479495e-13 434.7954784489188
1964.1674877036035 -8.155973798268563e-13 376.7306723971906
2063.2537923419673 -8.313008923494105e-13 383.98424502744524
2109.782706512561 -8.31333928840266e-13 383.9995048354357
2284.8567014449713 -8.443391377749202e-13 390.00671038538286
2465.3201820407257 -8.929862958896656e-13 412.47720506827545
2393.5004716202316 -8.492412170523089e-13 392.27101832456117
2607.228139055278 -9.10166823409363e-13 420.41302223091515
2771.2335464185776 -9.14472245132229e-13 422.40172947878926
2849.2298311812765 -9.126312709905696e-13 421.5513694317763
2925.423766477703 -9.168663531065978e-13 423.5075862768664
3004.68892590463 -9.200439488166608e-13 424.97534205694586
3089.6760011529473 -9.280735528816611e-13 428.68427763387587
3177.3828317658335 -9.388236958042741e-13 433.64985093238465
3260.866849082965 -9.485634217446641e-13 438.1487048929828
3150.7539446943047 -9.13185228500285e-13 421.80724664555413
3229.4305555565547 -9.163559516274129e-13 423.2718279269724
3306.047700303307 -9.295953807005705e-13 429.3872215516361
3379.7850155189963 -9.452180178334917e-13 436.6034372203918
3447.680206137882 -9.51485100148217e-13 439.4982505103712
3703.911526495021 -1.0198273050551368e-12 471.0660380542156
3740.212714230338 -1.0210206317168825e-12 471.61724477310474
3742.430216276376 -1.0130643903879406e-12 467.942196005485
3714.6567505744706 -1.0070827486602412e-12 465.1792299074408
3637.85192200399 -9.728570813093772e-13 449.370132191763
3474.285167196858 -9.113797372226705e-13 420.9732764050326
3245.8143458031723 -8.447659280319828e-13 390.20384807181074
3010.759608248847 -7.785930532678431e-13 359.63809072516295
2774.9237907434394 -7.214627640124495e-13 333.2491728377618
2515.949729825195 -6.502539124732482e-13 300.3572592728972
2259.944648437274 -5.803689553968761e-13 268.0768626936198
1996.0439460636183 -5.116787200665971e-13 236.34831723336973
1748.6207049183997 -4.4604295466941186e-13 206.03065481440123
116.73105724265463 8.611529715970272e-14 -39.77731489223993
140.390769783125 1.9123700185039933e-13 -88.33383489978615
143.73439257438764 2.837571687473588e-13 -131.06960814710982
1287.2145578807908 -2.4901077066201016e-14 11.5019980919454
1315.6254305719633 -4.855640350658083e-13 224.28574434737473
1409.9490828297328 -6.305558006888995e-13 291.25855066860015
1489.9432372132687 -6.139937547715877e-13 283.6084148920157
1477.8136981362695 -6.002682963064982e-13 277.26852057110625
1491.0806148949746 -6.422363223845835e-13 296.6538730435926
1686.7634127041654 -8.260536903479913e-13 381.5605222604371
2052.135064105433 -1.080922936926347e-12 499.28657804694893
2211.2302030097194 -1.2056917222975176e-12 556.9182350013157
2183.8545014195847 -1.2167921310323862e-12 562.0455987594711
2096.5368323421767 -1.1239768019440653e-12 519.1734878367598
2169.651703653317 -1.0928324447974703e-12 504.7876708890572
2243.7626618685613 -1.0898238670949654e-12 503.3979858203479
2157.9067356156906 -9.871102859884884e-13 455.9537965283456
2139.476283496586 -9.4130390479495e-13 434.7954784489188
1964.1674877036035 -8.155973798268563e-13 376.7306723971906
2063.2537923419673 -8.313008923494105e-13 383.98424502744524
2109.782706512561 -8.31333928840266e-13 383.9995048354357
2284.8567014449713 -8.443391377749202e-13 390.00671038538286
2465.3201820407257 -8.929862958896656e-13 412.47720506827545
2393.5004716202316 -8.492412170523089e-13 392.27101832456117
2607.228139055278 -9.10166823409363e-13 420.41302223091515
2771.2335464185776 -9.14472245132229e-13 422.40172947878926
2849.2298311812765 -9.126312709905696e-13 421.5513694317763
2925.423766477703 -9.168663531065978e-13 423.5075862768664
3004.68892590463 -9.200439488166608e-13 424.97534205694586
3089.6760011529473 -9.280735528816611e-13 428.68427763387587
3177.3828317658335 -9.388236958042741e-13 433.64985093238465
3260.866849082965 -9.485634217446641e-13 438.1487048929828
3150.7539446943047 -9.13185228500285e-13 421.80724664555413
3229.4305555565547 -9.163559516274129e-13 423.2718279269724
3306.047700303307 -9.295953807005705e-13 429.3872215516361
3379.7850155189963 -9.452180178334917e-13 436.6034372203918
3447.680206137882 -9.51485100148217e-13 439.4982505103712
3703.911526495021 -1.0198273050551368e-12 471.0660380542156
3740.212714230338 -1.0210206317168825e-12 471.61724477310474
3742.430216276376 -1.0130643903879406e-12 467.942196005485
3714.6567505744706 -1.0070827486602412e-12 465.1792299074408
3637.85192200399 -9.728570813093772e-13 449.370132191763
3474.285167196858 -9.113797372226705e-13 420.9732764050326
3245.8143458031723 -8.447659280319828e-13 390.20384807181074
3010.759608248847 -7.785930532678431e-13 359.63809072516295
2774.9237907434394 -7.214627640124495e-13 333.2491728377618
2515.949729825195 -6.502539124732482e-13 300.3572592728972
2259.944648437274 -5.803689553968761e-13 268.0768626936198
1996.0439460636183 -5.116787200665971e-13 236.34831723336973
1748.6207049183997 -4.4604295466941186e-13 206.03065481440123

VECTORS D float
92.43562817684204 -0.8322623694535356 31.49839619467354
60.75145131571152 -0.7253770146039138 38.224796963037235
13.218781799559267 -0.19680672485464115 12.054043013774232
539.076614235045 -9.578000407716107 640.7667512439274
524.9309704697558 -10.77489105095562 765.9929588057192
481.48221967268273 -11.11632227546502 829.8255917368739
416.55827038256007 -10.58912642892646 825.2686826665597
350.2744538335758 -10.048388082483726 782.114392842818
312.12116658884946 -9.521475725035055 772.7373944452785
325.7954531514302 -10.52105566606951 883.3721962057335
364.9968546300851 -12.422046533888754 1073.0311710688102
361.27693589946784 -12.902637350547211 1142.0090291835013
329.2816793586625 -12.29092864807481 1111.3839257490674
285.961411167395 -11.114522385766966 1024.4504229321137
266.37821065680794 -10.7456352373473 1007.759817567558
252.39684761118795 -10.53710868422776 1003.9328703258483
220.78382501891926 -9.946736028846955 920.4795584163651
202.3349990169145 -9.335330218180346 880.0636494088013
170.86570591400078 -8.059498821307397 773.0279048843928
167.85557815118418 -8.08159110632728 787.7679411420306
161.6569550333963 -7.932779976994729 785.0672468368356
162.20497298917203 -8.101420501580467 813.2794600211538
166.00296811601095 -8.427466037996814 857.5118333237596
153.2449142233584 -7.897365290030601 813.9660201501312
159.4672516726963 -8.331435474325742 869.3385661401627
159.32987167942798 -8.428257370393785 889.9416452142248
156.26114273100956 -8.358454903426306 892.8041959198888
153.94628261580968 -8.316186294054857 898.3607884042789
151.8770840752666 -8.482275800221615 904.1203808454594
150.65118532276526 -8.45284013155217 913.3690869127669
149.91175526503855 -8.43967460815289 924.4938616844628
149.1860495196046 -8.417000709536723 934.7153880584577
140.77487558567196 -7.950716751441048 895.1159831958349
139.9979516213789 -7.906881382987636 902.462576397112
140.03027148375983 -7.901313841220182 914.2428912610868
140.2961599093003 -7.902264483257363 926.8784900861004
139.92690453242474 -7.861643540019024 934.6418116507231
147.94809881139324 -8.274783868429038 998.0980061413817
146.71902269857108 -8.180083642208118 999.204113019338
144.3375555070246 -8.017949312572169 991.6109110621171
141.65036806956775 -7.83702202457473 981.024100574767
136.32428345684744 -7.509810421190724 951.1630272228756
127.7348340523711 -7.0048108649256005 897.3102028380505
117.80216496840008 -6.430318487414434 832.6833060700149
108.03401325965467 -5.870101793082749 767.9461799162003
99.06131976469086 -5.358607896215971 707.743340487375
88.96419932586466 -4.791996450893685 638.4874274947588
79.20060167497661 -4.249168081276604 570.6898784430355
69.53088434869865 -3.716876173108791 502.7563650259681
60.50403962868623 -3.2239424554449734 438.7825704348539
92.43562817684204 -0.8322623694535356 31.49839619467354
60.75145131571152 -0.7253770146039138 38.224796963037235
13.218781799559267 -0.19680672485464115 12.054043013774232
539.076614235045 -9.578000407716107 640.7667512439274
524.9309704697558 -10.77489105095562 765.9929588057192
481.48221967268273 -11.11632227546502 829.8255917368739
416.55827038256007 -10.58912642892646 825.2686826665597
350.2744538335758 -10.048388082483726 782.114392842818
312.12116658884946 -9.521475725035055 772.7373944452785
325.7954531514302 -10.52105566606951 883.3721962057335
364.9968546300851 -12.422046533888754 1073.0311710688102
361.27693589946784 -12.902637350547211 1142.0090291835013
329.2816793586625 -12.29092864807481 1111.3839257490674
285.961411167395 -11.114522385766966 1024.4504229321137
266.37821065680794 -10.7456352373473 1007.759817567558
252.39684761118795 -10.53710868422776 1003.9328703258483
220.78382501891926 -9.946736028846955 920.4795584163651
202.3349990169145 -9.335330218180346 880.0636494088013
170.86570591400078 -8.059498821307397 773.0279048843928
167.85557815118418 -8.08159110632728 787.7679411420306
161.6569550333963 -7.932779976994729 785.0672468368356
162.20497298917203 -8.101420501580467 813.2794600211538
166.00296811601095 -8.427466037996814 857.5118333237596
153.2449142233584 -7.897365290030601 813.9660201501312
159.4672516726963 -8.331435474325742 869.3385661401627
159.32987167942798 -8.428257370393785 889.9416452142248
156.26114273100956 -8.358454903426306 892.8041959198888
153.94628261580968 -8.316186294054857 898.3607884042789
151.8770840752666 -8.482275800221615 904.1203808454594
150.65118532276526 -8.45284013155217 913.3690869127669
149.91175526503855 -8.43967460815289 924.4938616844628
149.1860495196046 -8.417000709536723 934.7153880584577
140.77487558567196 -7.950716751441048 895.1159831958349
139.9979516213789 -7.906881382987636 902.462576397112
140.03027148375983 -7.901313841220182 914.2428912610868
140.2961599093003 -7.902264483257363 926.8784900861004
139.92690453242474 -7.861643540019024 934.6418116507231
147.94809881139324 -8.274783868429038 998.0980061413817
146.71902269857108 -8.180083642208118 999.204113019338
144.3375555070246 -8.017949312572169 991.6109110621171
141.65036806956775 -7.83702202457473 981.024100574767
136.32428345684744 -7.509810421190724 951.1630272228756
127.7348340523711 -7.0048108649256005 897.3102028380505
117.80216496840008 -6.430318487414434 832.6833060700149
108.03401325965467 -5.870101793082749 767.9461799162003
99.06131976469086 -5.358607896215971 707.743340487375
88.96419932586466 -4.791996450893685 638.4874274947588
79.20060167497661 -4.249168081276604 570.6898784430355
69.53088434869865 -3.716876173108791 502.7563650259681
60.50403962868623 -3.2239424554449734 438.7825704348539

VECTORS L float
24.295429065812602 0.8322623694536215 -71.27571108691346
79.63931846741352 0.7253770146041049 -126.55863186282343
130.5156107748284 0.19680672485492506 -143.12365116088407
748.1379436457461 9.578000407716083 -629.2647531519821
790.6944601022075 10.774891050955135 -541.7072144583443
928.4668631570505 11.116322275464393 -538.5670410682739
1073.384966830709 10.58912642892585 -541.6602677745441
1127.5392443026938 10.048388082483127 -504.84587227171176