# vtk DataFile Version 4.0
[MyVLM domain - lattices] 
ASCII
DATASET UNSTRUCTURED_GRID
POINTS 302 float
1.2444999999999997 -1.2445 0.0
1.2399745454545452 -1.2399745454545454 0.0
1.2346178849721705 -1.2346178849721707 0.0
1.2284300185528754 -1.2284300185528756 0.0
1.2214109461966602 -1.2214109461966605 0.0
1.2135606679035247 -1.213560667903525 0.0
1.2048791836734691 -1.2048791836734694 0.0
1.1953664935064932 -1.1953664935064934 0.0
1.1850225974025972 -1.1850225974025974 0.0
1.1738474953617808 -1.173847495361781 0.0
1.1618411873840442 -1.1618411873840444 0.0
1.1490036734693874 -1.1490036734693876 0.0
1.1353349536178106 -1.1353349536178108 0.0
1.1208350278293133 -1.1208350278293135 0.0
1.1055038961038959 -1.105503896103896 0.0
1.0893415584415582 -1.0893415584415584 0.0
1.0723480148423004 -1.0723480148423006 0.0
1.054523265306122 -1.0545232653061223 0.0
1.0358673098330238 -1.035867309833024 0.0
1.0163801484230053 -1.0163801484230055 0.0
0.9960617810760664 -0.9960617810760668 0.0
0.9749122077922076 -0.9749122077922077 0.0
0.9529314285714284 -0.9529314285714284 0.0
0.9301194434137288 -0.930119443413729 0.0
0.9064762523191091 -0.9064762523191096 0.0
0.8820018552875695 -0.8820018552875695 0.0
0.8566962523191093 -0.8566962523191094 0.0
0.8305594434137288 -0.8305594434137291 0.0
0.8035914285714284 -0.8035914285714285 0.0
0.7757922077922076 -0.7757922077922077 0.0
0.7471617810760666 -0.7471617810760667 0.0
0.7177001484230053 -0.7177001484230054 0.0
0.6874073098330239 -0.687407309833024 0.0
0.6562832653061222 -0.6562832653061225 0.0
0.6243280148423004 -0.6243280148423005 0.0
0.5915415584415582 -0.5915415584415583 0.0
0.5579238961038958 -0.5579238961038959 0.0
0.5234750278293133 -0.5234750278293134 0.0
0.48819495361781057 -0.48819495361781057 0.0
0.4520836734693877 -0.4520836734693877 0.0
0.4151411873840445 -0.4151411873840446 0.0
0.37736749536178105 -0.37736749536178116 0.0
0.3387625974025974 -0.3387625974025974 0.0
0.2993264935064933 -0.29932649350649343 0.0
0.25905918367346925 -0.25905918367346925 0.0
0.21796066790352486 -0.21796066790352486 0.0
0.17603094619666027 -0.1760309461966605 0.0
0.13327001855287546 -0.13327001855287568 0.0
0.08967788497217066 -0.08967788497217066 0.0
0.045254545454545436 -0.045254545454545436 0.0
0.0 0.0 0.0
0.04525454545454545 0.04525454545454546 0.0
0.08967788497217066 0.08967788497217068 0.0
0.13327001855287568 0.1332700185528757 0.0
0.17603094619666046 0.1760309461966605 0.0
0.21796066790352497 0.21796066790352508 0.0
0.2590591836734693 0.25905918367346936 0.0
0.29932649350649343 0.2993264935064935 0.0
0.3387625974025973 0.33876259740259734 0.0
0.37736749536178094 0.377367495361781 0.0
0.41514118738404443 0.4151411873840445 0.0
0.45208367346938766 0.4520836734693878 0.0
0.48819495361781057 0.4881949536178107 0.0
0.5234750278293133 0.5234750278293134 0.0
0.5579238961038959 0.557923896103896 0.0
0.5915415584415582 0.5915415584415583 0.0
0.6243280148423003 0.6243280148423004 0.0
0.6562832653061222 0.6562832653061225 0.0
0.687407309833024 0.6874073098330241 0.0
0.7177001484230054 0.7177001484230056 0.0
0.7471617810760667 0.7471617810760669 0.0
0.7757922077922076 0.7757922077922077 0.0
0.8035914285714284 0.8035914285714285 0.0
0.8305594434137288 0.830559443413729 0.0
0.8566962523191093 0.8566962523191094 0.0
0.8820018552875692 0.8820018552875695 0.0
0.9064762523191091 0.9064762523191093 0.0
0.9301194434137288 0.9301194434137292 0.0
0.9529314285714284 0.9529314285714284 0.0
0.9749122077922076 0.9749122077922077 0.0
0.9960617810760666 0.9960617810760668 0.0
1.0163801484230053 1.0163801484230055 0.0
1.0358673098330238 1.035867309833024 0.0
1.054523265306122 1.0545232653061223 0.0
1.0723480148423001 1.0723480148423004 0.0
1.0893415584415582 1.0893415584415584 0.0
1.1055038961038959 1.105503896103896 0.0
1.120835027829313 1.1208350278293133 0.0
1.1353349536178106 1.1353349536178106 0.0
1.1490036734693874 1.1490036734693876 0.0
1.1618411873840444 1.1618411873840446 0.0
1.1738474953617808 1.173847495361781 0.0
1.1850225974025972 1.1850225974025972 0.0
1.1953664935064932 1.1953664935064934 0.0
1.2048791836734691 1.2048791836734694 0.0
1.2135606679035245 1.2135606679035247 0.0
1.22141094619666 1.2214109461966602 0.0
1.2284300185528754 1.2284300185528756 0.0
1.2346178849721703 1.2346178849721705 0.0
1.2399745454545452 1.2399745454545454 0.0
1.2444999999999997 1.2445 0.0
1.7422999999999997 -1.2445 0.0
1.7377745454545452 -1.2399745454545454 0.0
1.7324178849721703 -1.2346178849721707 0.0
1.7262300185528754 -1.2284300185528756 0.0
1.7192109461966603 -1.2214109461966605 0.0
1.7113606679035245 -1.213560667903525 0.0
1.7026791836734692 -1.2048791836734694 0.0
1.6931664935064934 -1.1953664935064934 0.0
1.6828225974025972 -1.1850225974025974 0.0
1.6716474953617806 -1.173847495361781 0.0
1.6596411873840444 -1.1618411873840444 0.0
1.6468036734693878 -1.1490036734693876 0.0
1.6331349536178106 -1.1353349536178108 0.0
1.6186350278293133 -1.1208350278293135 0.0
1.603303896103896 -1.105503896103896 0.0
1.5871415584415582 -1.0893415584415584 0.0
1.5701480148423004 -1.0723480148423006 0.0
1.552323265306122 -1.0545232653061223 0.0
1.5336673098330238 -1.035867309833024 0.0
1.5141801484230053 -1.0163801484230055 0.0
1.4938617810760666 -0.9960617810760668 0.0
1.4727122077922075 -0.9749122077922077 0.0
1.4507314285714283 -0.9529314285714284 0.0
1.4279194434137288 -0.930119443413729 0.0
1.4042762523191092 -0.9064762523191096 0.0
1.3798018552875693 -0.8820018552875695 0.0
1.3544962523191093 -0.8566962523191094 0.0
1.328359443413729 -0.8305594434137291 0.0
1.3013914285714283 -0.8035914285714285 0.0
1.2735922077922077 -0.7757922077922077 0.0
1.2449617810760665 -0.7471617810760667 0.0
1.2155001484230055 -0.7177001484230054 0.0
1.1852073098330238 -0.687407309833024 0.0
1.1540832653061224 -0.6562832653061225 0.0
1.1221280148423003 -0.6243280148423005 0.0
1.0893415584415582 -0.5915415584415583 0.0
1.055723896103896 -0.5579238961038959 0.0
1.0212750278293132 -0.5234750278293134 0.0
0.9859949536178108 -0.48819495361781057 0.0
0.9498836734693876 -0.4520836734693877 0.0
0.9129411873840445 -0.4151411873840446 0.0
0.875167495361781 -0.37736749536178116 0.0
0.8365625974025973 -0.3387625974025974 0.0
0.7971264935064933 -0.29932649350649343 0.0
0.7568591836734693 -0.25905918367346925 0.0
0.7157606679035249 -0.21796066790352486 0.0
0.6738309461966603 -0.1760309461966605 0.0
0.6310700185528755 -0.13327001855287568 0.0
0.5874778849721707 -0.08967788497217066 0.0
0.5430545454545455 -0.045254545454545436 0.0
0.4978 0.0 0.0
0.5430545454545455 0.04525454545454546 0.0
0.5874778849721707 0.08967788497217068 0.0
0.6310700185528757 0.1332700185528757 0.0
0.6738309461966605 0.1760309461966605 0.0
0.715760667903525 0.21796066790352508 0.0
0.7568591836734693 0.25905918367346936 0.0
0.7971264935064934 0.2993264935064935 0.0
0.8365625974025973 0.33876259740259734 0.0
0.875167495361781 0.377367495361781 0.0
0.9129411873840445 0.4151411873840445 0.0
0.9498836734693876 0.4520836734693878 0.0
0.9859949536178105 0.4881949536178107 0.0
1.0212750278293132 0.5234750278293134 0.0
1.055723896103896 0.557923896103896 0.0
1.0893415584415582 0.5915415584415583 0.0
1.1221280148423003 0.6243280148423004 0.0
1.1540832653061224 0.6562832653061225 0.0
1.185207309833024 0.6874073098330241 0.0
1.2155001484230055 0.7177001484230056 0.0
1.2449617810760667 0.7471617810760669 0.0
1.2735922077922077 0.7757922077922077 0.0
1.3013914285714283 0.8035914285714285 0.0
1.3283594434137287 0.830559443413729 0.0
1.3544962523191093 0.8566962523191094 0.0
1.3798018552875693 0.8820018552875695 0.0
1.4042762523191092 0.9064762523191093 0.0
1.427919443413729 0.9301194434137292 0.0
1.4507314285714283 0.9529314285714284 0.0
1.4727122077922075 0.9749122077922077 0.0
1.4938617810760666 0.9960617810760668 0.0
1.5141801484230053 1.0163801484230055 0.0
1.5336673098330238 1.035867309833024 0.0
1.552323265306122 1.0545232653061223 0.0
1.5701480148423002 1.0723480148423004 0.0
1.5871415584415582 1.0893415584415584 0.0
1.603303896103896 1.105503896103896 0.0
1.6186350278293131 1.1208350278293133 0.0
1.6331349536178106 1.1353349536178106 0.0
1.6468036734693874 1.1490036734693876 0.0
1.6596411873840444 1.1618411873840446 0.0
1.6716474953617806 1.173847495361781 0.0
1.6828225974025972 1.1850225974025972 0.0
1.6931664935064934 1.1953664935064934 0.0
1.7026791836734692 1.2048791836734694 0.0
1.7113606679035245 1.2135606679035247 0.0
1.71921094619666 1.2214109461966602 0.0
1.7262300185528754 1.2284300185528756 0.0
1.7324178849721703 1.2346178849721705 0.0
1.7377745454545452 1.2399745454545454 0.0
1.7422999999999997 1.2445 0.0
1.6155872727272724 -1.2422372727272726 0.0
1.6106462152133578 -1.237296215213358 0.0
1.604873951762523 -1.2315239517625232 0.0
1.598270482374768 -1.224920482374768 0.0
1.5908358070500925 -1.2174858070500927 0.0
1.582569925788497 -1.2092199257884972 0.0
1.5734728385899812 -1.2001228385899814 0.0
1.5635445454545454 -1.1901945454545453 0.0
1.552785046382189 -1.1794350463821892 0.0
1.5411943413729126 -1.1678443413729127 0.0
1.5287724304267158 -1.155422430426716 0.0
1.5155193135435991 -1.142169313543599 0.0
1.501434990723562 -1.1280849907235622 0.0
1.4865194619666047 -1.1131694619666048 0.0
1.4707727272727271 -1.0974227272727273 0.0
1.4541947866419294 -1.0808447866419293 0.0
1.4367856400742112 -1.0634356400742113 0.0
1.418545287569573 -1.0451952875695731 0.0
1.3994737291280146 -1.0261237291280147 0.0
1.379570964749536 -1.0062209647495362 0.0
1.358836994434137 -0.9854869944341371 0.0
1.337271818181818 -0.9639218181818181 0.0
1.3148754359925787 -0.9415254359925787 0.0
1.291647847866419 -0.9182978478664192 0.0
1.2675890538033394 -0.8942390538033393 0.0
1.2426990538033393 -0.8693490538033395 0.0
1.2169778478664193 -0.8436278478664192 0.0
1.1904254359925788 -0.8170754359925788 0.0
1.163041818181818 -0.7896918181818181 0.0
1.1348269944341371 -0.7614769944341371 0.0
1.105780964749536 -0.7324309647495362 0.0
1.0759037291280147 -0.7025537291280148 0.0
1.0451952875695731 -0.6718452875695733 0.0
1.0136556400742114 -0.6403056400742114 0.0
0.9812847866419293 -0.6079347866419293 0.0
0.9480827272727271 -0.5747327272727272 0.0
0.9140494619666047 -0.5406994619666048 0.0
0.8791849907235622 -0.5058349907235622 0.0
0.8434893135435992 -0.47013931354359917 0.0
0.8069624304267162 -0.43361243042671627 0.0
0.7696043413729128 -0.3962543413729128 0.0
0.7314150463821893 -0.3580650463821894 0.0
0.6923945454545455 -0.3190445454545454 0.0
0.6525428385899814 -0.27919283858998134 0.0
0.6118599257884971 -0.23850992578849706 0.0
0.5703458070500929 -0.19699580705009279 0.0
0.5280004823747682 -0.15465048237476808 0.0
0.4848239517625232 -0.11147395176252317 0.0
0.4408162152133581 -0.06746621521335805 0.0
0.39597727272727273 -0.022627272727272718 0.0
0.39597727272727273 0.02262727272727273 0.0
0.4408162152133581 0.06746621521335806 0.0
0.4848239517625232 0.11147395176252319 0.0
0.528000482374768 0.15465048237476808 0.0
0.5703458070500929 0.19699580705009276 0.0
0.6118599257884971 0.23850992578849717 0.0
0.6525428385899814 0.2791928385899814 0.0
0.6923945454545455 0.3190445454545454 0.0
0.7314150463821891 0.3580650463821891 0.0
0.7696043413729128 0.39625434137291277 0.0
0.8069624304267162 0.43361243042671616 0.0
0.8434893135435992 0.4701393135435992 0.0
0.8791849907235619 0.5058349907235621 0.0
0.9140494619666046 0.5406994619666047 0.0
0.9480827272727271 0.5747327272727272 0.0
0.9812847866419294 0.6079347866419295 0.0
1.0136556400742114 0.6403056400742114 0.0
1.0451952875695731 0.6718452875695732 0.0
1.0759037291280147 0.7025537291280147 0.0
1.105780964749536 0.7324309647495362 0.0
1.1348269944341371 0.7614769944341373 0.0
1.163041818181818 0.789691818181818 0.0
1.1904254359925786 0.8170754359925786 0.0
1.216977847866419 0.843627847866419 0.0
1.2426990538033393 0.8693490538033394 0.0
1.2675890538033392 0.8942390538033393 0.0
1.291647847866419 0.9182978478664192 0.0
1.3148754359925787 0.9415254359925787 0.0
1.3372718181818182 0.9639218181818181 0.0
1.3588369944341372 0.9854869944341373 0.0
1.379570964749536 1.0062209647495362 0.0
1.3994737291280148 1.0261237291280147 0.0
1.418545287569573 1.0451952875695731 0.0
1.4367856400742112 1.0634356400742113 0.0
1.4541947866419291 1.0808447866419293 0.0
1.470772727272727 1.097422727272727 0.0
1.4865194619666047 1.1131694619666048 0.0
1.501434990723562 1.128084990723562 0.0
1.5155193135435991 1.1421693135435993 0.0
1.528772430426716 1.1554224304267162 0.0
1.5411943413729128 1.1678443413729127 0.0
1.5527850463821888 1.179435046382189 0.0
1.5635445454545451 1.1901945454545453 0.0
1.573472838589981 1.2001228385899811 0.0
1.5825699257884969 1.209219925788497 0.0
1.5908358070500925 1.2174858070500927 0.0
1.5982704823747678 1.224920482374768 0.0
1.604873951762523 1.2315239517625232 0.0
1.6106462152133578 1.237296215213358 0.0
1.6155872727272724 1.2422372727272726 0.0

CELLS 200 700
4 0 101 102 1
4 1 102 103 2
4 2 103 104 3
4 3 104 105 4
4 4 105 106 5
4 5 106 107 6
4 6 107 108 7
4 7 108 109 8
4 8 109 110 9
4 9 110 111 10
4 10 111 112 11
4 11 112 113 12
4 12 113 114 13
4 13 114 115 14
4 14 115 116 15
4 15 116 117 16
4 16 117 118 17
4 17 118 119 18
4 18 119 120 19
4 19 120 121 20
4 20 121 122 21
4 21 122 123 22
4 22 123 124 23
4 23 124 125 24
4 24 125 126 25
4 25 126 127 26
4 26 127 128 27
4 27 128 129 28
4 28 129 130 29
4 29 130 131 30
4 30 131 132 31
4 31 132 133 32
4 32 133 134 33
4 33 134 135 34
4 34 135 136 35
4 35 136 137 36
4 36 137 138 37
4 37 138 139 38
4 38 139 140 39
4 39 140 141 40
4 40 141 142 41
4 41 142 143 42
4 42 143 144 43
4 43 144 145 44
4 44 145 146 45
4 45 146 147 46
4 46 147 148 47
4 47 148 149 48
4 48 149 150 49
4 49 150 151 50
4 50 151 152 51
4 51 152 153 52
4 52 153 154 53
4 53 154 155 54
4 54 155 156 55
4 55 156 157 56
4 56 157 158 57
4 57 158 159 58
4 58 159 160 59
4 59 160 161 60
4 60 161 162 61
4 61 162 163 62
4 62 163 164 63
4 63 164 165 64
4 64 165 166 65
4 65 166 167 66
4 66 167 168 67
4 67 168 169 68
4 68 169 170 69
4 69 170 171 70
4 70 171 172 71
4 71 172 173 72
4 72 173 174 73
4 73 174 175 74
4 74 175 176 75
4 75 176 177 76
4 76 177 178 77
4 77 178 179 78
4 78 179 180 79
4 79 180 181 80
4 80 181 182 81
4 81 182 183 82
4 82 183 184 83
4 83 184 185 84
4 84 185 186 85
4 85 186 187 86
4 86 187 188 87
4 87 188 189 88
4 88 189 190 89
4 89 190 191 90
4 90 191 192 91
4 91 192 193 92
4 92 193 194 93
4 93 194 195 94
4 94 195 196 95
4 95 196 197 96
4 96 197 198 97
4 97 198 199 98
4 98 199 200 99
4 99 200 201 100
1 202
1 203
1 204
1 205
1 206
1 207
1 208
1 209
1 210
1 211
1 212
1 213
1 214
1 215
1 216
1 217
1 218
1 219
1 220
1 221
1 222
1 223
1 224
1 225
1 226
1 227
1 228
1 229
1 230
1 231
1 232
1 233
1 234
1 235
1 236
1 237
1 238
1 239
1 240
1 241
1 242
1 243
1 244
1 245
1 246
1 247
1 248
1 249
1 250
1 251
1 252
1 253
1 254
1 255
1 256
1 257
1 258
1 259
1 260
1 261
1 262
1 263
1 264
1 265
1 266
1 267
1 268
1 269
1 270
1 271
1 272
1 273
1 274
1 275
1 276
1 277
1 278
1 279
1 280
1 281
1 282
1 283
1 284
1 285
1 286
1 287
1 288
1 289
1 290
1 291
1 292
1 293
1 294
1 295
1 296
1 297
1 298
1 299
1 300
1 301

CELL_TYPES 200
9
9
9
9
9
9
9
9
9
9
9
9
9
9
9
9
9
9
9
9
9
9
9
9
9
9
9
9
9
9
9
9
9
9
9
9
9
9
9
9
9
9
9
9
9
9
9
9
9
9
9
9
9
9
9
9
9
9
9
9
9
9
9
9
9
9
9
9
9
9
9
9
9
9
9
9
9
9
9
9
9
9
9
9
9
9
9
9
9
9
9
9
9
9
9
9
9
9
9
9
1
1
1
1
1
1
1
1
1
1
1
1
1
1
1
1
1
1
1
1
1
1
1
1
1
1
1
1
1
1
1
1
1
1
1
1
1
1
1
1
1
1
1
1
1
1
1
1
1
1
1
1
1
1
1
1
1
1
1
1
1
1
1
1
1
1
1
1
1
1
1
1
1
1
1
1
1
1
1
1
1
1
1
1
1
1
1
1
1
1
1
1
1
1
1
1
1
1
1
1

CELL_DATA 200

VECTORS Vinf float
49.5302720859749 0.028820409921677923 4.312268994619267
49.53273579588648 0.029847817019109674 4.277209170366145
49.53549525289219 0.030882369831352605 4.237665704652632
49.538490633734206 0.031863287685126286 4.194367528004829
49.54165489519076 0.03273411491604926 4.14813787161687
49.54491728790364 0.03344750157065695 4.099851649039501
49.54820762193938 0.03396896040834886 4.050383920166348
49.55146049055716 0.034278766252495166 4.000559821201575
49.554618601083085 0.03437157015322595 3.951116695677226
49.55763461261552 0.03425393898833955 3.9026854374772557
49.56047136226964 0.033940642608411425 3.8557915552697613
49.56310086432944 0.0334508003523868 3.810870192938441
49.56550275768578 0.03280481715268141 3.768286266935875
49.56821416725331 0.022531566609645084 3.7155226051438417
49.57004940359324 0.023907948537961164 3.68129962883877
49.571775572624674 0.02488870518327829 3.648129243469332
49.573371988992356 0.025446799617975042 3.6165027503100613
49.574825498682685 0.025553126211022868 3.5868103300517706
49.576128136377584 0.025174088097188616 3.5593535023366334
49.577274426775574 0.024270492515980253 3.5343610668135375
49.57825899317449 0.02279783485709725 3.512004525470316
49.57907501848078 0.020707610687999374 3.4924106654314064
49.57971378250249 0.01794897819199696 3.475671942500086
49.580165199321534 0.014470104213357857 3.461857399899169
49.58084191966914 0.013716760503755731 3.4417485973379303
49.58128820967252 0.013802845638383666 3.4316283863201056
49.5816623647158 0.013591217693196427 3.4222971278871195
49.581959314885204 0.013092287387307177 3.414055904188795
49.58218319290575 0.012305668808439375 3.4070991025735764
49.58233942611893 0.011218319702929136 3.4015709942258074
49.58242867392049 0.009807912830061475 3.397600707922415
49.58244547757283 0.008049302875851781 3.3953107527122133
49.58274042959022 0.014199222160874367 3.3998671341218443
49.58272450758236 0.011990710305588235 3.3986805238534896
49.5826461198523 0.00998334955096713 3.3989477005767386
49.582509015035924 0.00820615737238558 3.40063638003015
49.58232076049484 0.006680293991732028 3.4037812484300773
49.582080942530595 0.005413458874912961 3.408536883292839
49.581767576316864 0.0044073303600521575 3.415177877119851
49.58118369539388 0.0034221893977525674 3.423668879335564
49.580652336881215 0.0020955895393049624 3.4345171646124912
49.579941163854215 0.0008142461393821422 3.4480711335467347
49.579019251691214 -0.00038036933810774214 3.4649978326707562
49.57784954057673 -0.0014370212524261652 3.48593584626887
49.57640124281847 -0.0022631939399262 3.5110930275316647
49.57488191094389 -0.00215162637340814 3.5406326256657343
49.57303671142815 -0.00239031662292317 3.568566878359254
49.5716472422056 -0.0019315612074395359 3.5878040857994895
49.571155168944415 -0.0010230888217671167 3.592278083743892
49.57138572722375 -0.00025575251774195916 3.585614367456732
49.57138596264185 0.00026125281894059943 3.5856115978169973
49.57115585747996 0.001028368330196572 3.5922698184680772
49.57164846737296 0.001936734037498135 3.5877885768053837
49.57303871605886 0.002395469190327259 3.56854151416013
49.574885023254815 0.002156697836097114 3.5405951792374877
49.576405150905515 0.002268045376178181 3.5110420715446473
49.57785470392782 0.001441463635273906 3.4858715272991807
49.57902535171105 0.0003840960143449015 3.4649214633928413
49.579947700139705 -0.0008112974440084424 3.447985154392973
49.580658847226466 -0.002093202023979292 3.43442460428693
49.58118992084436 -0.003419977853513636 3.4235728691347136
49.581773858112605 -0.004405283224190024 3.415081144125401
49.58208704682024 -0.005411069059865759 3.4084419469184857
49.5823268777095 -0.006677414591592909 3.4036899663415627
49.58251530428635 -0.008202752335355218 3.4005498507586243
49.58265269718367 -0.009979441029539564 3.3988661573445493
49.58273146533809 -0.011986341198241048 3.3986034144359993
49.58274785847583 -0.01419444207773625 3.399793382098703
49.58245112941264 -0.008046729610940979 3.3952461926314683
49.58243489105895 -0.009803803491015492 3.397536670798726
49.582346259955564 -0.011212787310208947 3.401507188264348
49.58219069139427 -0.012298846043740956 3.407035403992724
49.58196750678863 -0.013084341893436952 3.413992161600192
49.58167123463548 -0.013582332772878656 3.4222330788718685
49.58129769085935 -0.013793173307757763 3.4315636765643602
49.5808519196 -0.013706382583438495 3.4416828255652443
49.580177710517745 -0.014463612294649117 3.4617858708442637
49.57972697551084 -0.017942289339464235 3.4755986007434405
49.57908884938107 -0.02070072667824507 3.492335233952838
49.57827345860489 -0.022790786332851243 3.511926538548733
49.577289523808034 -0.024263331499617135 3.5342799598100165
49.576143837180695 -0.025166854096343966 3.559268724944655
49.5748417540199 -0.02554581016403655 3.586721453990327
49.57338875441289 -0.025439325575653073 3.6164095586615184
49.57179284086286 -0.024880935153200227 3.648031792430467
49.570067230046746 -0.0238997064021895 3.6811982667373897
49.56823268304765 -0.02252267572148506 3.7154179335832094
49.56552215290072 -0.03279722292122501 3.7681776990628855
49.563121348047915 -0.03344242307001643 3.810760108357497
49.5604931987783 -0.03393158814160005 3.8556805378049495
49.557658029502775 -0.0342444349757059 3.9025738502308056
49.55464375017224 -0.0343619349783241 3.9510046530289125
49.55148742253637 -0.03426935891389852 4.000447220797126
49.5482362813098 -0.03396012607181923 4.050270512638554
49.54494752760229 -0.033439526710722395 4.09973711916943
49.54168650442877 -0.032727200119518296 4.148021910771941
49.53852337038931 -0.031857539255118104 4.1942498874653955
49.53552887298361 -0.03087780629679225 4.2375462277917375
49.53277007563397 -0.02984438454933464 4.27708780658832
49.530306835033805 -0.028818000939264753 4.3121457997945845
49.5302720859749 0.028820409921677923 4.312268994619267
49.53273579588648 0.029847817019109674 4.277209170366145
49.53549525289219 0.030882369831352605 4.237665704652632
49.538490633734206 0.031863287685126286 4.194367528004829
49.54165489519076 0.03273411491604926 4.14813787161687
49.54491728790364 0.03344750157065695 4.099851649039501
49.54820762193938 0.03396896040834886 4.050383920166348
49.55146049055716 0.034278766252495166 4.000559821201575
49.554618601083085 0.03437157015322595 3.951116695677226
49.55763461261552 0.03425393898833955 3.9026854374772557
49.56047136226964 0.033940642608411425 3.8557915552697613
49.56310086432944 0.0334508003523868 3.810870192938441
49.56550275768578 0.03280481715268141 3.768286266935875
49.56821416725331 0.022531566609645084 3.7155226051438417
49.57004940359324 0.023907948537961164 3.68129962883877
49.571775572624674 0.02488870518327829 3.648129243469332
49.573371988992356 0.025446799617975042 3.6165027503100613
49.574825498682685 0.025553126211022868 3.5868103300517706
49.576128136377584 0.025174088097188616 3.5593535023366334
49.577274426775574 0.024270492515980253 3.5343610668135375
49.57825899317449 0.02279783485709725 3.512004525470316
49.57907501848078 0.020707610687999374 3.4924106654314064
49.57971378250249 0.01794897819199696 3.475671942500086
49.580165199321534 0.014470104213357857 3.461857399899169
49.58084191966914 0.013716760503755731 3.4417485973379303
49.58128820967252 0.013802845638383666 3.4316283863201056
49.5816623647158 0.013591217693196427 3.4222971278871195
49.581959314885204 0.013092287387307177 3.414055904188795
49.58218319290575 0.012305668808439375 3.4070991025735764
49.58233942611893 0.011218319702929136 3.4015709942258074
49.58242867392049 0.009807912830061475 3.397600707922415
49.58244547757283 0.008049302875851781 3.3953107527122133
49.58274042959022 0.014199222160874367 3.3998671341218443
49.58272450758236 0.011990710305588235 3.3986805238534896
49.5826461198523 0.00998334955096713 3.3989477005767386
49.582509015035924 0.00820615737238558 3.40063638003015
49.58232076049484 0.006680293991732028 3.4037812484300773
49.582080942530595 0.005413458874912961 3.408536883292839
49.581767576316864 0.0044073303600521575 3.415177877119851
49.58118369539388 0.0034221893977525674 3.423668879335564
49.580652336881215 0.0020955895393049624 3.4345171646124912
49.579941163854215 0.0008142461393821422 3.4480711335467347
49.579019251691214 -0.00038036933810774214 3.4649978326707562
49.57784954057673 -0.0014370212524261652 3.48593584626887
49.57640124281847 -0.0022631939399262 3.5110930275316647
49.57488191094389 -0.00215162637340814 3.5406326256657343
49.57303671142815 -0.00239031662292317 3.568566878359254
49.5716472422056 -0.0019315612074395359 3.5878040857994895
49.571155168944415 -0.0010230888217671167 3.592278083743892
49.57138572722375 -0.00025575251774195916 3.585614367456732
49.57138596264185 0.00026125281894059943 3.5856115978169973
49.57115585747996 0.001028368330196572 3.5922698184680772
49.57164846737296 0.001936734037498135 3.5877885768053837
49.57303871605886 0.002395469190327259 3.56854151416013
49.574885023254815 0.002156697836097114 3.5405951792374877
49.576405150905515 0.002268045376178181 3.5110420715446473
49.57785470392782 0.001441463635273906 3.4858715272991807
49.57902535171105 0.0003840960143449015 3.4649214633928413
49.579947700139705 -0.0008112974440084424 3.447985154392973
49.580658847226466 -0.002093202023979292 3.43442460428693
49.58118992084436 -0.003419977853513636 3.4235728691347136
49.581773858112605 -0.004405283224190024 3.415081144125401
49.58208704682024 -0.005411069059865759 3.4084419469184857
49.5823268777095 -0.006677414591592909 3.4036899663415627
49.58251530428635 -0.008202752335355218 3.4005498507586243
49.58265269718367 -0.009979441029539564 3.3988661573445493
49.58273146533809 -0.011986341198241048 3.3986034144359993
49.58274785847583 -0.01419444207773625 3.399793382098703
49.58245112941264 -0.008046729610940979 3.3952461926314683
49.58243489105895 -0.009803803491015492 3.397536670798726
49.582346259955564 -0.011212787310208947 3.401507188264348
49.58219069139427 -0.012298846043740956 3.407035403992724
49.58196750678863 -0.013084341893436952 3.413992161600192
49.58167123463548 -0.013582332772878656 3.4222330788718685
49.58129769085935 -0.013793173307757763 3.4315636765643602
49.5808519196 -0.013706382583438495 3.4416828255652443
49.580177710517745 -0.014463612294649117 3.4617858708442637
49.57972697551084 -0.017942289339464235 3.4755986007434405
49.57908884938107 -0.02070072667824507 3.492335233952838
49.57827345860489 -0.022790786332851243 3.511926538548733
49.577289523808034 -0.024263331499617135 3.5342799598100165
49.576143837180695 -0.025166854096343966 3.559268724944655
49.5748417540199 -0.02554581016403655 3.586721453990327
49.57338875441289 -0.025439325575653073 3.6164095586615184
49.57179284086286 -0.024880935153200227 3.648031792430467
49.570067230046746 -0.0238997064021895 3.6811982667373897
49.56823268304765 -0.02252267572148506 3.7154179335832094
49.56552215290072 -0.03279722292122501 3.7681776990628855
49.563121348047915 -0.03344242307001643 3.810760108357497
49.5604931987783 -0.03393158814160005 3.8556805378049495
49.557658029502775 -0.0342444349757059 3.9025738502308056
49.55464375017224 -0.0343619349783241 3.9510046530289125
49.55148742253637 -0.03426935891389852 4.000447220797126
49.5482362813098 -0.03396012607181923 4.050270512638554
49.54494752760229 -0.033439526710722395 4.09973711916943
49.54168650442877 -0.032727200119518296 4.148021910771941
49.53852337038931 -0.031857539255118104 4.1942498874653955
49.53552887298361 -0.03087780629679225 4.2375462277917375
49.53277007563397 -0.02984438454933464 4.27708780658832
49.530306835033805 -0.028818000939264753 4.3121457997945845

VECTORS L float
-0.006659511655762488 0.0 0.09068529327616619
-0.012014969516667355 0.0 0.1636127528030316
-0.017753145420125845 0.0 0.24175184040791436
-0.024066808091618375 0.0 0.3277275666483886
-0.0309981358856876 0.0 0.42211429142489787
-0.03854882173740276 0.0 0.5249350681265175
-0.046703898018505045 0.0 0.635986076439017
-0.05543914785833901 0.0 0.7549375453324563
-0.06472392004746026 0.0 0.8813720847546187
-0.07452235328171145 0.0 1.014801356663185
-0.08479398516186076 0.0 1.1546743680228309
-0.09549408076277704 0.0 1.3003819450660319
-0.10657350576140877 0.0 1.4512550056248794
-0.11797521186287398 0.0 1.6065166997410438
-0.12967062087335743 0.0 1.765777866463782
-0.14159845779192992 0.0 1.9282040990502283
-0.1537031596694722 0.0 2.093038774102659
-0.16593348437540892 0.0 2.2595841065762334
-0.1782419132445951 0.0 2.427193015377397
-0.19058482522763048 0.0 2.5952714948399143
-0.202922548348487 0.0 2.7632793154444277
-0.21521913797014103 0.0 2.9307270043709033
-0.22744171123678153 0.0 3.0971667823260356
-0.23955861649180418 0.0 3.2621676357595497
-0.25156590986319444 0.0 3.4256758593535848
-0.2633912267916275 0.0 3.5867060353141045
-0.2750483996989091 0.0 3.7454465253848843
-0.28651562093951144 0.0 3.9016003659396743
-0.29777697803609227 0.0 4.0549508702679296
-0.308819016389845 0.0 4.205314821596144
-0.31962952155906765 0.0 4.352525890877201
-0.3301970689720997 0.0 4.496428505047321
-0.34051511069089885 0.0 4.6369334981567425
-0.3505353430787473 0.0 4.773383099833028
-0.36024311214720833 0.0 4.905577760723653
-0.3696263343420045 0.0 5.033352934129081
-0.3786646704566364 0.0 5.156431652757753
-0.3873328649793364 0.0 5.274470001979008
-0.3955569742182304 0.0 5.386461060305182
-0.40337355463327024 0.0 5.492902631999295
-0.41069060188790324 0.0 5.592541856390139
-0.4174600208811408 0.0 5.684723802821571
-0.4236133983098319 0.0 5.7685168593705365
-0.4290665938571489 0.0 5.842775252938
-0.433716148776449 0.0 5.9060901434668756
-0.4374429895664587 0.0 5.956840058401427
-0.44009840050218096 0.0 5.992999874904841
-0.4415924783557217 0.0 6.013345343961648
-0.44195449450885144 0.0 6.018275065946424
-0.4401361673124435 0.0 5.9935141610029525
-0.4401356027640326 0.0 5.993506473316398
-0.4419528268855289 0.0 6.018252357237753
-0.44158965136539696 0.0 6.013306847678446
-0.4400943952096117 0.0 5.992945333198169
-0.4374378372178492 0.0 5.956769896763627
-0.4337099347766751 0.0 5.906005524891063
-0.4290594539716955 0.0 5.842678026198298
-0.4236055047568204 0.0 5.768409369631522
-0.41745156708352843 0.0 5.684608684002744
-0.4106817860476624 0.0 5.592421807488802
-0.40336456649925895 0.0 5.492780236903235
-0.39554799365011745 0.0 5.386338768237053
-0.3873239572878394 0.0 5.274348702301558
-0.37865595428683607 0.0 5.15631296110956
-0.36961793216637023 0.0 5.033238518267837
-0.3602351344136868 0.0 4.905469124664212
-0.3505278986638545 0.0 4.773281726191428
-0.34050842335310727 0.0 4.636842433943596