# vtk DataFile Version 4.0
[MyVLM domain - lattices] 
ASCII
DATASET UNSTRUCTURED_GRID
POINTS 302 float
1.2444999999999997 -1.2445 0.0
1.2399745454545452 -1.2399745454545454 0.0
1.2346178849721705 -1.2346178849721707 0.0
1.2284300185528754 -1.2284300185528756 0.0
1.2214109461966602 -1.2214109461966605 0.0
1.2135606679035247 -1.213560667903525 0.0
1.2048791836734691 -1.2048791836734694 0.0
1.1953664935064932 -1.1953664935064934 0.0
1.1850225974025972 -1.1850225974025974 0.0
1.1738474953617808 -1.173847495361781 0.0
1.1618411873840442 -1.1618411873840444 0.0
1.1490036734693874 -1.1490036734693876 0.0
1.1353349536178106 -1.1353349536178108 0.0
1.1208350278293133 -1.1208350278293135 0.0
1.1055038961038959 -1.105503896103896 0.0
1.0893415584415582 -1.0893415584415584 0.0
1.0723480148423004 -1.0723480148423006 0.0
1.054523265306122 -1.0545232653061223 0.0
1.0358673098330238 -1.035867309833024 0.0
1.0163801484230053 -1.0163801484230055 0.0
0.9960617810760664 -0.9960617810760668 0.0
0.9749122077922076 -0.9749122077922077 0.0
0.9529314285714284 -0.9529314285714284 0.0
0.9301194434137288 -0.930119443413729 0.0
0.9064762523191091 -0.9064762523191096 0.0
0.8820018552875695 -0.8820018552875695 0.0
0.8566962523191093 -0.8566962523191094 0.0
0.8305594434137288 -0.8305594434137291 0.0
0.8035914285714284 -0.8035914285714285 0.0
0.7757922077922076 -0.7757922077922077 0.0
0.7471617810760666 -0.7471617810760667 0.0
0.7177001484230053 -0.7177001484230054 0.0
0.6874073098330239 -0.687407309833024 0.0
0.6562832653061222 -0.6562832653061225 0.0
0.6243280148423004 -0.6243280148423005 0.0
0.5915415584415582 -0.5915415584415583 0.0
0.5579238961038958 -0.5579238961038959 0.0
0.5234750278293133 -0.5234750278293134 0.0
0.48819495361781057 -0.48819495361781057 0.0
0.4520836734693877 -0.4520836734693877 0.0
0.4151411873840445 -0.4151411873840446 0.0
0.37736749536178105 -0.37736749536178116 0.0
0.3387625974025974 -0.3387625974025974 0.0
0.2993264935064933 -0.29932649350649343 0.0
0.25905918367346925 -0.25905918367346925 0.0
0.21796066790352486 -0.21796066790352486 0.0
0.17603094619666027 -0.1760309461966605 0.0
0.13327001855287546 -0.13327001855287568 0.0
0.08967788497217066 -0.08967788497217066 0.0
0.045254545454545436 -0.045254545454545436 0.0
0.0 0.0 0.0
0.04525454545454545 0.04525454545454546 0.0
0.08967788497217066 0.08967788497217068 0.0
0.13327001855287568 0.1332700185528757 0.0
0.17603094619666046 0.1760309461966605 0.0
0.21796066790352497 0.21796066790352508 0.0
0.2590591836734693 0.25905918367346936 0.0
0.29932649350649343 0.2993264935064935 0.0
0.3387625974025973 0.33876259740259734 0.0
0.37736749536178094 0.377367495361781 0.0
0.41514118738404443 0.4151411873840445 0.0
0.45208367346938766 0.4520836734693878 0.0
0.48819495361781057 0.4881949536178107 0.0
0.5234750278293133 0.5234750278293134 0.0
0.5579238961038959 0.557923896103896 0.0
0.5915415584415582 0.5915415584415583 0.0
0.6243280148423003 0.6243280148423004 0.0
0.6562832653061222 0.6562832653061225 0.0
0.687407309833024 0.6874073098330241 0.0
0.7177001484230054 0.7177001484230056 0.0
0.7471617810760667 0.7471617810760669 0.0
0.7757922077922076 0.7757922077922077 0.0
0.8035914285714284 0.8035914285714285 0.0
0.8305594434137288 0.830559443413729 0.0
0.8566962523191093 0.8566962523191094 0.0
0.8820018552875692 0.8820018552875695 0.0
0.9064762523191091 0.9064762523191093 0.0
0.9301194434137288 0.9301194434137292 0.0
0.9529314285714284 0.9529314285714284 0.0
0.9749122077922076 0.9749122077922077 0.0
0.9960617810760666 0.9960617810760668 0.0
1.0163801484230053 1.0163801484230055 0.0
1.0358673098330238 1.035867309833024 0.0
1.054523265306122 1.0545232653061223 0.0
1.0723480148423001 1.0723480148423004 0.0
1.0893415584415582 1.0893415584415584 0.0
1.1055038961038959 1.105503896103896 0.0
1.120835027829313 1.1208350278293133 0.0
1.1353349536178106 1.1353349536178106 0.0
1.1490036734693874 1.1490036734693876 0.0
1.1618411873840444 1.1618411873840446 0.0
1.1738474953617808 1.173847495361781 0.0
1.1850225974025972 1.1850225974025972 0.0
1.1953664935064932 1.1953664935064934 0.0
1.2048791836734691 1.2048791836734694 0.0
1.2135606679035245 1.2135606679035247 0.0
1.22141094619666 1.2214109461966602 0.0
1.2284300185528754 1.2284300185528756 0.0
1.2346178849721703 1.2346178849721705 0.0
1.2399745454545452 1.2399745454545454 0.0
1.2444999999999997 1.2445 0.0
1.7422999999999997 -1.2445 0.0
1.7377745454545452 -1.2399745454545454 0.0
1.7324178849721703 -1.2346178849721707 0.0
1.7262300185528754 -1.2284300185528756 0.0
1.7192109461966603 -1.2214109461966605 0.0
1.7113606679035245 -1.213560667903525 0.0
1.7026791836734692 -1.2048791836734694 0.0
1.6931664935064934 -1.1953664935064934 0.0
1.6828225974025972 -1.1850225974025974 0.0
1.6716474953617806 -1.173847495361781 0.0
1.6596411873840444 -1.1618411873840444 0.0
1.6468036734693878 -1.1490036734693876 0.0
1.6331349536178106 -1.1353349536178108 0.0
1.6186350278293133 -1.1208350278293135 0.0
1.603303896103896 -1.105503896103896 0.0
1.5871415584415582 -1.0893415584415584 0.0
1.5701480148423004 -1.0723480148423006 0.0
1.552323265306122 -1.0545232653061223 0.0
1.5336673098330238 -1.035867309833024 0.0
1.5141801484230053 -1.0163801484230055 0.0
1.4938617810760666 -0.9960617810760668 0.0
1.4727122077922075 -0.9749122077922077 0.0
1.4507314285714283 -0.9529314285714284 0.0
1.4279194434137288 -0.930119443413729 0.0
1.4042762523191092 -0.9064762523191096 0.0
1.3798018552875693 -0.8820018552875695 0.0
1.3544962523191093 -0.8566962523191094 0.0
1.328359443413729 -0.8305594434137291 0.0
1.3013914285714283 -0.8035914285714285 0.0
1.2735922077922077 -0.7757922077922077 0.0
1.2449617810760665 -0.7471617810760667 0.0
1.2155001484230055 -0.7177001484230054 0.0
1.1852073098330238 -0.687407309833024 0.0
1.1540832653061224 -0.6562832653061225 0.0
1.1221280148423003 -0.6243280148423005 0.0
1.0893415584415582 -0.5915415584415583 0.0
1.055723896103896 -0.5579238961038959 0.0
1.0212750278293132 -0.5234750278293134 0.0
0.9859949536178108 -0.48819495361781057 0.0
0.9498836734693876 -0.4520836734693877 0.0
0.9129411873840445 -0.4151411873840446 0.0
0.875167495361781 -0.37736749536178116 0.0
0.8365625974025973 -0.3387625974025974 0.0
0.7971264935064933 -0.29932649350649343 0.0
0.7568591836734693 -0.25905918367346925 0.0
0.7157606679035249 -0.21796066790352486 0.0
0.6738309461966603 -0.1760309461966605 0.0
0.6310700185528755 -0.13327001855287568 0.0
0.5874778849721707 -0.08967788497217066 0.0
0.5430545454545455 -0.045254545454545436 0.0
0.4978 0.0 0.0
0.5430545454545455 0.04525454545454546 0.0
0.5874778849721707 0.08967788497217068 0.0
0.6310700185528757 0.1332700185528757 0.0
0.6738309461966605 0.1760309461966605 0.0
0.715760667903525 0.21796066790352508 0.0
0.7568591836734693 0.25905918367346936 0.0
0.7971264935064934 0.2993264935064935 0.0
0.8365625974025973 0.33876259740259734 0.0
0.875167495361781 0.377367495361781 0.0
0.9129411873840445 0.4151411873840445 0.0
0.9498836734693876 0.4520836734693878 0.0
0.9859949536178105 0.4881949536178107 0.0
1.0212750278293132 0.5234750278293134 0.0
1.055723896103896 0.557923896103896 0.0
1.0893415584415582 0.5915415584415583 0.0
1.1221280148423003 0.6243280148423004 0.0
1.1540832653061224 0.6562832653061225 0.0
1.185207309833024 0.6874073098330241 0.0
1.2155001484230055 0.7177001484230056 0.0
1.2449617810760667 0.7471617810760669 0.0
1.2735922077922077 0.7757922077922077 0.0
1.3013914285714283 0.8035914285714285 0.0
1.3283594434137287 0.830559443413729 0.0
1.3544962523191093 0.8566962523191094 0.0
1.3798018552875693 0.8820018552875695 0.0
1.4042762523191092 0.9064762523191093 0.0
1.427919443413729 0.9301194434137292 0.0
1.4507314285714283 0.9529314285714284 0.0
1.4727122077922075 0.9749122077922077 0.0
1.4938617810760666 0.9960617810760668 0.0
1.5141801484230053 1.0163801484230055 0.0
1.5336673098330238 1.035867309833024 0.0
1.552323265306122 1.0545232653061223 0.0
1.5701480148423002 1.0723480148423004 0.0
1.5871415584415582 1.0893415584415584 0.0
1.603303896103896 1.105503896103896 0.0
1.6186350278293131 1.1208350278293133 0.0
1.6331349536178106 1.1353349536178106 0.0
1.6468036734693874 1.1490036734693876 0.0
1.6596411873840444 1.1618411873840446 0.0
1.6716474953617806 1.173847495361781 0.0
1.6828225974025972 1.1850225974025972 0.0
1.6931664935064934 1.1953664935064934 0.0
1.7026791836734692 1.2048791836734694 0.0
1.7113606679035245 1.2135606679035247 0.0
1.71921094619666 1.2214109461966602 0.0
1.7262300185528754 1.2284300185528756 0.0
1.7324178849721703 1.2346178849721705 0.0
1.7377745454545452 1.2399745454545454 0.0
1.7422999999999997 1.2445 0.0
1.6155872727272724 -1.2422372727272726 0.0
1.6106462152133578 -1.237296215213358 0.0
1.604873951762523 -1.2315239517625232 0.0
1.598270482374768 -1.224920482374768 0.0
1.5908358070500925 -1.2174858070500927 0.0
1.582569925788497 -1.2092199257884972 0.0
1.5734728385899812 -1.2001228385899814 0.0
1.5635445454545454 -1.1901945454545453 0.0
1.552785046382189 -1.1794350463821892 0.0
1.5411943413729126 -1.1678443413729127 0.0
1.5287724304267158 -1.155422430426716 0.0
1.5155193135435991 -1.142169313543599 0.0
1.501434990723562 -1.1280849907235622 0.0
1.4865194619666047 -1.1131694619666048 0.0
1.4707727272727271 -1.0974227272727273 0.0
1.4541947866419294 -1.0808447866419293 0.0
1.4367856400742112 -1.0634356400742113 0.0
1.418545287569573 -1.0451952875695731 0.0
1.3994737291280146 -1.0261237291280147 0.0
1.379570964749536 -1.0062209647495362 0.0
1.358836994434137 -0.9854869944341371 0.0
1.337271818181818 -0.9639218181818181 0.0
1.3148754359925787 -0.9415254359925787 0.0
1.291647847866419 -0.9182978478664192 0.0
1.2675890538033394 -0.8942390538033393 0.0
1.2426990538033393 -0.8693490538033395 0.0
1.2169778478664193 -0.8436278478664192 0.0
1.1904254359925788 -0.8170754359925788 0.0
1.163041818181818 -0.7896918181818181 0.0
1.1348269944341371 -0.7614769944341371 0.0
1.105780964749536 -0.7324309647495362 0.0
1.0759037291280147 -0.7025537291280148 0.0
1.0451952875695731 -0.6718452875695733 0.0
1.0136556400742114 -0.6403056400742114 0.0
0.9812847866419293 -0.6079347866419293 0.0
0.9480827272727271 -0.5747327272727272 0.0
0.9140494619666047 -0.5406994619666048 0.0
0.8791849907235622 -0.5058349907235622 0.0
0.8434893135435992 -0.47013931354359917 0.0
0.8069624304267162 -0.43361243042671627 0.0
0.7696043413729128 -0.3962543413729128 0.0
0.7314150463821893 -0.3580650463821894 0.0
0.6923945454545455 -0.3190445454545454 0.0
0.6525428385899814 -0.27919283858998134 0.0
0.6118599257884971 -0.23850992578849706 0.0
0.5703458070500929 -0.19699580705009279 0.0
0.5280004823747682 -0.15465048237476808 0.0
0.4848239517625232 -0.11147395176252317 0.0
0.4408162152133581 -0.06746621521335805 0.0
0.39597727272727273 -0.022627272727272718 0.0
0.39597727272727273 0.02262727272727273 0.0
0.4408162152133581 0.06746621521335806 0.0
0.4848239517625232 0.11147395176252319 0.0
0.528000482374768 0.15465048237476808 0.0
0.5703458070500929 0.19699580705009276 0.0
0.6118599257884971 0.23850992578849717 0.0
0.6525428385899814 0.2791928385899814 0.0
0.6923945454545455 0.3190445454545454 0.0
0.7314150463821891 0.3580650463821891 0.0
0.7696043413729128 0.39625434137291277 0.0
0.8069624304267162 0.43361243042671616 0.0
0.8434893135435992 0.4701393135435992 0.0
0.8791849907235619 0.5058349907235621 0.0
0.9140494619666046 0.5406994619666047 0.0
0.9480827272727271 0.5747327272727272 0.0
0.9812847866419294 0.6079347866419295 0.0
1.0136556400742114 0.6403056400742114 0.0
1.0451952875695731 0.6718452875695732 0.0
1.0759037291280147 0.7025537291280147 0.0
1.105780964749536 0.7324309647495362 0.0
1.1348269944341371 0.7614769944341373 0.0
1.163041818181818 0.789691818181818 0.0
1.1904254359925786 0.8170754359925786 0.0
1.216977847866419 0.843627847866419 0.0
1.2426990538033393 0.8693490538033394 0.0
1.2675890538033392 0.8942390538033393 0.0
1.291647847866419 0.9182978478664192 0.0
1.3148754359925787 0.9415254359925787 0.0
1.3372718181818182 0.9639218181818181 0.0
1.3588369944341372 0.9854869944341373 0.0
1.379570964749536 1.0062209647495362 0.0
1.3994737291280148 1.0261237291280147 0.0
1.418545287569573 1.0451952875695731 0.0
1.4367856400742112 1.0634356400742113 0.0
1.4541947866419291 1.0808447866419293 0.0
1.470772727272727 1.097422727272727 0.0
1.4865194619666047 1.1131694619666048 0.0
1.501434990723562 1.128084990723562 0.0
1.5155193135435991 1.1421693135435993 0.0
1.528772430426716 1.1554224304267162 0.0
1.5411943413729128 1.1678443413729127 0.0
1.5527850463821888 1.179435046382189 0.0
1.5635445454545451 1.1901945454545453 0.0
1.573472838589981 1.2001228385899811 0.0
1.5825699257884969 1.209219925788497 0.0
1.5908358070500925 1.2174858070500927 0.0
1.5982704823747678 1.224920482374768 0.0
1.604873951762523 1.2315239517625232 0.0
1.6106462152133578 1.237296215213358 0.0
1.6155872727272724 1.2422372727272726 0.0

CELLS 200 700
4 0 101 102 1
4 1 102 103 2
4 2 103 104 3
4 3 104 105 4
4 4 105 106 5
4 5 106 107 6
4 6 107 108 7
4 7 108 109 8
4 8 109 110 9
4 9 110 111 10
4 10 111 112 11
4 11 112 113 12
4 12 113 114 13
4 13 114 115 14
4 14 115 116 15
4 15 116 117 16
4 16 117 118 17
4 17 118 119 18
4 18 119 120 19
4 19 120 121 20
4 20 121 122 21
4 21 122 123 22
4 22 123 124 23
4 23 124 125 24
4 24 125 126 25
4 25 126 127 26
4 26 127 128 27
4 27 128 129 28
4 28 129 130 29
4 29 130 131 30
4 30 131 132 31
4 31 132 133 32
4 32 133 134 33
4 33 134 135 34
4 34 135 136 35
4 35 136 137 36
4 36 137 138 37
4 37 138 139 38
4 38 139 140 39
4 39 140 141 40
4 40 141 142 41
4 41 142 143 42
4 42 143 144 43
4 43 144 145 44
4 44 145 146 45
4 45 146 147 46
4 46 147 148 47
4 47 148 149 48
4 48 149 150 49
4 49 150 151 50
4 50 151 152 51
4 51 152 153 52
4 52 153 154 53
4 53 154 155 54
4 54 155 156 55
4 55 156 157 56
4 56 157 158 57
4 57 158 159 58
4 58 159 160 59
4 59 160 161 60
4 60 161 162 61
4 61 162 163 62
4 62 163 164 63
4 63 164 165 64
4 64 165 166 65
4 65 166 167 66
4 66 167 168 67
4 67 168 169 68
4 68 169 170 69
4 69 170 171 70
4 70 171 172 71
4 71 172 173 72
4 72 173 174 73
4 73 174 175 74
4 74 175 176 75
4 75 176 177 76
4 76 177 178 77
4 77 178 179 78
4 78 179 180 79
4 79 180 181 80
4 80 181 182 81
4 81 182 183 82
4 82 183 184 83
4 83 184 185 84
4 84 185 186 85
4 85 186 187 86
4 86 187 188 87
4 87 188 189 88
4 88 189 190 89
4 89 190 191 90
4 90 191 192 91
4 91 192 193 92
4 92 193 194 93
4 93 194 195 94
4 94 195 196 95
4 95 196 197 96
4 96 197 198 97
4 97 198 199 98
4 98 199 200 99
4 99 200 201 100
1 202
1 203
1 204
1 205
1 206
1 207
1 208
1 209
1 210
1 211
1 212
1 213
1 214
1 215
1 216
1 217
1 218
1 219
1 220
1 221
1 222
1 223
1 224
1 225
1 226
1 227
1 228
1 229
1 230
1 231
1 232
1 233
1 234
1 235
1 236
1 237
1 238
1 239
1 240
1 241
1 242
1 243
1 244
1 245
1 246
1 247
1 248
1 249
1 250
1 251
1 252
1 253
1 254
1 255
1 256
1 257
1 258
1 259
1 260
1 261
1 262
1 263
1 264
1 265
1 266
1 267
1 268
1 269
1 270
1 271
1 272
1 273
1 274
1 275
1 276
1 277
1 278
1 279
1 280
1 281
1 282
1 283
1 284
1 285
1 286
1 287
1 288
1 289
1 290
1 291
1 292
1 293
1 294
1 295
1 296
1 297
1 298
1 299
1 300
1 301

CELL_TYPES 200
9
9
9
9
9
9
9
9
9
9
9
9
9
9
9
9
9
9
9
9
9
9
9
9
9
9
9
9
9
9
9
9
9
9
9
9
9
9
9
9
9
9
9
9
9
9
9
9
9
9
9
9
9
9
9
9
9
9
9
9
9
9
9
9
9
9
9
9
9
9
9
9
9
9
9
9
9
9
9
9
9
9
9
9
9
9
9
9
9
9
9
9
9
9
9
9
9
9
9
9
1
1
1
1
1
1
1
1
1
1
1
1
1
1
1
1
1
1
1
1
1
1
1
1
1
1
1
1
1
1
1
1
1
1
1
1
1
1
1
1
1
1
1
1
1
1
1
1
1
1
1
1
1
1
1
1
1
1
1
1
1
1
1
1
1
1
1
1
1
1
1
1
1
1
1
1
1
1
1
1
1
1
1
1
1
1
1
1
1
1
1
1
1
1
1
1
1
1
1
1

CELL_DATA 200

VECTORS Vinf float
49.54328443784301 0.03291705134352561 4.093520351946343
49.54544650600847 0.033754606802241294 4.060810417849758
49.547869139249606 0.03458262078639314 4.02391843943933
49.55049993135434 0.03534611226584526 3.9835266605500452
49.55328009093425 0.03599421792546771 3.940406023408587
49.55614763415075 0.03648458711050487 3.895376088588029
49.559041267088126 0.036786834706963534 3.8492565570360786
49.56190423420955 0.03688429068841186 3.8028201904125307
49.56468736335785 0.036773658105628285 3.7567572204589252
49.567350769624916 0.036462767892778414 3.711657784298192
49.56986410822036 0.035967161369042856 3.6680127864233447
49.572205692357144 0.035306482036071576 3.6262277433833496
49.57436101908173 0.03450150698497895 3.586641409623713
49.57632120658043 0.03357221372370501 3.54954218752173
49.582024845082096 0.026207485850928577 3.5089467796176352
49.58340308431762 0.02722789724501531 3.4798490223728775
49.584678193098526 0.02784434311370921 3.451959382972336
49.585832245795686 0.02803480936396775 3.425704363533435
49.58685344417852 0.02777588490797272 3.4014056234577033
49.58773432966033 0.027041301988140556 3.379300065313974
49.5884704116116 0.025801460528102265 3.359559883326012
49.58905956004535 0.024023536433970327 3.34230844301916
49.589502054499256 0.021671488839404635 3.327631006862533
49.589800611849114 0.018705357456147903 3.315583455268436
49.58995964006684 0.015079933522872202 3.3062033455400495
49.58841582945597 0.021150576738711638 3.289324719090488
49.58827052012842 0.020252093322198003 3.2826453505714106
49.5880539576008 0.019257741262453984 3.2769945942346634
49.58775696962771 0.01818702314749586 3.272582635410257
49.587373178494474 0.017057285078244302 3.269553750487131
49.58689976882104 0.015884298140735248 3.2680349115242278
49.5863380377256 0.014680324801442978 3.2681600197601495
49.585691691736486 0.013451465137166753 3.2700613990334912
49.59148919348172 0.011306154809807527 3.278429222612977
49.59086594345483 0.01028569454251892 3.281047068488583
49.5901788258504 0.009160904351753945 3.285112186646702
49.58939914047394 0.007926702569179801 3.2905953789316222
49.588495162724 0.006596393809597806 3.2975646333252575
49.587450668118336 0.005195360619592142 3.306237768336827
49.584557716598745 0.0035929146854475746 3.3170084297988867
49.58329052366688 0.0022770226417692485 3.3305370463306243
49.58192786999852 0.0010782585483148362 3.3466420182563006
49.580417672884515 1.6155579905841006e-5 3.3660367741302912
49.5787079462123 -0.0008479260018204041 3.3893940758515853
49.57678021480124 -0.0014051539184278755 3.4169268382457556
49.5780655340856 -0.002069538216323392 3.4445802373420125
49.575821895867165 -0.002332375670242855 3.47419379246327
49.57400904365601 -0.001946063505732037 3.4956320248961927
49.57301936715453 -0.0011295064653313 3.5032117226237522
49.57269401683519 -0.00041228668926420993 3.5003812982127793
49.572696005741 0.0006266996934934676 3.5003812926263382
49.573027898308176 0.0013363446453201243 3.5031626555253825
49.574024667459355 0.002144898379914508 3.495540886068687
49.57584559957203 0.002522344520580668 3.4740600501357224
49.57809817347238 0.002249121714264177 3.444399175881702
49.57690814556275 0.001633599021847006 3.4166407159000705
49.57883880573985 0.001074794287839629 3.389039498380109
49.580551570085035 0.00020595587682229775 3.3656147929579716
49.58206436287027 -0.0008634639913786365 3.3461547586957034
49.58342873991094 -0.00207127542218482 3.3299867642271708
49.58469655045912 -0.0033967611131404504 3.3163970243383534
49.58761231084319 -0.005063610511953645 3.305536122653554
49.58866348026732 -0.006480232908668415 3.2967976789252647
49.5895746958602 -0.007821455428297232 3.2897600242566454
49.59036469220654 -0.009062712279729785 3.284205809175643
49.5910664650431 -0.01019298953087378 3.280068417883205
49.59170822918461 -0.011219859666418213 3.277378491761382
49.58574711442973 -0.01297590352880175 3.270115649113308
49.58633097284859 -0.014171743086110218 3.2679636099816944
49.58682704399265 -0.015342757271934194 3.267611444204183
49.587231449342895 -0.016483179259948078 3.2689227803119003
49.58754319131893 -0.017580837309476162 3.2717561460274935
49.58776576764805 -0.018620054473201957 3.2759737115876386
49.58790639049239 -0.01958358973993653 3.2814199457237576
49.58797506859002 -0.02045194822648082 3.2878752942759197
49.589904974652214 -0.015030822335206794 3.303118535115753
49.58979368238383 -0.018697228119455556 3.312519611471802
49.58953336580486 -0.021692016986625182 3.324573157619838
49.589121954189785 -0.024061397299501474 3.3392371258572386
49.58855897088908 -0.025846842514577133 3.356453123342176
49.58784593727615 -0.027086369158221043 3.376135239084464
49.58698610409016 -0.027814969093347477 3.3981608095019387
49.58598438718206 -0.02806425801324456 3.422359111486319
49.58484816425362 -0.027862117926316796 3.448495129061132
49.58358891257511 -0.02723309240983143 3.4762494252686915
49.582224214235595 -0.026199899072418847 3.505198121332286
49.57566832134285 -0.032371340005660505 3.5481945577378897
49.57378316353964 -0.03337684748653048 3.5849602596996992
49.57169135427856 -0.034248510273970724 3.624242071402709
49.56940292652781 -0.03496725193700831 3.665750074638065
49.56693353343738 -0.035513129544058095 3.709143983805487
49.56430598824485 -0.03586728764436593 3.754016647660774
49.561551716817334 -0.03601493475711071 3.7998754507875474
49.55871162077858 -0.03594894996552303 3.8461285667202625
49.55583581022848 -0.035673293635019955 3.892084206907361
49.552981891240854 -0.03520524479595949 3.9369682665685706
49.55021191788084 -0.03457573721612388 3.97995994875536
49.54758854513481 -0.03382760705357385 4.020238833608741
49.54517115044946 -0.03301214017426617 4.057033318144499
49.543012645666366 -0.03218467944148471 4.089660648786326
49.54328443784301 0.03291705134352561 4.093520351946343
49.54544650600847 0.033754606802241294 4.060810417849758
49.547869139249606 0.03458262078639314 4.02391843943933
49.55049993135434 0.03534611226584526 3.9835266605500452
49.55328009093425 0.03599421792546771 3.940406023408587
49.55614763415075 0.03648458711050487 3.895376088588029
49.559041267088126 0.036786834706963534 3.8492565570360786
49.56190423420955 0.03688429068841186 3.8028201904125307
49.56468736335785 0.036773658105628285 3.7567572204589252
49.567350769624916 0.036462767892778414 3.711657784298192
49.56986410822036 0.035967161369042856 3.6680127864233447
49.572205692357144 0.035306482036071576 3.6262277433833496
49.57436101908173 0.03450150698497895 3.586641409623713
49.57632120658043 0.03357221372370501 3.54954218752173
49.582024845082096 0.026207485850928577 3.5089467796176352
49.58340308431762 0.02722789724501531 3.4798490223728775
49.584678193098526 0.02784434311370921 3.451959382972336
49.585832245795686 0.02803480936396775 3.425704363533435
49.58685344417852 0.02777588490797272 3.4014056234577033
49.58773432966033 0.027041301988140556 3.379300065313974
49.5884704116116 0.025801460528102265 3.359559883326012
49.58905956004535 0.024023536433970327 3.34230844301916
49.589502054499256 0.021671488839404635 3.327631006862533
49.589800611849114 0.018705357456147903 3.315583455268436
49.58995964006684 0.015079933522872202 3.3062033455400495
49.58841582945597 0.021150576738711638 3.289324719090488
49.58827052012842 0.020252093322198003 3.2826453505714106
49.5880539576008 0.019257741262453984 3.2769945942346634
49.58775696962771 0.01818702314749586 3.272582635410257
49.587373178494474 0.017057285078244302 3.269553750487131
49.58689976882104 0.015884298140735248 3.2680349115242278
49.5863380377256 0.014680324801442978 3.2681600197601495
49.585691691736486 0.013451465137166753 3.2700613990334912
49.59148919348172 0.011306154809807527 3.278429222612977
49.59086594345483 0.01028569454251892 3.281047068488583
49.5901788258504 0.009160904351753945 3.285112186646702
49.58939914047394 0.007926702569179801 3.2905953789316222
49.588495162724 0.006596393809597806 3.2975646333252575
49.587450668118336 0.005195360619592142 3.306237768336827
49.584557716598745 0.0035929146854475746 3.3170084297988867
49.58329052366688 0.0022770226417692485 3.3305370463306243
49.58192786999852 0.0010782585483148362 3.3466420182563006
49.580417672884515 1.6155579905841006e-5 3.3660367741302912
49.5787079462123 -0.0008479260018204041 3.3893940758515853
49.57678021480124 -0.0014051539184278755 3.4169268382457556
49.5780655340856 -0.002069538216323392 3.4445802373420125
49.575821895867165 -0.002332375670242855 3.47419379246327
49.57400904365601 -0.001946063505732037 3.4956320248961927
49.57301936715453 -0.0011295064653313 3.5032117226237522
49.57269401683519 -0.00041228668926420993 3.5003812982127793
49.572696005741 0.0006266996934934676 3.5003812926263382
49.573027898308176 0.0013363446453201243 3.5031626555253825
49.574024667459355 0.002144898379914508 3.495540886068687
49.57584559957203 0.002522344520580668 3.4740600501357224
49.57809817347238 0.002249121714264177 3.444399175881702
49.57690814556275 0.001633599021847006 3.4166407159000705
49.57883880573985 0.001074794287839629 3.389039498380109
49.580551570085035 0.00020595587682229775 3.3656147929579716
49.58206436287027 -0.0008634639913786365 3.3461547586957034
49.58342873991094 -0.00207127542218482 3.3299867642271708
49.58469655045912 -0.0033967611131404504 3.3163970243383534
49.58761231084319 -0.005063610511953645 3.305536122653554
49.58866348026732 -0.006480232908668415 3.2967976789252647
49.5895746958602 -0.007821455428297232 3.2897600242566454
49.59036469220654 -0.009062712279729785 3.284205809175643
49.5910664650431 -0.01019298953087378 3.280068417883205
49.59170822918461 -0.011219859666418213 3.277378491761382
49.58574711442973 -0.01297590352880175 3.270115649113308
49.58633097284859 -0.014171743086110218 3.2679636099816944
49.58682704399265 -0.015342757271934194 3.267611444204183
49.587231449342895 -0.016483179259948078 3.2689227803119003
49.58754319131893 -0.017580837309476162 3.2717561460274935
49.58776576764805 -0.018620054473201957 3.2759737115876386
49.58790639049239 -0.01958358973993653 3.2814199457237576
49.58797506859002 -0.02045194822648082 3.2878752942759197
49.589904974652214 -0.015030822335206794 3.303118535115753
49.58979368238383 -0.018697228119455556 3.312519611471802
49.58953336580486 -0.021692016986625182 3.324573157619838
49.589121954189785 -0.024061397299501474 3.3392371258572386
49.58855897088908 -0.025846842514577133 3.356453123342176
49.58784593727615 -0.027086369158221043 3.376135239084464
49.58698610409016 -0.027814969093347477 3.3981608095019387
49.58598438718206 -0.02806425801324456 3.422359111486319
49.58484816425362 -0.027862117926316796 3.448495129061132
49.58358891257511 -0.02723309240983143 3.4762494252686915
49.582224214235595 -0.026199899072418847 3.505198121332286
49.57566832134285 -0.032371340005660505 3.5481945577378897
49.57378316353964 -0.03337684748653048 3.5849602596996992
49.57169135427856 -0.034248510273970724 3.624242071402709
49.56940292652781 -0.03496725193700831 3.665750074638065
49.56693353343738 -0.035513129544058095 3.709143983805487
49.56430598824485 -0.03586728764436593 3.754016647660774
49.561551716817334 -0.03601493475711071 3.7998754507875474
49.55871162077858 -0.03594894996552303 3.8461285667202625
49.55583581022848 -0.035673293635019955 3.892084206907361
49.552981891240854 -0.03520524479595949 3.9369682665685706
49.55021191788084 -0.03457573721612388 3.97995994875536
49.54758854513481 -0.03382760705357385 4.020238833608741
49.54517115044946 -0.03301214017426617 4.057033318144499
49.543012645666366 -0.03218467944148471 4.089660648786326

VECTORS L float
-0.006338493473216423 0.0 0.08631385742080862
-0.011441529188989195 0.0 0.1558039813825511
-0.016911400982842904 0.0 0.2302894622179861
-0.022931947379148315 0.0 0.312273704284638
-0.029543805318312546 0.0 0.40231007741638597
-0.03674912961005015 0.0 0.50042792453821
-0.04453425876701382 0.0 0.6064412115907497
-0.05287676928437023 0.0 0.720044588539768
-0.061748164156992504 0.0 0.8408500000140897
-0.07111506253454399 0.0 0.9684028853253239
-0.08093983900834831 0.0 1.1021908838985783
-0.0911810959159596 0.0 1.2416502668369145
-0.10179413478797746 0.0 1.386172356805401
-0.11273139103784031 0.0 1.5351094473797748
-0.12394175812030088 0.0 1.6877655998360492
-0.13538307908655306 0.0 1.8435667457644487
-0.1470064135773 0.0 2.0018464442808224
-0.15876068284675823 0.0 2.1619091352178508
-0.17060013249164035 0.0 2.3231317621570935
-0.18248308982360995 0.0 2.484946851061604
-0.19437187943757503 0.0 2.6468413605348546
-0.20623260457640702 0.0 2.8083537045747153
-0.21803473930799708 0.0 2.969068199081675
-0.2297502945779844 0.0 3.1286037056578384
-0.241351607947544 0.0 3.2865835335626166
-0.2528006995419202 0.0 3.442490495311573
-0.2641164045719124 0.0 3.5965810776718397
-0.2752695243072405 0.0 3.7484576695938987
-0.28624254347771855 0.0 3.897881758481668
-0.2970217212349677 0.0 4.044666229584173
-0.3075947353682628 0.0 4.188643286319445
-0.31794952038622587 0.0 4.329648627957836
-0.32807391207463116 0.0 4.467516609420312
-0.33796140383886525 0.0 4.602158627747494
-0.3475439229605663 0.0 4.73264770889866
-0.35681983858840755 0.0 4.858961644904444
-0.3657702426911382 0.0 4.980842957371852
-0.3743694782531937 0.0 5.097942264228843
-0.3825863477468497 0.0 5.209834735983795
-0.3904125309960267 0.0 5.316407073396931
-0.39774729011354687 0.0 5.416287487467052
-0.40455538864799445 0.0 5.50899614902712
-0.4107649978681813 0.0 5.593554936873939
-0.4162882362044471 0.0 5.668767131738861
-0.4210156239823361 0.0 5.733141904128825
-0.4248060321924101 0.0 5.784757442614972
-0.42756301177852846 0.0 5.822300360962024
-0.42918133905955824 0.0 5.844337785278268
-0.42968353152590655 0.0 5.851176345437927
-0.4280868700533508 0.0 5.829433953294776
-0.4280815529443648 0.0 5.829361548047559
-0.42967053179179254 0.0 5.850999322742933
-0.4291604008943582 0.0 5.84405266172117
-0.42753406235195496 0.0 5.821906144783017
-0.42476903517407116 0.0 5.7842536390882495
-0.4209703317305781 0.0 5.732525141016733
-0.4162352205915354 0.0 5.668045196459874
-0.4107047630936341 0.0 5.592734695319062
-0.40448846916791453 0.0 5.508084879103644
-0.3976742313844398 0.0 5.415292616879247
-0.39033386264099224 0.0 5.31533581423911
-0.3825024149182097 0.0 5.208691788336255
-0.3742812265581518 0.0 5.0967405048115335
-0.3656783579867892 0.0 4.979591725781279
-0.35672508252948754 0.0 4.857671312904586
-0.3474472483876733 0.0 4.731331251709556
-0.3378643294713398 0.0 4.600836726391404
-0.32798023429255035 0.0 4.46624096075708