# vtk DataFile Version 4.0
[MyVLM domain - lattices] 
ASCII
DATASET UNSTRUCTURED_GRID
POINTS 302 float
1.2444999999999997 -1.2445 0.0
1.2399745454545452 -1.2399745454545454 0.0
1.2346178849721705 -1.2346178849721707 0.0
1.2284300185528754 -1.2284300185528756 0.0
1.2214109461966602 -1.2214109461966605 0.0
1.2135606679035247 -1.213560667903525 0.0
1.2048791836734691 -1.2048791836734694 0.0
1.1953664935064932 -1.1953664935064934 0.0
1.1850225974025972 -1.1850225974025974 0.0
1.1738474953617808 -1.173847495361781 0.0
1.1618411873840442 -1.1618411873840444 0.0
1.1490036734693874 -1.1490036734693876 0.0
1.1353349536178106 -1.1353349536178108 0.0
1.1208350278293133 -1.1208350278293135 0.0
1.1055038961038959 -1.105503896103896 0.0
1.0893415584415582 -1.0893415584415584 0.0
1.0723480148423004 -1.0723480148423006 0.0
1.054523265306122 -1.0545232653061223 0.0
1.0358673098330238 -1.035867309833024 0.0
1.0163801484230053 -1.0163801484230055 0.0
0.9960617810760664 -0.9960617810760668 0.0
0.9749122077922076 -0.9749122077922077 0.0
0.9529314285714284 -0.9529314285714284 0.0
0.9301194434137288 -0.930119443413729 0.0
0.9064762523191091 -0.9064762523191096 0.0
0.8820018552875695 -0.8820018552875695 0.0
0.8566962523191093 -0.8566962523191094 0.0
0.8305594434137288 -0.8305594434137291 0.0
0.8035914285714284 -0.8035914285714285 0.0
0.7757922077922076 -0.7757922077922077 0.0
0.7471617810760666 -0.7471617810760667 0.0
0.7177001484230053 -0.7177001484230054 0.0
0.6874073098330239 -0.687407309833024 0.0
0.6562832653061222 -0.6562832653061225 0.0
0.6243280148423004 -0.6243280148423005 0.0
0.5915415584415582 -0.5915415584415583 0.0
0.5579238961038958 -0.5579238961038959 0.0
0.5234750278293133 -0.5234750278293134 0.0
0.48819495361781057 -0.48819495361781057 0.0
0.4520836734693877 -0.4520836734693877 0.0
0.4151411873840445 -0.4151411873840446 0.0
0.37736749536178105 -0.37736749536178116 0.0
0.3387625974025974 -0.3387625974025974 0.0
0.2993264935064933 -0.29932649350649343 0.0
0.25905918367346925 -0.25905918367346925 0.0
0.21796066790352486 -0.21796066790352486 0.0
0.17603094619666027 -0.1760309461966605 0.0
0.13327001855287546 -0.13327001855287568 0.0
0.08967788497217066 -0.08967788497217066 0.0
0.045254545454545436 -0.045254545454545436 0.0
0.0 0.0 0.0
0.04525454545454545 0.04525454545454546 0.0
0.08967788497217066 0.08967788497217068 0.0
0.13327001855287568 0.1332700185528757 0.0
0.17603094619666046 0.1760309461966605 0.0
0.21796066790352497 0.21796066790352508 0.0
0.2590591836734693 0.25905918367346936 0.0
0.29932649350649343 0.2993264935064935 0.0
0.3387625974025973 0.33876259740259734 0.0
0.37736749536178094 0.377367495361781 0.0
0.41514118738404443 0.4151411873840445 0.0
0.45208367346938766 0.4520836734693878 0.0
0.48819495361781057 0.4881949536178107 0.0
0.5234750278293133 0.5234750278293134 0.0
0.5579238961038959 0.557923896103896 0.0
0.5915415584415582 0.5915415584415583 0.0
0.6243280148423003 0.6243280148423004 0.0
0.6562832653061222 0.6562832653061225 0.0
0.687407309833024 0.6874073098330241 0.0
0.7177001484230054 0.7177001484230056 0.0
0.7471617810760667 0.7471617810760669 0.0
0.7757922077922076 0.7757922077922077 0.0
0.8035914285714284 0.8035914285714285 0.0
0.8305594434137288 0.830559443413729 0.0
0.8566962523191093 0.8566962523191094 0.0
0.8820018552875692 0.8820018552875695 0.0
0.9064762523191091 0.9064762523191093 0.0
0.9301194434137288 0.9301194434137292 0.0
0.9529314285714284 0.9529314285714284 0.0
0.9749122077922076 0.9749122077922077 0.0
0.9960617810760666 0.9960617810760668 0.0
1.0163801484230053 1.0163801484230055 0.0
1.0358673098330238 1.035867309833024 0.0
1.054523265306122 1.0545232653061223 0.0
1.0723480148423001 1.0723480148423004 0.0
1.0893415584415582 1.0893415584415584 0.0
1.1055038961038959 1.105503896103896 0.0
1.120835027829313 1.1208350278293133 0.0
1.1353349536178106 1.1353349536178106 0.0
1.1490036734693874 1.1490036734693876 0.0
1.1618411873840444 1.1618411873840446 0.0
1.1738474953617808 1.173847495361781 0.0
1.1850225974025972 1.1850225974025972 0.0
1.1953664935064932 1.1953664935064934 0.0
1.2048791836734691 1.2048791836734694 0.0
1.2135606679035245 1.2135606679035247 0.0
1.22141094619666 1.2214109461966602 0.0
1.2284300185528754 1.2284300185528756 0.0
1.2346178849721703 1.2346178849721705 0.0
1.2399745454545452 1.2399745454545454 0.0
1.2444999999999997 1.2445 0.0
1.7422999999999997 -1.2445 0.0
1.7377745454545452 -1.2399745454545454 0.0
1.7324178849721703 -1.2346178849721707 0.0
1.7262300185528754 -1.2284300185528756 0.0
1.7192109461966603 -1.2214109461966605 0.0
1.7113606679035245 -1.213560667903525 0.0
1.7026791836734692 -1.2048791836734694 0.0
1.6931664935064934 -1.1953664935064934 0.0
1.6828225974025972 -1.1850225974025974 0.0
1.6716474953617806 -1.173847495361781 0.0
1.6596411873840444 -1.1618411873840444 0.0
1.6468036734693878 -1.1490036734693876 0.0
1.6331349536178106 -1.1353349536178108 0.0
1.6186350278293133 -1.1208350278293135 0.0
1.603303896103896 -1.105503896103896 0.0
1.5871415584415582 -1.0893415584415584 0.0
1.5701480148423004 -1.0723480148423006 0.0
1.552323265306122 -1.0545232653061223 0.0
1.5336673098330238 -1.035867309833024 0.0
1.5141801484230053 -1.0163801484230055 0.0
1.4938617810760666 -0.9960617810760668 0.0
1.4727122077922075 -0.9749122077922077 0.0
1.4507314285714283 -0.9529314285714284 0.0
1.4279194434137288 -0.930119443413729 0.0
1.4042762523191092 -0.9064762523191096 0.0
1.3798018552875693 -0.8820018552875695 0.0
1.3544962523191093 -0.8566962523191094 0.0
1.328359443413729 -0.8305594434137291 0.0
1.3013914285714283 -0.8035914285714285 0.0
1.2735922077922077 -0.7757922077922077 0.0
1.2449617810760665 -0.7471617810760667 0.0
1.2155001484230055 -0.7177001484230054 0.0
1.1852073098330238 -0.687407309833024 0.0
1.1540832653061224 -0.6562832653061225 0.0
1.1221280148423003 -0.6243280148423005 0.0
1.0893415584415582 -0.5915415584415583 0.0
1.055723896103896 -0.5579238961038959 0.0
1.0212750278293132 -0.5234750278293134 0.0
0.9859949536178108 -0.48819495361781057 0.0
0.9498836734693876 -0.4520836734693877 0.0
0.9129411873840445 -0.4151411873840446 0.0
0.875167495361781 -0.37736749536178116 0.0
0.8365625974025973 -0.3387625974025974 0.0
0.7971264935064933 -0.29932649350649343 0.0
0.7568591836734693 -0.25905918367346925 0.0
0.7157606679035249 -0.21796066790352486 0.0
0.6738309461966603 -0.1760309461966605 0.0
0.6310700185528755 -0.13327001855287568 0.0
0.5874778849721707 -0.08967788497217066 0.0
0.5430545454545455 -0.045254545454545436 0.0
0.4978 0.0 0.0
0.5430545454545455 0.04525454545454546 0.0
0.5874778849721707 0.08967788497217068 0.0
0.6310700185528757 0.1332700185528757 0.0
0.6738309461966605 0.1760309461966605 0.0
0.715760667903525 0.21796066790352508 0.0
0.7568591836734693 0.25905918367346936 0.0
0.7971264935064934 0.2993264935064935 0.0
0.8365625974025973 0.33876259740259734 0.0
0.875167495361781 0.377367495361781 0.0
0.9129411873840445 0.4151411873840445 0.0
0.9498836734693876 0.4520836734693878 0.0
0.9859949536178105 0.4881949536178107 0.0
1.0212750278293132 0.5234750278293134 0.0
1.055723896103896 0.557923896103896 0.0
1.0893415584415582 0.5915415584415583 0.0
1.1221280148423003 0.6243280148423004 0.0
1.1540832653061224 0.6562832653061225 0.0
1.185207309833024 0.6874073098330241 0.0
1.2155001484230055 0.7177001484230056 0.0
1.2449617810760667 0.7471617810760669 0.0
1.2735922077922077 0.7757922077922077 0.0
1.3013914285714283 0.8035914285714285 0.0
1.3283594434137287 0.830559443413729 0.0
1.3544962523191093 0.8566962523191094 0.0
1.3798018552875693 0.8820018552875695 0.0
1.4042762523191092 0.9064762523191093 0.0
1.427919443413729 0.9301194434137292 0.0
1.4507314285714283 0.9529314285714284 0.0
1.4727122077922075 0.9749122077922077 0.0
1.4938617810760666 0.9960617810760668 0.0
1.5141801484230053 1.0163801484230055 0.0
1.5336673098330238 1.035867309833024 0.0
1.552323265306122 1.0545232653061223 0.0
1.5701480148423002 1.0723480148423004 0.0
1.5871415584415582 1.0893415584415584 0.0
1.603303896103896 1.105503896103896 0.0
1.6186350278293131 1.1208350278293133 0.0
1.6331349536178106 1.1353349536178106 0.0
1.6468036734693874 1.1490036734693876 0.0
1.6596411873840444 1.1618411873840446 0.0
1.6716474953617806 1.173847495361781 0.0
1.6828225974025972 1.1850225974025972 0.0
1.6931664935064934 1.1953664935064934 0.0
1.7026791836734692 1.2048791836734694 0.0
1.7113606679035245 1.2135606679035247 0.0
1.71921094619666 1.2214109461966602 0.0
1.7262300185528754 1.2284300185528756 0.0
1.7324178849721703 1.2346178849721705 0.0
1.7377745454545452 1.2399745454545454 0.0
1.7422999999999997 1.2445 0.0
1.6155872727272724 -1.2422372727272726 0.0
1.6106462152133578 -1.237296215213358 0.0
1.604873951762523 -1.2315239517625232 0.0
1.598270482374768 -1.224920482374768 0.0
1.5908358070500925 -1.2174858070500927 0.0
1.582569925788497 -1.2092199257884972 0.0
1.5734728385899812 -1.2001228385899814 0.0
1.5635445454545454 -1.1901945454545453 0.0
1.552785046382189 -1.1794350463821892 0.0
1.5411943413729126 -1.1678443413729127 0.0
1.5287724304267158 -1.155422430426716 0.0
1.5155193135435991 -1.142169313543599 0.0
1.501434990723562 -1.1280849907235622 0.0
1.4865194619666047 -1.1131694619666048 0.0
1.4707727272727271 -1.0974227272727273 0.0
1.4541947866419294 -1.0808447866419293 0.0
1.4367856400742112 -1.0634356400742113 0.0
1.418545287569573 -1.0451952875695731 0.0
1.3994737291280146 -1.0261237291280147 0.0
1.379570964749536 -1.0062209647495362 0.0
1.358836994434137 -0.9854869944341371 0.0
1.337271818181818 -0.9639218181818181 0.0
1.3148754359925787 -0.9415254359925787 0.0
1.291647847866419 -0.9182978478664192 0.0
1.2675890538033394 -0.8942390538033393 0.0
1.2426990538033393 -0.8693490538033395 0.0
1.2169778478664193 -0.8436278478664192 0.0
1.1904254359925788 -0.8170754359925788 0.0
1.163041818181818 -0.7896918181818181 0.0
1.1348269944341371 -0.7614769944341371 0.0
1.105780964749536 -0.7324309647495362 0.0
1.0759037291280147 -0.7025537291280148 0.0
1.0451952875695731 -0.6718452875695733 0.0
1.0136556400742114 -0.6403056400742114 0.0
0.9812847866419293 -0.6079347866419293 0.0
0.9480827272727271 -0.5747327272727272 0.0
0.9140494619666047 -0.5406994619666048 0.0
0.8791849907235622 -0.5058349907235622 0.0
0.8434893135435992 -0.47013931354359917 0.0
0.8069624304267162 -0.43361243042671627 0.0
0.7696043413729128 -0.3962543413729128 0.0
0.7314150463821893 -0.3580650463821894 0.0
0.6923945454545455 -0.3190445454545454 0.0
0.6525428385899814 -0.27919283858998134 0.0
0.6118599257884971 -0.23850992578849706 0.0
0.5703458070500929 -0.19699580705009279 0.0
0.5280004823747682 -0.15465048237476808 0.0
0.4848239517625232 -0.11147395176252317 0.0
0.4408162152133581 -0.06746621521335805 0.0
0.39597727272727273 -0.022627272727272718 0.0
0.39597727272727273 0.02262727272727273 0.0
0.4408162152133581 0.06746621521335806 0.0
0.4848239517625232 0.11147395176252319 0.0
0.528000482374768 0.15465048237476808 0.0
0.5703458070500929 0.19699580705009276 0.0
0.6118599257884971 0.23850992578849717 0.0
0.6525428385899814 0.2791928385899814 0.0
0.6923945454545455 0.3190445454545454 0.0
0.7314150463821891 0.3580650463821891 0.0
0.7696043413729128 0.39625434137291277 0.0
0.8069624304267162 0.43361243042671616 0.0
0.8434893135435992 0.4701393135435992 0.0
0.8791849907235619 0.5058349907235621 0.0
0.9140494619666046 0.5406994619666047 0.0
0.9480827272727271 0.5747327272727272 0.0
0.9812847866419294 0.6079347866419295 0.0
1.0136556400742114 0.6403056400742114 0.0
1.0451952875695731 0.6718452875695732 0.0
1.0759037291280147 0.7025537291280147 0.0
1.105780964749536 0.7324309647495362 0.0
1.1348269944341371 0.7614769944341373 0.0
1.163041818181818 0.789691818181818 0.0
1.1904254359925786 0.8170754359925786 0.0
1.216977847866419 0.843627847866419 0.0
1.2426990538033393 0.8693490538033394 0.0
1.2675890538033392 0.8942390538033393 0.0
1.291647847866419 0.9182978478664192 0.0
1.3148754359925787 0.9415254359925787 0.0
1.3372718181818182 0.9639218181818181 0.0
1.3588369944341372 0.9854869944341373 0.0
1.379570964749536 1.0062209647495362 0.0
1.3994737291280148 1.0261237291280147 0.0
1.418545287569573 1.0451952875695731 0.0
1.4367856400742112 1.0634356400742113 0.0
1.4541947866419291 1.0808447866419293 0.0
1.470772727272727 1.097422727272727 0.0
1.4865194619666047 1.1131694619666048 0.0
1.501434990723562 1.128084990723562 0.0
1.5155193135435991 1.1421693135435993 0.0
1.528772430426716 1.1554224304267162 0.0
1.5411943413729128 1.1678443413729127 0.0
1.5527850463821888 1.179435046382189 0.0
1.5635445454545451 1.1901945454545453 0.0
1.573472838589981 1.2001228385899811 0.0
1.5825699257884969 1.209219925788497 0.0
1.5908358070500925 1.2174858070500927 0.0
1.5982704823747678 1.224920482374768 0.0
1.604873951762523 1.2315239517625232 0.0
1.6106462152133578 1.237296215213358 0.0
1.6155872727272724 1.2422372727272726 0.0

CELLS 200 700
4 0 101 102 1
4 1 102 103 2
4 2 103 104 3
4 3 104 105 4
4 4 105 106 5
4 5 106 107 6
4 6 107 108 7
4 7 108 109 8
4 8 109 110 9
4 9 110 111 10
4 10 111 112 11
4 11 112 113 12
4 12 113 114 13
4 13 114 115 14
4 14 115 116 15
4 15 116 117 16
4 16 117 118 17
4 17 118 119 18
4 18 119 120 19
4 19 120 121 20
4 20 121 122 21
4 21 122 123 22
4 22 123 124 23
4 23 124 125 24
4 24 125 126 25
4 25 126 127 26
4 26 127 128 27
4 27 128 129 28
4 28 129 130 29
4 29 130 131 30
4 30 131 132 31
4 31 132 133 32
4 32 133 134 33
4 33 134 135 34
4 34 135 136 35
4 35 136 137 36
4 36 137 138 37
4 37 138 139 38
4 38 139 140 39
4 39 140 141 40
4 40 141 142 41
4 41 142 143 42
4 42 143 144 43
4 43 144 145 44
4 44 145 146 45
4 45 146 147 46
4 46 147 148 47
4 47 148 149 48
4 48 149 150 49
4 49 150 151 50
4 50 151 152 51
4 51 152 153 52
4 52 153 154 53
4 53 154 155 54
4 54 155 156 55
4 55 156 157 56
4 56 157 158 57
4 57 158 159 58
4 58 159 160 59
4 59 160 161 60
4 60 161 162 61
4 61 162 163 62
4 62 163 164 63
4 63 164 165 64
4 64 165 166 65
4 65 166 167 66
4 66 167 168 67
4 67 168 169 68
4 68 169 170 69
4 69 170 171 70
4 70 171 172 71
4 71 172 173 72
4 72 173 174 73
4 73 174 175 74
4 74 175 176 75
4 75 176 177 76
4 76 177 178 77
4 77 178 179 78
4 78 179 180 79
4 79 180 181 80
4 80 181 182 81
4 81 182 183 82
4 82 183 184 83
4 83 184 185 84
4 84 185 186 85
4 85 186 187 86
4 86 187 188 87
4 87 188 189 88
4 88 189 190 89
4 89 190 191 90
4 90 191 192 91
4 91 192 193 92
4 92 193 194 93
4 93 194 195 94
4 94 195 196 95
4 95 196 197 96
4 96 197 198 97
4 97 198 199 98
4 98 199 200 99
4 99 200 201 100
1 202
1 203
1 204
1 205
1 206
1 207
1 208
1 209
1 210
1 211
1 212
1 213
1 214
1 215
1 216
1 217
1 218
1 219
1 220
1 221
1 222
1 223
1 224
1 225
1 226
1 227
1 228
1 229
1 230
1 231
1 232
1 233
1 234
1 235
1 236
1 237
1 238
1 239
1 240
1 241
1 242
1 243
1 244
1 245
1 246
1 247
1 248
1 249
1 250
1 251
1 252
1 253
1 254
1 255
1 256
1 257
1 258
1 259
1 260
1 261
1 262
1 263
1 264
1 265
1 266
1 267
1 268
1 269
1 270
1 271
1 272
1 273
1 274
1 275
1 276
1 277
1 278
1 279
1 280
1 281
1 282
1 283
1 284
1 285
1 286
1 287
1 288
1 289
1 290
1 291
1 292
1 293
1 294
1 295
1 296
1 297
1 298
1 299
1 300
1 301

CELL_TYPES 200
9
9
9
9
9
9
9
9
9
9
9
9
9
9
9
9
9
9
9
9
9
9
9
9
9
9
9
9
9
9
9
9
9
9
9
9
9
9
9
9
9
9
9
9
9
9
9
9
9
9
9
9
9
9
9
9
9
9
9
9
9
9
9
9
9
9
9
9
9
9
9
9
9
9
9
9
9
9
9
9
9
9
9
9
9
9
9
9
9
9
9
9
9
9
9
9
9
9
9
9
1
1
1
1
1
1
1
1
1
1
1
1
1
1
1
1
1
1
1
1
1
1
1
1
1
1
1
1
1
1
1
1
1
1
1
1
1
1
1
1
1
1
1
1
1
1
1
1
1
1
1
1
1
1
1
1
1
1
1
1
1
1
1
1
1
1
1
1
1
1
1
1
1
1
1
1
1
1
1
1
1
1
1
1
1
1
1
1
1
1
1
1
1
1
1
1
1
1
1
1

CELL_DATA 200

VECTORS Vinf float
49.52957152897037 0.02993322461885208 4.319146893861581
49.53203483824662 0.030903622062306613 4.283919571428033
49.53479372599406 0.03189788939196409 4.2441907971483435
49.537787731726766 0.0328664300023612 4.200704957136281
49.540948618529896 0.03376478881003528 4.154310203273906
49.54420367228278 0.034558129535114335 4.105918175492334
49.547479727535695 0.03522470330962259 4.056454662914868
49.5507071501447 0.03575751437141913 4.00681149092868
49.553822961452106 0.03616378644192893 3.9578103605128097
49.55687095790006 0.033736300930867685 3.9077198214682336
49.55974372521989 0.0333435909595759 3.8604030150421442
49.562430285017776 0.03277214229291884 3.81489828253689
49.56491720617307 0.032044942399941 3.7715027773337138
49.567198164257285 0.03118486109320424 3.730444349905774
49.56927243014687 0.030213649319650534 3.6918921517353276
49.571143587311134 0.029151664013976123 3.6559623956810974
49.57281848133639 0.028017983030970816 3.6227217467005453
49.574306408471294 0.026830625974626928 3.5921905880853027
49.57561854481426 0.02560665051912903 3.564347209836034
49.576565888226995 0.018505146168867448 3.5352756794125564
49.57753823882566 0.01901561436072508 3.5148129846655727
49.57840564264908 0.01913685395044323 3.4959041361941594
49.579166882047545 0.018846885649681296 3.478666992155412
49.579822762293645 0.018118949537432295 3.463161454696498
49.58037501864421 0.016921970587455842 3.4494061028083483
49.5808259412146 0.015221171136966824 3.4373917623952988
49.58117799723563 0.012978147702312356 3.427094212345154
49.58143268058981 0.010150642450003708 3.4184873996955623
49.58192311986445 0.013766061757324527 3.4115730455240696
49.58185693000285 0.008815711692691703 3.405805737256777
49.582008443403794 0.009189070935417652 3.4026498310466535
49.58210556220178 0.009233127704513877 3.400466891505154
49.582152052337015 0.008936077249820014 3.399396733763882
49.58215642929362 0.008276721441854198 3.3994947131865327
49.58212561987247 0.007224015635788582 3.4007496799499224
49.58205890851469 0.005739718726105577 3.403132748875973
49.58194395664036 0.0037832604018945867 3.406660335787236
49.58184067572949 0.005430582661250021 3.411946426179612
49.58155608224942 0.00418020537711645 3.4192859583186426
49.581143528920265 0.002884073937921591 3.428300255013479
49.580573872831124 0.0015663466676382755 3.439425455954167
49.57981766483293 0.00025366487918712834 3.4532165601681837
49.57884161330568 -0.0010217252048271065 3.470331927334662
49.578013758486485 -0.0006473332252348807 3.4912601211883456
49.576458530957424 -0.0017235216532254939 3.5164871598301675
49.57463721428905 -0.0024679128289118086 3.5452655540960256
49.57278860432288 -0.0026532358518744576 3.573169027656344
49.57141433653056 -0.0021374371762351353 3.5922000805294116
49.570952666040746 -0.0011771038168260973 3.5963805687932178
49.57121963220138 -0.00036868073168344655 3.589431538314421
49.57122017221169 0.0003639967468078267 3.5894158623734738
49.57095311388332 0.0011720302032162842 3.5963651772510743
49.571414571239714 0.0021319563369478463 3.5921856317005183
49.57278851218912 0.0026473669473871704 3.5731557391769764
49.574636694432506 0.0024617604350462585 3.5452536163642496
49.57645755567246 0.0017172748286905886 3.516477023970683
49.57801241179847 0.000641175856770913 3.491252432589546
49.578841324675054 0.0010027805652692446 3.4703012908794517
49.5798175271011 -0.00026808819290431404 3.453185109765963
49.58057399382227 -0.001576235123734042 3.439394660542732
49.58114396169056 -0.0028894612833315295 3.428271553419209
49.581556826223654 -0.004181148597034382 3.419260734338906
49.58184169477725 -0.005427145901622979 3.411925956677354
49.58194505029854 -0.003788464350857444 3.4066407063890205
49.58206104478623 -0.0057457014216304395 3.4031014532880053
49.5821286552537 -0.007230832211484818 3.4007089614813077
49.582160211642396 -0.008284405781171185 3.3994466687848477
49.582156434986445 -0.00894463777517153 3.3993432797573684
49.58211041784535 -0.009242557076108679 3.4004097045069757
49.58201366729376 -0.009199359294026257 3.4025903624422535
49.58186243423635 -0.008826853258773157 3.405745311562075
49.5819286622265 -0.013780828761096762 3.411517517466048
49.58143605477768 -0.01017533838154181 3.4184633500566024
49.58118187860393 -0.01300029782742339 3.4270591636085905
49.58083020192955 -0.015241122050142377 3.43734807108933
49.58037953591741 -0.01694002903399793 3.4493559983935302
49.57982742315036 -0.018135382876212757 3.463107011772546
49.57917158818561 -0.018861925536769197 3.4786101047811653
49.57841031447717 -0.01915070280654856 3.495846489631886
49.57754281793381 -0.019028452714770685 3.514756013458418
49.57657033902051 -0.018517139864801153 3.5352204887823517
49.57562436050095 -0.025621764712676125 3.564309503442662
49.5743122740932 -0.0268454249936021 3.5921552935219014
49.57282447709082 -0.028032448230085886 3.622687765911706
49.57114980241716 -0.02916580561712367 3.6559283704050545
49.56927894830801 -0.03022749939630322 3.691856744299197
49.567205051501325 -0.031198461731329404 3.7304065049615183
49.56492450570151 -0.032058334723993005 3.7714618598288903
49.562438019335765 -0.03278536033064662 3.8148540681101477
49.559751902397856 -0.033356660897215666 3.860355580851228
49.55687957816774 -0.03374924377848299 3.9076694084745935
49.55383192668652 -0.03616897103969473 3.9577525477047133
49.55071659581013 -0.03576474248427197 4.006752106833808
49.54748965823407 -0.03523373342994081 4.0563934449836285
49.54421408591863 -0.03456874546552089 4.105854915729851
49.540959505313594 -0.03377679638293063 4.1542447542404135
49.53779907346825 -0.03287965338318953 4.200637241310942
49.53480549589812 -0.03191216740825857 4.244120813994679
49.53204700121918 -0.030918804855204294 4.283847399913467
49.529584042338065 -0.02994917077681117 4.319072690221838
49.52957152897037 0.02993322461885208 4.319146893861581
49.53203483824662 0.030903622062306613 4.283919571428033
49.53479372599406 0.03189788939196409 4.2441907971483435
49.537787731726766 0.0328664300023612 4.200704957136281
49.540948618529896 0.03376478881003528 4.154310203273906
49.54420367228278 0.034558129535114335 4.105918175492334
49.547479727535695 0.03522470330962259 4.056454662914868
49.5507071501447 0.03575751437141913 4.00681149092868
49.553822961452106 0.03616378644192893 3.9578103605128097
49.55687095790006 0.033736300930867685 3.9077198214682336
49.55974372521989 0.0333435909595759 3.8604030150421442
49.562430285017776 0.03277214229291884 3.81489828253689
49.56491720617307 0.032044942399941 3.7715027773337138
49.567198164257285 0.03118486109320424 3.730444349905774
49.56927243014687 0.030213649319650534 3.6918921517353276
49.571143587311134 0.029151664013976123 3.6559623956810974
49.57281848133639 0.028017983030970816 3.6227217467005453
49.574306408471294 0.026830625974626928 3.5921905880853027
49.57561854481426 0.02560665051912903 3.564347209836034
49.576565888226995 0.018505146168867448 3.5352756794125564
49.57753823882566 0.01901561436072508 3.5148129846655727
49.57840564264908 0.01913685395044323 3.4959041361941594
49.579166882047545 0.018846885649681296 3.478666992155412
49.579822762293645 0.018118949537432295 3.463161454696498
49.58037501864421 0.016921970587455842 3.4494061028083483
49.5808259412146 0.015221171136966824 3.4373917623952988
49.58117799723563 0.012978147702312356 3.427094212345154
49.58143268058981 0.010150642450003708 3.4184873996955623
49.58192311986445 0.013766061757324527 3.4115730455240696
49.58185693000285 0.008815711692691703 3.405805737256777
49.582008443403794 0.009189070935417652 3.4026498310466535
49.58210556220178 0.009233127704513877 3.400466891505154
49.582152052337015 0.008936077249820014 3.399396733763882
49.58215642929362 0.008276721441854198 3.3994947131865327
49.58212561987247 0.007224015635788582 3.4007496799499224
49.58205890851469 0.005739718726105577 3.403132748875973
49.58194395664036 0.0037832604018945867 3.406660335787236
49.58184067572949 0.005430582661250021 3.411946426179612
49.58155608224942 0.00418020537711645 3.4192859583186426
49.581143528920265 0.002884073937921591 3.428300255013479
49.580573872831124 0.0015663466676382755 3.439425455954167
49.57981766483293 0.00025366487918712834 3.4532165601681837
49.57884161330568 -0.0010217252048271065 3.470331927334662
49.578013758486485 -0.0006473332252348807 3.4912601211883456
49.576458530957424 -0.0017235216532254939 3.5164871598301675
49.57463721428905 -0.0024679128289118086 3.5452655540960256
49.57278860432288 -0.0026532358518744576 3.573169027656344
49.57141433653056 -0.0021374371762351353 3.5922000805294116
49.570952666040746 -0.0011771038168260973 3.5963805687932178
49.57121963220138 -0.00036868073168344655 3.589431538314421
49.57122017221169 0.0003639967468078267 3.5894158623734738
49.57095311388332 0.0011720302032162842 3.5963651772510743
49.571414571239714 0.0021319563369478463 3.5921856317005183
49.57278851218912 0.0026473669473871704 3.5731557391769764
49.574636694432506 0.0024617604350462585 3.5452536163642496
49.57645755567246 0.0017172748286905886 3.516477023970683
49.57801241179847 0.000641175856770913 3.491252432589546
49.578841324675054 0.0010027805652692446 3.4703012908794517
49.5798175271011 -0.00026808819290431404 3.453185109765963
49.58057399382227 -0.001576235123734042 3.439394660542732
49.58114396169056 -0.0028894612833315295 3.428271553419209
49.581556826223654 -0.004181148597034382 3.419260734338906
49.58184169477725 -0.005427145901622979 3.411925956677354
49.58194505029854 -0.003788464350857444 3.4066407063890205
49.58206104478623 -0.0057457014216304395 3.4031014532880053
49.5821286552537 -0.007230832211484818 3.4007089614813077
49.582160211642396 -0.008284405781171185 3.3994466687848477
49.582156434986445 -0.00894463777517153 3.3993432797573684
49.58211041784535 -0.009242557076108679 3.4004097045069757
49.58201366729376 -0.009199359294026257 3.4025903624422535
49.58186243423635 -0.008826853258773157 3.405745311562075
49.5819286622265 -0.013780828761096762 3.411517517466048
49.58143605477768 -0.01017533838154181 3.4184633500566024
49.58118187860393 -0.01300029782742339 3.4270591636085905
49.58083020192955 -0.015241122050142377 3.43734807108933
49.58037953591741 -0.01694002903399793 3.4493559983935302
49.57982742315036 -0.018135382876212757 3.463107011772546
49.57917158818561 -0.018861925536769197 3.4786101047811653
49.57841031447717 -0.01915070280654856 3.495846489631886
49.57754281793381 -0.019028452714770685 3.514756013458418
49.57657033902051 -0.018517139864801153 3.5352204887823517
49.57562436050095 -0.025621764712676125 3.564309503442662
49.5743122740932 -0.0268454249936021 3.5921552935219014
49.57282447709082 -0.028032448230085886 3.622687765911706
49.57114980241716 -0.02916580561712367 3.6559283704050545
49.56927894830801 -0.03022749939630322 3.691856744299197
49.567205051501325 -0.031198461731329404 3.7304065049615183
49.56492450570151 -0.032058334723993005 3.7714618598288903
49.562438019335765 -0.03278536033064662 3.8148540681101477
49.559751902397856 -0.033356660897215666 3.860355580851228
49.55687957816774 -0.03374924377848299 3.9076694084745935
49.55383192668652 -0.03616897103969473 3.9577525477047133
49.55071659581013 -0.03576474248427197 4.006752106833808
49.54748965823407 -0.03523373342994081 4.0563934449836285
49.54421408591863 -0.03456874546552089 4.105854915729851
49.540959505313594 -0.03377679638293063 4.1542447542404135
49.53779907346825 -0.03287965338318953 4.200637241310942
49.53480549589812 -0.03191216740825857 4.244120813994679
49.53204700121918 -0.030918804855204294 4.283847399913467
49.529584042338065 -0.02994917077681117 4.319072690221838

VECTORS L float
-0.006669896236949936 0.0 0.09082670436442802
-0.0120334993064649 0.0 0.16386508052749502
-0.017780331944089307 0.0 0.24212205042123464
-0.02410346895238235 0.0 0.3282267925799569
-0.031045170515288635 0.0 0.4227547812085316
-0.03860716305928864 0.0 0.5257295257622756
-0.04677449396461914 0.0 0.6369474103037795
-0.055522920781073556 0.0 0.7560783154758961
-0.06482160916140636 0.0 0.8827023573640862
-0.07463375269395413 0.0 1.0163183280106682
-0.08492038318273509 0.0 1.1563955815569489
-0.09563692411132388 0.0 1.3023271013515247
-0.10673564595570241 0.0 1.4534629349493444
-0.11816609640319593 0.0 1.609116052578876
-0.12987616521809106 0.0 1.76857684785265
-0.1418134370399489 0.0 1.9311315593750435
-0.15392622024926292 0.0 2.0960762812266487
-0.16616436527085002 0.0 2.262728106136145
-0.17847904255214367 0.0 2.4304221021199375
-0.1908240028916454 0.0 2.598528474890025
-0.20317462253755358 0.0 2.766711912749528
-0.2154851978415862 0.0 2.934350050431668
-0.22772040572515378 0.0 3.100961879131763
-0.23985020370778093 0.0 3.266138298108876
-0.2518486399991041 0.0 3.4295259112219965
-0.2636932192151041 0.0 3.590818389628622
-0.2753643560628701 0.0 3.749749032386802
-0.2868448160617522 0.0 3.9060831505263884
-0.29811904754759877 0.0 4.0596089706775835
-0.3091717506069567 0.0 4.210118147662798
-0.3199924552074342 0.0 4.357468106769779
-0.33056285056195417 0.0 4.501409502523655
-0.3408668362145355 0.0 4.6417230884318945
-0.35088797763729246 0.0 4.778185068808232
-0.3606080349892016 0.0 4.910547064279221
-0.3700063584860499 0.0 5.038527878289583
-0.3790597371524255 0.0 5.161811437496216
-0.38775301518088934 0.0 5.280191359072046
-0.3960322189084915 0.0 5.392932661578974
-0.40386610187970856 0.0 5.499609849255529
-0.41120618636142553 0.0 5.599562780987449
-0.4179951447208933 0.0 5.692010802958441
-0.4241635178325207 0.0 5.77600806185365
-0.4296257338392958 0.0 5.850389290706001
-0.4342786701512411 0.0 5.91375022704117
-0.43799922483891085 0.0 5.964414541549787
-0.4406501421729163 0.0 6.000513166841198
-0.4421375772670419 0.0 6.020768178726839
-0.44249155168937937 0.0 6.0255883931751715
-0.44066208765590614 0.0 6.000675833367552
-0.4406618513655725 0.0 6.000672615705461
-0.44249084435289493 0.0 6.025578761085034
-0.44213645636765014 0.0 6.020752914981489
-0.44064864764646017 0.0 6.000492815263336
-0.43799738478243166 0.0 5.964389484748314
-0.43427650045393335 0.0 5.913720681385747
-0.42962322841013223 0.0 5.850355173252616
-0.42416058760884645 0.0 5.7759681597997155
-0.41799191674162517 0.0 5.691966846244831
-0.4112027319343303 0.0 5.599515740641185
-0.40386247739756354 0.0 5.499560493200118
-0.39602846657491647 0.0 5.392881564518363
-0.38774916018961153 0.0 5.280138864079519
-0.3790558401520735 0.0 5.161758370448948
-0.3700022993229066 0.0 5.038472603005278
-0.360603830781947 0.0 4.910489813869945
-0.3508836666114432 0.0 4.778126363806473