# vtk DataFile Version 4.0
[MyVLM domain - lattices] 
ASCII
DATASET UNSTRUCTURED_GRID
POINTS 302 float
1.2444999999999997 -1.2445 0.0
1.2399745454545452 -1.2399745454545454 0.0
1.2346178849721705 -1.2346178849721707 0.0
1.2284300185528754 -1.2284300185528756 0.0
1.2214109461966602 -1.2214109461966605 0.0
1.2135606679035247 -1.213560667903525 0.0
1.2048791836734691 -1.2048791836734694 0.0
1.1953664935064932 -1.1953664935064934 0.0
1.1850225974025972 -1.1850225974025974 0.0
1.1738474953617808 -1.173847495361781 0.0
1.1618411873840442 -1.1618411873840444 0.0
1.1490036734693874 -1.1490036734693876 0.0
1.1353349536178106 -1.1353349536178108 0.0
1.1208350278293133 -1.1208350278293135 0.0
1.1055038961038959 -1.105503896103896 0.0
1.0893415584415582 -1.0893415584415584 0.0
1.0723480148423004 -1.0723480148423006 0.0
1.054523265306122 -1.0545232653061223 0.0
1.0358673098330238 -1.035867309833024 0.0
1.0163801484230053 -1.0163801484230055 0.0
0.9960617810760664 -0.9960617810760668 0.0
0.9749122077922076 -0.9749122077922077 0.0
0.9529314285714284 -0.9529314285714284 0.0
0.9301194434137288 -0.930119443413729 0.0
0.9064762523191091 -0.9064762523191096 0.0
0.8820018552875695 -0.8820018552875695 0.0
0.8566962523191093 -0.8566962523191094 0.0
0.8305594434137288 -0.8305594434137291 0.0
0.8035914285714284 -0.8035914285714285 0.0
0.7757922077922076 -0.7757922077922077 0.0
0.7471617810760666 -0.7471617810760667 0.0
0.7177001484230053 -0.7177001484230054 0.0
0.6874073098330239 -0.687407309833024 0.0
0.6562832653061222 -0.6562832653061225 0.0
0.6243280148423004 -0.6243280148423005 0.0
0.5915415584415582 -0.5915415584415583 0.0
0.5579238961038958 -0.5579238961038959 0.0
0.5234750278293133 -0.5234750278293134 0.0
0.48819495361781057 -0.48819495361781057 0.0
0.4520836734693877 -0.4520836734693877 0.0
0.4151411873840445 -0.4151411873840446 0.0
0.37736749536178105 -0.37736749536178116 0.0
0.3387625974025974 -0.3387625974025974 0.0
0.2993264935064933 -0.29932649350649343 0.0
0.25905918367346925 -0.25905918367346925 0.0
0.21796066790352486 -0.21796066790352486 0.0
0.17603094619666027 -0.1760309461966605 0.0
0.13327001855287546 -0.13327001855287568 0.0
0.08967788497217066 -0.08967788497217066 0.0
0.045254545454545436 -0.045254545454545436 0.0
0.0 0.0 0.0
0.04525454545454545 0.04525454545454546 0.0
0.08967788497217066 0.08967788497217068 0.0
0.13327001855287568 0.1332700185528757 0.0
0.17603094619666046 0.1760309461966605 0.0
0.21796066790352497 0.21796066790352508 0.0
0.2590591836734693 0.25905918367346936 0.0
0.29932649350649343 0.2993264935064935 0.0
0.3387625974025973 0.33876259740259734 0.0
0.37736749536178094 0.377367495361781 0.0
0.41514118738404443 0.4151411873840445 0.0
0.45208367346938766 0.4520836734693878 0.0
0.48819495361781057 0.4881949536178107 0.0
0.5234750278293133 0.5234750278293134 0.0
0.5579238961038959 0.557923896103896 0.0
0.5915415584415582 0.5915415584415583 0.0
0.6243280148423003 0.6243280148423004 0.0
0.6562832653061222 0.6562832653061225 0.0
0.687407309833024 0.6874073098330241 0.0
0.7177001484230054 0.7177001484230056 0.0
0.7471617810760667 0.7471617810760669 0.0
0.7757922077922076 0.7757922077922077 0.0
0.8035914285714284 0.8035914285714285 0.0
0.8305594434137288 0.830559443413729 0.0
0.8566962523191093 0.8566962523191094 0.0
0.8820018552875692 0.8820018552875695 0.0
0.9064762523191091 0.9064762523191093 0.0
0.9301194434137288 0.9301194434137292 0.0
0.9529314285714284 0.9529314285714284 0.0
0.9749122077922076 0.9749122077922077 0.0
0.9960617810760666 0.9960617810760668 0.0
1.0163801484230053 1.0163801484230055 0.0
1.0358673098330238 1.035867309833024 0.0
1.054523265306122 1.0545232653061223 0.0
1.0723480148423001 1.0723480148423004 0.0
1.0893415584415582 1.0893415584415584 0.0
1.1055038961038959 1.105503896103896 0.0
1.120835027829313 1.1208350278293133 0.0
1.1353349536178106 1.1353349536178106 0.0
1.1490036734693874 1.1490036734693876 0.0
1.1618411873840444 1.1618411873840446 0.0
1.1738474953617808 1.173847495361781 0.0
1.1850225974025972 1.1850225974025972 0.0
1.1953664935064932 1.1953664935064934 0.0
1.2048791836734691 1.2048791836734694 0.0
1.2135606679035245 1.2135606679035247 0.0
1.22141094619666 1.2214109461966602 0.0
1.2284300185528754 1.2284300185528756 0.0
1.2346178849721703 1.2346178849721705 0.0
1.2399745454545452 1.2399745454545454 0.0
1.2444999999999997 1.2445 0.0
1.7422999999999997 -1.2445 0.0
1.7377745454545452 -1.2399745454545454 0.0
1.7324178849721703 -1.2346178849721707 0.0
1.7262300185528754 -1.2284300185528756 0.0
1.7192109461966603 -1.2214109461966605 0.0
1.7113606679035245 -1.213560667903525 0.0
1.7026791836734692 -1.2048791836734694 0.0
1.6931664935064934 -1.1953664935064934 0.0
1.6828225974025972 -1.1850225974025974 0.0
1.6716474953617806 -1.173847495361781 0.0
1.6596411873840444 -1.1618411873840444 0.0
1.6468036734693878 -1.1490036734693876 0.0
1.6331349536178106 -1.1353349536178108 0.0
1.6186350278293133 -1.1208350278293135 0.0
1.603303896103896 -1.105503896103896 0.0
1.5871415584415582 -1.0893415584415584 0.0
1.5701480148423004 -1.0723480148423006 0.0
1.552323265306122 -1.0545232653061223 0.0
1.5336673098330238 -1.035867309833024 0.0
1.5141801484230053 -1.0163801484230055 0.0
1.4938617810760666 -0.9960617810760668 0.0
1.4727122077922075 -0.9749122077922077 0.0
1.4507314285714283 -0.9529314285714284 0.0
1.4279194434137288 -0.930119443413729 0.0
1.4042762523191092 -0.9064762523191096 0.0
1.3798018552875693 -0.8820018552875695 0.0
1.3544962523191093 -0.8566962523191094 0.0
1.328359443413729 -0.8305594434137291 0.0
1.3013914285714283 -0.8035914285714285 0.0
1.2735922077922077 -0.7757922077922077 0.0
1.2449617810760665 -0.7471617810760667 0.0
1.2155001484230055 -0.7177001484230054 0.0
1.1852073098330238 -0.687407309833024 0.0
1.1540832653061224 -0.6562832653061225 0.0
1.1221280148423003 -0.6243280148423005 0.0
1.0893415584415582 -0.5915415584415583 0.0
1.055723896103896 -0.5579238961038959 0.0
1.0212750278293132 -0.5234750278293134 0.0
0.9859949536178108 -0.48819495361781057 0.0
0.9498836734693876 -0.4520836734693877 0.0
0.9129411873840445 -0.4151411873840446 0.0
0.875167495361781 -0.37736749536178116 0.0
0.8365625974025973 -0.3387625974025974 0.0
0.7971264935064933 -0.29932649350649343 0.0
0.7568591836734693 -0.25905918367346925 0.0
0.7157606679035249 -0.21796066790352486 0.0
0.6738309461966603 -0.1760309461966605 0.0
0.6310700185528755 -0.13327001855287568 0.0
0.5874778849721707 -0.08967788497217066 0.0
0.5430545454545455 -0.045254545454545436 0.0
0.4978 0.0 0.0
0.5430545454545455 0.04525454545454546 0.0
0.5874778849721707 0.08967788497217068 0.0
0.6310700185528757 0.1332700185528757 0.0
0.6738309461966605 0.1760309461966605 0.0
0.715760667903525 0.21796066790352508 0.0
0.7568591836734693 0.25905918367346936 0.0
0.7971264935064934 0.2993264935064935 0.0
0.8365625974025973 0.33876259740259734 0.0
0.875167495361781 0.377367495361781 0.0
0.9129411873840445 0.4151411873840445 0.0
0.9498836734693876 0.4520836734693878 0.0
0.9859949536178105 0.4881949536178107 0.0
1.0212750278293132 0.5234750278293134 0.0
1.055723896103896 0.557923896103896 0.0
1.0893415584415582 0.5915415584415583 0.0
1.1221280148423003 0.6243280148423004 0.0
1.1540832653061224 0.6562832653061225 0.0
1.185207309833024 0.6874073098330241 0.0
1.2155001484230055 0.7177001484230056 0.0
1.2449617810760667 0.7471617810760669 0.0
1.2735922077922077 0.7757922077922077 0.0
1.3013914285714283 0.8035914285714285 0.0
1.3283594434137287 0.830559443413729 0.0
1.3544962523191093 0.8566962523191094 0.0
1.3798018552875693 0.8820018552875695 0.0
1.4042762523191092 0.9064762523191093 0.0
1.427919443413729 0.9301194434137292 0.0
1.4507314285714283 0.9529314285714284 0.0
1.4727122077922075 0.9749122077922077 0.0
1.4938617810760666 0.9960617810760668 0.0
1.5141801484230053 1.0163801484230055 0.0
1.5336673098330238 1.035867309833024 0.0
1.552323265306122 1.0545232653061223 0.0
1.5701480148423002 1.0723480148423004 0.0
1.5871415584415582 1.0893415584415584 0.0
1.603303896103896 1.105503896103896 0.0
1.6186350278293131 1.1208350278293133 0.0
1.6331349536178106 1.1353349536178106 0.0
1.6468036734693874 1.1490036734693876 0.0
1.6596411873840444 1.1618411873840446 0.0
1.6716474953617806 1.173847495361781 0.0
1.6828225974025972 1.1850225974025972 0.0
1.6931664935064934 1.1953664935064934 0.0
1.7026791836734692 1.2048791836734694 0.0
1.7113606679035245 1.2135606679035247 0.0
1.71921094619666 1.2214109461966602 0.0
1.7262300185528754 1.2284300185528756 0.0
1.7324178849721703 1.2346178849721705 0.0
1.7377745454545452 1.2399745454545454 0.0
1.7422999999999997 1.2445 0.0
1.6155872727272724 -1.2422372727272726 0.0
1.6106462152133578 -1.237296215213358 0.0
1.604873951762523 -1.2315239517625232 0.0
1.598270482374768 -1.224920482374768 0.0
1.5908358070500925 -1.2174858070500927 0.0
1.582569925788497 -1.2092199257884972 0.0
1.5734728385899812 -1.2001228385899814 0.0
1.5635445454545454 -1.1901945454545453 0.0
1.552785046382189 -1.1794350463821892 0.0
1.5411943413729126 -1.1678443413729127 0.0
1.5287724304267158 -1.155422430426716 0.0
1.5155193135435991 -1.142169313543599 0.0
1.501434990723562 -1.1280849907235622 0.0
1.4865194619666047 -1.1131694619666048 0.0
1.4707727272727271 -1.0974227272727273 0.0
1.4541947866419294 -1.0808447866419293 0.0
1.4367856400742112 -1.0634356400742113 0.0
1.418545287569573 -1.0451952875695731 0.0
1.3994737291280146 -1.0261237291280147 0.0
1.379570964749536 -1.0062209647495362 0.0
1.358836994434137 -0.9854869944341371 0.0
1.337271818181818 -0.9639218181818181 0.0
1.3148754359925787 -0.9415254359925787 0.0
1.291647847866419 -0.9182978478664192 0.0
1.2675890538033394 -0.8942390538033393 0.0
1.2426990538033393 -0.8693490538033395 0.0
1.2169778478664193 -0.8436278478664192 0.0
1.1904254359925788 -0.8170754359925788 0.0
1.163041818181818 -0.7896918181818181 0.0
1.1348269944341371 -0.7614769944341371 0.0
1.105780964749536 -0.7324309647495362 0.0
1.0759037291280147 -0.7025537291280148 0.0
1.0451952875695731 -0.6718452875695733 0.0
1.0136556400742114 -0.6403056400742114 0.0
0.9812847866419293 -0.6079347866419293 0.0
0.9480827272727271 -0.5747327272727272 0.0
0.9140494619666047 -0.5406994619666048 0.0
0.8791849907235622 -0.5058349907235622 0.0
0.8434893135435992 -0.47013931354359917 0.0
0.8069624304267162 -0.43361243042671627 0.0
0.7696043413729128 -0.3962543413729128 0.0
0.7314150463821893 -0.3580650463821894 0.0
0.6923945454545455 -0.3190445454545454 0.0
0.6525428385899814 -0.27919283858998134 0.0
0.6118599257884971 -0.23850992578849706 0.0
0.5703458070500929 -0.19699580705009279 0.0
0.5280004823747682 -0.15465048237476808 0.0
0.4848239517625232 -0.11147395176252317 0.0
0.4408162152133581 -0.06746621521335805 0.0
0.39597727272727273 -0.022627272727272718 0.0
0.39597727272727273 0.02262727272727273 0.0
0.4408162152133581 0.06746621521335806 0.0
0.4848239517625232 0.11147395176252319 0.0
0.528000482374768 0.15465048237476808 0.0
0.5703458070500929 0.19699580705009276 0.0
0.6118599257884971 0.23850992578849717 0.0
0.6525428385899814 0.2791928385899814 0.0
0.6923945454545455 0.3190445454545454 0.0
0.7314150463821891 0.3580650463821891 0.0
0.7696043413729128 0.39625434137291277 0.0
0.8069624304267162 0.43361243042671616 0.0
0.8434893135435992 0.4701393135435992 0.0
0.8791849907235619 0.5058349907235621 0.0
0.9140494619666046 0.5406994619666047 0.0
0.9480827272727271 0.5747327272727272 0.0
0.9812847866419294 0.6079347866419295 0.0
1.0136556400742114 0.6403056400742114 0.0
1.0451952875695731 0.6718452875695732 0.0
1.0759037291280147 0.7025537291280147 0.0
1.105780964749536 0.7324309647495362 0.0
1.1348269944341371 0.7614769944341373 0.0
1.163041818181818 0.789691818181818 0.0
1.1904254359925786 0.8170754359925786 0.0
1.216977847866419 0.843627847866419 0.0
1.2426990538033393 0.8693490538033394 0.0
1.2675890538033392 0.8942390538033393 0.0
1.291647847866419 0.9182978478664192 0.0
1.3148754359925787 0.9415254359925787 0.0
1.3372718181818182 0.9639218181818181 0.0
1.3588369944341372 0.9854869944341373 0.0
1.379570964749536 1.0062209647495362 0.0
1.3994737291280148 1.0261237291280147 0.0
1.418545287569573 1.0451952875695731 0.0
1.4367856400742112 1.0634356400742113 0.0
1.4541947866419291 1.0808447866419293 0.0
1.470772727272727 1.097422727272727 0.0
1.4865194619666047 1.1131694619666048 0.0
1.501434990723562 1.128084990723562 0.0
1.5155193135435991 1.1421693135435993 0.0
1.528772430426716 1.1554224304267162 0.0
1.5411943413729128 1.1678443413729127 0.0
1.5527850463821888 1.179435046382189 0.0
1.5635445454545451 1.1901945454545453 0.0
1.573472838589981 1.2001228385899811 0.0
1.5825699257884969 1.209219925788497 0.0
1.5908358070500925 1.2174858070500927 0.0
1.5982704823747678 1.224920482374768 0.0
1.604873951762523 1.2315239517625232 0.0
1.6106462152133578 1.237296215213358 0.0
1.6155872727272724 1.2422372727272726 0.0

CELLS 200 700
4 0 101 102 1
4 1 102 103 2
4 2 103 104 3
4 3 104 105 4
4 4 105 106 5
4 5 106 107 6
4 6 107 108 7
4 7 108 109 8
4 8 109 110 9
4 9 110 111 10
4 10 111 112 11
4 11 112 113 12
4 12 113 114 13
4 13 114 115 14
4 14 115 116 15
4 15 116 117 16
4 16 117 118 17
4 17 118 119 18
4 18 119 120 19
4 19 120 121 20
4 20 121 122 21
4 21 122 123 22
4 22 123 124 23
4 23 124 125 24
4 24 125 126 25
4 25 126 127 26
4 26 127 128 27
4 27 128 129 28
4 28 129 130 29
4 29 130 131 30
4 30 131 132 31
4 31 132 133 32
4 32 133 134 33
4 33 134 135 34
4 34 135 136 35
4 35 136 137 36
4 36 137 138 37
4 37 138 139 38
4 38 139 140 39
4 39 140 141 40
4 40 141 142 41
4 41 142 143 42
4 42 143 144 43
4 43 144 145 44
4 44 145 146 45
4 45 146 147 46
4 46 147 148 47
4 47 148 149 48
4 48 149 150 49
4 49 150 151 50
4 50 151 152 51
4 51 152 153 52
4 52 153 154 53
4 53 154 155 54
4 54 155 156 55
4 55 156 157 56
4 56 157 158 57
4 57 158 159 58
4 58 159 160 59
4 59 160 161 60
4 60 161 162 61
4 61 162 163 62
4 62 163 164 63
4 63 164 165 64
4 64 165 166 65
4 65 166 167 66
4 66 167 168 67
4 67 168 169 68
4 68 169 170 69
4 69 170 171 70
4 70 171 172 71
4 71 172 173 72
4 72 173 174 73
4 73 174 175 74
4 74 175 176 75
4 75 176 177 76
4 76 177 178 77
4 77 178 179 78
4 78 179 180 79
4 79 180 181 80
4 80 181 182 81
4 81 182 183 82
4 82 183 184 83
4 83 184 185 84
4 84 185 186 85
4 85 186 187 86
4 86 187 188 87
4 87 188 189 88
4 88 189 190 89
4 89 190 191 90
4 90 191 192 91
4 91 192 193 92
4 92 193 194 93
4 93 194 195 94
4 94 195 196 95
4 95 196 197 96
4 96 197 198 97
4 97 198 199 98
4 98 199 200 99
4 99 200 201 100
1 202
1 203
1 204
1 205
1 206
1 207
1 208
1 209
1 210
1 211
1 212
1 213
1 214
1 215
1 216
1 217
1 218
1 219
1 220
1 221
1 222
1 223
1 224
1 225
1 226
1 227
1 228
1 229
1 230
1 231
1 232
1 233
1 234
1 235
1 236
1 237
1 238
1 239
1 240
1 241
1 242
1 243
1 244
1 245
1 246
1 247
1 248
1 249
1 250
1 251
1 252
1 253
1 254
1 255
1 256
1 257
1 258
1 259
1 260
1 261
1 262
1 263
1 264
1 265
1 266
1 267
1 268
1 269
1 270
1 271
1 272
1 273
1 274
1 275
1 276
1 277
1 278
1 279
1 280
1 281
1 282
1 283
1 284
1 285
1 286
1 287
1 288
1 289
1 290
1 291
1 292
1 293
1 294
1 295
1 296
1 297
1 298
1 299
1 300
1 301

CELL_TYPES 200
9
9
9
9
9
9
9
9
9
9
9
9
9
9
9
9
9
9
9
9
9
9
9
9
9
9
9
9
9
9
9
9
9
9
9
9
9
9
9
9
9
9
9
9
9
9
9
9
9
9
9
9
9
9
9
9
9
9
9
9
9
9
9
9
9
9
9
9
9
9
9
9
9
9
9
9
9
9
9
9
9
9
9
9
9
9
9
9
9
9
9
9
9
9
9
9
9
9
9
9
1
1
1
1
1
1
1
1
1
1
1
1
1
1
1
1
1
1
1
1
1
1
1
1
1
1
1
1
1
1
1
1
1
1
1
1
1
1
1
1
1
1
1
1
1
1
1
1
1
1
1
1
1
1
1
1
1
1
1
1
1
1
1
1
1
1
1
1
1
1
1
1
1
1
1
1
1
1
1
1
1
1
1
1
1
1
1
1
1
1
1
1
1
1
1
1
1
1
1
1

CELL_DATA 200

VECTORS Vinf float
49.531330360356684 0.029838586344461737 4.288554845137984
49.533739176541815 0.030900775270651246 4.254684638773241
49.53644499161757 0.0319773762161547 4.216354799981681
49.53939196560149 0.033007369703973236 4.17422883386396
49.542516989960106 0.033933312113839764 4.129067207902112
49.545752972356304 0.034705789164243175 4.081689236634643
49.549032856190415 0.03528681496478994 4.032925971878459
49.55229358776625 0.03565137641105393 3.983574085710404
49.55547919076146 0.03578674000762156 3.9343610627831436
49.55854235951778 0.03568977624281734 3.885928325854611
49.5614444561264 0.035363155502246724 3.8388325261130998
49.564154281826795 0.034811544780823225 3.793559171299663
49.56664627704502 0.03403875695694246 3.7505400115423297
49.568597874247 0.034353881557436836 3.7152937579807026
49.57071562618602 0.032786474868914346 3.676352261677508
49.57271146899145 0.0304583220338604 3.6385949350624927
49.57452955070655 0.028914838631236582 3.60390922785143
49.57598624794514 0.027617082490624705 3.573778471520161
49.57726069542481 0.026291873344247454 3.546336090156018
49.57836949110795 0.024956723102003735 3.521517914869103
49.57933023990059 0.023624786861051066 3.499230843430498
49.580159046732085 0.02230434810113287 3.479361111478288
49.58086847447275 0.020999976123240262 3.461780865893103
49.58128196719323 0.019596457649318832 3.4480267660107744
49.581814240263235 0.01826619643332772 3.434397002957954
49.582515964537514 0.021323088962882604 3.4251065972101165
49.58293017839484 0.018502851336443762 3.4136099051669495
49.583250944658005 0.015938477852322174 3.404065753280206
49.58348804083775 0.013666350158440548 3.3964752230725286
49.58364758064591 0.011716737597587028 3.3908802485357823
49.5831322664303 0.011092023340668571 3.3881822546673486
49.58327878510739 0.01070878650939516 3.38553561499536
49.58326040100404 0.009721423164487115 3.3847392479660785
49.583205052643464 0.00874679815773069 3.385331261638695
49.583117967807034 0.007776302531067253 3.387222916826539
49.58299664183369 0.006796087328178081 3.3903236698736054
49.58275395222912 0.0056335994299885 3.39508361902076
49.58257021274482 0.004762827288544036 3.4001146113159657
49.58221116082773 0.00372268961012117 3.4070496514198534
49.581737500932526 0.002690619675950975 3.4156884737517204
49.58113801197262 0.0016675990182833372 3.42643824916766
49.58032310126688 0.0005903262531365935 3.440416162414857
49.57938994931734 -0.0003528764992704697 3.4566954807542842
49.57815113308417 -0.001276935137352592 3.4776973792508006
49.57664623746482 -0.002048580547073091 3.5032424221957608
49.57491915648199 -0.0025407447170956556 3.5322351561987197
49.57313891684772 -0.0025002962722708373 3.5608463731609925
49.57225312917315 -0.0016849673633996685 3.579279638239334
49.57168663896913 -0.0008193637362890811 3.5843235281248758
49.57183009184376 -6.729954302356191e-5 3.578206743320733
49.57173429217184 0.00025473335749295575 3.5777361332106
49.57147189743796 0.0010588823956374947 3.5842736809831663
49.57189832932964 0.002053551311049411 3.5797713525347468
49.57315025878487 0.0026152461354179914 3.5610054458434375
49.57494938513395 0.0026715528998680614 3.5324517748571256
49.57670049845708 0.002180998650736472 3.503471366911754
49.578220166715774 0.001402542113850004 3.4778618055118633
49.5794637729494 0.0004798723427646973 3.456721872224577
49.58041025183758 -0.0004547530679666936 3.4402804571859784
49.58125580763414 -0.0015370190638316383 3.4261754397856095
49.581881832247774 -0.0025890294254558143 3.415366654496855
49.58235855754447 -0.0036578910625068746 3.406728364404367
49.58270060059342 -0.004725336631193782 3.399822605456515
49.58286094722075 -0.005610482916996787 3.394824659933908
49.583084300481374 -0.006778842103254352 3.390088384009743
49.58319066256378 -0.00776032975374216 3.387005042314211
49.583267009743146 -0.008729911663437276 3.385125750018567
49.583314767711634 -0.009702604316686781 3.3845429056121215
49.5833278403998 -0.010687578527234787 3.385346392734396
49.583177387930846 -0.011067867577677555 3.3879989831987296
49.583689857307746 -0.011688770651387135 3.3907030577423676
49.583529522360536 -0.013636473542595803 3.3963013601604897
49.583292254166025 -0.01590670634971624 3.4038940439649457
49.58297188950107 -0.018469306665973875 3.4134389645825878
49.58255857207392 -0.021288018853573107 3.424934822912944
49.58185715252367 -0.01822685777415549 3.434227064408654
49.58132647907707 -0.019555907656056845 3.4478514955112214
49.58091535879998 -0.02096124547929357 3.4615979768126883
49.5802075078722 -0.022265487766016466 3.4791724243925954
49.57938013588841 -0.023586089483039432 3.499035849153684
49.57842064576219 -0.024918386327638636 3.5213163298844563
49.57731293119165 -0.02625401724732001 3.5461277599463616
49.57603940319533 -0.027579769326234665 3.573563294710711
49.57458348588662 -0.028878088259457726 3.6036871068206007
49.57276518151507 -0.030417850213471927 3.6383750895456064
49.570770100948465 -0.03274640041903598 3.676123104654765
49.56865299374176 -0.03431417200006781 3.715055464638875
49.5667017300666 -0.03399885996568183 3.75029424508941
49.564210163510424 -0.034771888443249674 3.793305403316018
49.5615007567812 -0.03532366696092209 3.838570651818718
49.55859908674912 -0.03565039244065852 3.885658302828666
49.55553636415049 -0.035747414113015304 3.934082918267183
49.552351232295884 -0.03561208010169816 3.9832879214535817
49.54909099566845 -0.035247536986326544 4.032631967980176
49.545811623869895 -0.03466653140488189 4.081387655193643
49.54257615993679 -0.0338940846316377 4.128758396237789
49.539451647595875 -0.032968185887083966 4.173913226311583
49.536505165622984 -0.031938248814598585 4.216032917139398
49.53379980946913 -0.030861713613043792 4.254357083532094
49.53139140729156 -0.029799594742209765 4.288222295533379
49.531330360356684 0.029838586344461737 4.288554845137984
49.533739176541815 0.030900775270651246 4.254684638773241
49.53644499161757 0.0319773762161547 4.216354799981681
49.53939196560149 0.033007369703973236 4.17422883386396
49.542516989960106 0.033933312113839764 4.129067207902112
49.545752972356304 0.034705789164243175 4.081689236634643
49.549032856190415 0.03528681496478994 4.032925971878459
49.55229358776625 0.03565137641105393 3.983574085710404
49.55547919076146 0.03578674000762156 3.9343610627831436
49.55854235951778 0.03568977624281734 3.885928325854611
49.5614444561264 0.035363155502246724 3.8388325261130998
49.564154281826795 0.034811544780823225 3.793559171299663
49.56664627704502 0.03403875695694246 3.7505400115423297
49.568597874247 0.034353881557436836 3.7152937579807026
49.57071562618602 0.032786474868914346 3.676352261677508
49.57271146899145 0.0304583220338604 3.6385949350624927
49.57452955070655 0.028914838631236582 3.60390922785143
49.57598624794514 0.027617082490624705 3.573778471520161
49.57726069542481 0.026291873344247454 3.546336090156018
49.57836949110795 0.024956723102003735 3.521517914869103
49.57933023990059 0.023624786861051066 3.499230843430498
49.580159046732085 0.02230434810113287 3.479361111478288
49.58086847447275 0.020999976123240262 3.461780865893103
49.58128196719323 0.019596457649318832 3.4480267660107744
49.581814240263235 0.01826619643332772 3.434397002957954
49.582515964537514 0.021323088962882604 3.4251065972101165
49.58293017839484 0.018502851336443762 3.4136099051669495
49.583250944658005 0.015938477852322174 3.404065753280206
49.58348804083775 0.013666350158440548 3.3964752230725286
49.58364758064591 0.011716737597587028 3.3908802485357823
49.5831322664303 0.011092023340668571 3.3881822546673486
49.58327878510739 0.01070878650939516 3.38553561499536
49.58326040100404 0.009721423164487115 3.3847392479660785
49.583205052643464 0.00874679815773069 3.385331261638695
49.583117967807034 0.007776302531067253 3.387222916826539
49.58299664183369 0.006796087328178081 3.3903236698736054
49.58275395222912 0.0056335994299885 3.39508361902076
49.58257021274482 0.004762827288544036 3.4001146113159657
49.58221116082773 0.00372268961012117 3.4070496514198534
49.581737500932526 0.002690619675950975 3.4156884737517204
49.58113801197262 0.0016675990182833372 3.42643824916766
49.58032310126688 0.0005903262531365935 3.440416162414857
49.57938994931734 -0.0003528764992704697 3.4566954807542842
49.57815113308417 -0.001276935137352592 3.4776973792508006
49.57664623746482 -0.002048580547073091 3.5032424221957608
49.57491915648199 -0.0025407447170956556 3.5322351561987197
49.57313891684772 -0.0025002962722708373 3.5608463731609925
49.57225312917315 -0.0016849673633996685 3.579279638239334
49.57168663896913 -0.0008193637362890811 3.5843235281248758
49.57183009184376 -6.729954302356191e-5 3.578206743320733
49.57173429217184 0.00025473335749295575 3.5777361332106
49.57147189743796 0.0010588823956374947 3.5842736809831663
49.57189832932964 0.002053551311049411 3.5797713525347468
49.57315025878487 0.0026152461354179914 3.5610054458434375
49.57494938513395 0.0026715528998680614 3.5324517748571256
49.57670049845708 0.002180998650736472 3.503471366911754
49.578220166715774 0.001402542113850004 3.4778618055118633
49.5794637729494 0.0004798723427646973 3.456721872224577
49.58041025183758 -0.0004547530679666936 3.4402804571859784
49.58125580763414 -0.0015370190638316383 3.4261754397856095
49.581881832247774 -0.0025890294254558143 3.415366654496855
49.58235855754447 -0.0036578910625068746 3.406728364404367
49.58270060059342 -0.004725336631193782 3.399822605456515
49.58286094722075 -0.005610482916996787 3.394824659933908
49.583084300481374 -0.006778842103254352 3.390088384009743
49.58319066256378 -0.00776032975374216 3.387005042314211
49.583267009743146 -0.008729911663437276 3.385125750018567
49.583314767711634 -0.009702604316686781 3.3845429056121215
49.5833278403998 -0.010687578527234787 3.385346392734396
49.583177387930846 -0.011067867577677555 3.3879989831987296
49.583689857307746 -0.011688770651387135 3.3907030577423676
49.583529522360536 -0.013636473542595803 3.3963013601604897
49.583292254166025 -0.01590670634971624 3.4038940439649457
49.58297188950107 -0.018469306665973875 3.4134389645825878
49.58255857207392 -0.021288018853573107 3.424934822912944
49.58185715252367 -0.01822685777415549 3.434227064408654
49.58132647907707 -0.019555907656056845 3.4478514955112214
49.58091535879998 -0.02096124547929357 3.4615979768126883
49.5802075078722 -0.022265487766016466 3.4791724243925954
49.57938013588841 -0.023586089483039432 3.499035849153684
49.57842064576219 -0.024918386327638636 3.5213163298844563
49.57731293119165 -0.02625401724732001 3.5461277599463616
49.57603940319533 -0.027579769326234665 3.573563294710711
49.57458348588662 -0.028878088259457726 3.6036871068206007
49.57276518151507 -0.030417850213471927 3.6383750895456064
49.570770100948465 -0.03274640041903598 3.676123104654765
49.56865299374176 -0.03431417200006781 3.715055464638875
49.5667017300666 -0.03399885996568183 3.75029424508941
49.564210163510424 -0.034771888443249674 3.793305403316018
49.5615007567812 -0.03532366696092209 3.838570651818718
49.55859908674912 -0.03565039244065852 3.885658302828666
49.55553636415049 -0.035747414113015304 3.934082918267183
49.552351232295884 -0.03561208010169816 3.9832879214535817
49.54909099566845 -0.035247536986326544 4.032631967980176
49.545811623869895 -0.03466653140488189 4.081387655193643
49.54257615993679 -0.0338940846316377 4.128758396237789
49.539451647595875 -0.032968185887083966 4.173913226311583
49.536505165622984 -0.031938248814598585 4.216032917139398
49.53379980946913 -0.030861713613043792 4.254357083532094
49.53139140729156 -0.029799594742209765 4.288222295533379

VECTORS L float
-0.006633214997078763 0.0 0.09032720092222409
-0.011968361891001231 0.0 0.16297807770658052
-0.01768526238987216 0.0 0.24082744942772838
-0.023975992304205464 0.0 0.3264908909368116
-0.030882615153317288 0.0 0.42054119837603837
-0.03840685146006061 0.0 0.5230018008086158
-0.046533814641471466 0.0 0.6336699815472325
-0.05523941130599903 0.0 0.7522176510274062
-0.06449317893768321 0.0 0.8782299887132528
-0.07425956481925289 0.0 1.0112228587162635
-0.08449864639181542 0.0 1.1506526192277509
-0.0951667213757544 0.0 1.2959241584364123
-0.10621707124325547 0.0 1.4464012910458965
-0.11761791087515819 0.0 1.6016511860917308
-0.12927763677152407 0.0 1.7604264412587836
-0.14115955262476976 0.0 1.9222273479216527
-0.1532157670757544 0.0 2.0864017498602454
-0.16540030079762522 0.0 2.2523235277799625
-0.1776649851952868 0.0 2.4193367502253573
-0.18996602340477023 0.0 2.5868450173913238
-0.2022635387000815 0.0 2.7543053115944964
-0.21452159976466387 0.0 2.921228341405085
-0.22670837446688502 0.0 3.0871806356705647
-0.23879747600987006 0.0 3.2518028745883862
-0.25075540714987576 0.0 3.4146389124935497
-0.26256467335644534 0.0 3.5754505192113495
-0.27419718816929506 0.0 3.7338552299276095
-0.2856415629280116 0.0 3.8896979605966866
-0.29688482339650735 0.0 4.0428020357406345
-0.3078657425830578 0.0 4.192333702377562
-0.3186526342489154 0.0 4.339223216927788
-0.32919029065282995 0.0 4.482718793004388
-0.33946621340099853 0.0 4.622650234868378
-0.3494650812863391 0.0 4.758808907378116
-0.3591673388246988 0.0 4.890928515509699
-0.36855089010310615 0.0 5.018708170181221
-0.3775913825433715 0.0 5.141816252377762
-0.3862534296057406 0.0 5.259770889118007
-0.3945096654491153 0.0 5.372199428553893
-0.40231976967296224 0.0 5.478552811304431
-0.4096373567502587 0.0 5.578199386681216
-0.41641333764612115 0.0 5.670470689223839
-0.4225608123275688 0.0 5.754183365649969
-0.42801241490518876 0.0 5.828420067097706
-0.4326634120929946 0.0 5.891754597586565
-0.4363875818446089 0.0 5.942468139899107
-0.43904892590356615 0.0 5.978708750167652
-0.4405424209134235 0.0 5.999046282403699
-0.44091551160824366 0.0 6.0041268109510275
-0.43911719365611057 0.0 5.9796383800685815
-0.43910782491874206 0.0 5.979510802140978
-0.44091259615824024 0.0 6.0040871100762105
-0.44054683999577 0.0 5.999106458854965
-0.4390528158455081 0.0 5.978761721097665
-0.4363911973570492 0.0 5.9425173738103805
-0.4326650431789461 0.0 5.891776808750914
-0.42801004525062225 0.0 5.828387798542529
-0.42255283199971516 0.0 5.754074694262448
-0.416399117586186 0.0 5.67027704885315
-0.4096238865314412 0.0 5.578015957203635
-0.40230344506726057 0.0 5.478330512473496
-0.39449167884029274 0.0 5.371954497546871
-0.38623466490043945 0.0 5.259515362453074
-0.37757239220062444 0.0 5.141557653115465
-0.36853197627170026 0.0 5.018450612805143
-0.3591486918920334 0.0 4.890674592602904
-0.3494468164559449 0.0 4.758560187714189