# vtk DataFile Version 4.0
[MyVLM domain - lattices] 
ASCII
DATASET UNSTRUCTURED_GRID
POINTS 302 float
1.2444999999999997 -1.2445 0.0
1.2399745454545452 -1.2399745454545454 0.0
1.2346178849721705 -1.2346178849721707 0.0
1.2284300185528754 -1.2284300185528756 0.0
1.2214109461966602 -1.2214109461966605 0.0
1.2135606679035247 -1.213560667903525 0.0
1.2048791836734691 -1.2048791836734694 0.0
1.1953664935064932 -1.1953664935064934 0.0
1.1850225974025972 -1.1850225974025974 0.0
1.1738474953617808 -1.173847495361781 0.0
1.1618411873840442 -1.1618411873840444 0.0
1.1490036734693874 -1.1490036734693876 0.0
1.1353349536178106 -1.1353349536178108 0.0
1.1208350278293133 -1.1208350278293135 0.0
1.1055038961038959 -1.105503896103896 0.0
1.0893415584415582 -1.0893415584415584 0.0
1.0723480148423004 -1.0723480148423006 0.0
1.054523265306122 -1.0545232653061223 0.0
1.0358673098330238 -1.035867309833024 0.0
1.0163801484230053 -1.0163801484230055 0.0
0.9960617810760664 -0.9960617810760668 0.0
0.9749122077922076 -0.9749122077922077 0.0
0.9529314285714284 -0.9529314285714284 0.0
0.9301194434137288 -0.930119443413729 0.0
0.9064762523191091 -0.9064762523191096 0.0
0.8820018552875695 -0.8820018552875695 0.0
0.8566962523191093 -0.8566962523191094 0.0
0.8305594434137288 -0.8305594434137291 0.0
0.8035914285714284 -0.8035914285714285 0.0
0.7757922077922076 -0.7757922077922077 0.0
0.7471617810760666 -0.7471617810760667 0.0
0.7177001484230053 -0.7177001484230054 0.0
0.6874073098330239 -0.687407309833024 0.0
0.6562832653061222 -0.6562832653061225 0.0
0.6243280148423004 -0.6243280148423005 0.0
0.5915415584415582 -0.5915415584415583 0.0
0.5579238961038958 -0.5579238961038959 0.0
0.5234750278293133 -0.5234750278293134 0.0
0.48819495361781057 -0.48819495361781057 0.0
0.4520836734693877 -0.4520836734693877 0.0
0.4151411873840445 -0.4151411873840446 0.0
0.37736749536178105 -0.37736749536178116 0.0
0.3387625974025974 -0.3387625974025974 0.0
0.2993264935064933 -0.29932649350649343 0.0
0.25905918367346925 -0.25905918367346925 0.0
0.21796066790352486 -0.21796066790352486 0.0
0.17603094619666027 -0.1760309461966605 0.0
0.13327001855287546 -0.13327001855287568 0.0
0.08967788497217066 -0.08967788497217066 0.0
0.045254545454545436 -0.045254545454545436 0.0
0.0 0.0 0.0
0.04525454545454545 0.04525454545454546 0.0
0.08967788497217066 0.08967788497217068 0.0
0.13327001855287568 0.1332700185528757 0.0
0.17603094619666046 0.1760309461966605 0.0
0.21796066790352497 0.21796066790352508 0.0
0.2590591836734693 0.25905918367346936 0.0
0.29932649350649343 0.2993264935064935 0.0
0.3387625974025973 0.33876259740259734 0.0
0.37736749536178094 0.377367495361781 0.0
0.41514118738404443 0.4151411873840445 0.0
0.45208367346938766 0.4520836734693878 0.0
0.48819495361781057 0.4881949536178107 0.0
0.5234750278293133 0.5234750278293134 0.0
0.5579238961038959 0.557923896103896 0.0
0.5915415584415582 0.5915415584415583 0.0
0.6243280148423003 0.6243280148423004 0.0
0.6562832653061222 0.6562832653061225 0.0
0.687407309833024 0.6874073098330241 0.0
0.7177001484230054 0.7177001484230056 0.0
0.7471617810760667 0.7471617810760669 0.0
0.7757922077922076 0.7757922077922077 0.0
0.8035914285714284 0.8035914285714285 0.0
0.8305594434137288 0.830559443413729 0.0
0.8566962523191093 0.8566962523191094 0.0
0.8820018552875692 0.8820018552875695 0.0
0.9064762523191091 0.9064762523191093 0.0
0.9301194434137288 0.9301194434137292 0.0
0.9529314285714284 0.9529314285714284 0.0
0.9749122077922076 0.9749122077922077 0.0
0.9960617810760666 0.9960617810760668 0.0
1.0163801484230053 1.0163801484230055 0.0
1.0358673098330238 1.035867309833024 0.0
1.054523265306122 1.0545232653061223 0.0
1.0723480148423001 1.0723480148423004 0.0
1.0893415584415582 1.0893415584415584 0.0
1.1055038961038959 1.105503896103896 0.0
1.120835027829313 1.1208350278293133 0.0
1.1353349536178106 1.1353349536178106 0.0
1.1490036734693874 1.1490036734693876 0.0
1.1618411873840444 1.1618411873840446 0.0
1.1738474953617808 1.173847495361781 0.0
1.1850225974025972 1.1850225974025972 0.0
1.1953664935064932 1.1953664935064934 0.0
1.2048791836734691 1.2048791836734694 0.0
1.2135606679035245 1.2135606679035247 0.0
1.22141094619666 1.2214109461966602 0.0
1.2284300185528754 1.2284300185528756 0.0
1.2346178849721703 1.2346178849721705 0.0
1.2399745454545452 1.2399745454545454 0.0
1.2444999999999997 1.2445 0.0
1.7422999999999997 -1.2445 0.0
1.7377745454545452 -1.2399745454545454 0.0
1.7324178849721703 -1.2346178849721707 0.0
1.7262300185528754 -1.2284300185528756 0.0
1.7192109461966603 -1.2214109461966605 0.0
1.7113606679035245 -1.213560667903525 0.0
1.7026791836734692 -1.2048791836734694 0.0
1.6931664935064934 -1.1953664935064934 0.0
1.6828225974025972 -1.1850225974025974 0.0
1.6716474953617806 -1.173847495361781 0.0
1.6596411873840444 -1.1618411873840444 0.0
1.6468036734693878 -1.1490036734693876 0.0
1.6331349536178106 -1.1353349536178108 0.0
1.6186350278293133 -1.1208350278293135 0.0
1.603303896103896 -1.105503896103896 0.0
1.5871415584415582 -1.0893415584415584 0.0
1.5701480148423004 -1.0723480148423006 0.0
1.552323265306122 -1.0545232653061223 0.0
1.5336673098330238 -1.035867309833024 0.0
1.5141801484230053 -1.0163801484230055 0.0
1.4938617810760666 -0.9960617810760668 0.0
1.4727122077922075 -0.9749122077922077 0.0
1.4507314285714283 -0.9529314285714284 0.0
1.4279194434137288 -0.930119443413729 0.0
1.4042762523191092 -0.9064762523191096 0.0
1.3798018552875693 -0.8820018552875695 0.0
1.3544962523191093 -0.8566962523191094 0.0
1.328359443413729 -0.8305594434137291 0.0
1.3013914285714283 -0.8035914285714285 0.0
1.2735922077922077 -0.7757922077922077 0.0
1.2449617810760665 -0.7471617810760667 0.0
1.2155001484230055 -0.7177001484230054 0.0
1.1852073098330238 -0.687407309833024 0.0
1.1540832653061224 -0.6562832653061225 0.0
1.1221280148423003 -0.6243280148423005 0.0
1.0893415584415582 -0.5915415584415583 0.0
1.055723896103896 -0.5579238961038959 0.0
1.0212750278293132 -0.5234750278293134 0.0
0.9859949536178108 -0.48819495361781057 0.0
0.9498836734693876 -0.4520836734693877 0.0
0.9129411873840445 -0.4151411873840446 0.0
0.875167495361781 -0.37736749536178116 0.0
0.8365625974025973 -0.3387625974025974 0.0
0.7971264935064933 -0.29932649350649343 0.0
0.7568591836734693 -0.25905918367346925 0.0
0.7157606679035249 -0.21796066790352486 0.0
0.6738309461966603 -0.1760309461966605 0.0
0.6310700185528755 -0.13327001855287568 0.0
0.5874778849721707 -0.08967788497217066 0.0
0.5430545454545455 -0.045254545454545436 0.0
0.4978 0.0 0.0
0.5430545454545455 0.04525454545454546 0.0
0.5874778849721707 0.08967788497217068 0.0
0.6310700185528757 0.1332700185528757 0.0
0.6738309461966605 0.1760309461966605 0.0
0.715760667903525 0.21796066790352508 0.0
0.7568591836734693 0.25905918367346936 0.0
0.7971264935064934 0.2993264935064935 0.0
0.8365625974025973 0.33876259740259734 0.0
0.875167495361781 0.377367495361781 0.0
0.9129411873840445 0.4151411873840445 0.0
0.9498836734693876 0.4520836734693878 0.0
0.9859949536178105 0.4881949536178107 0.0
1.0212750278293132 0.5234750278293134 0.0
1.055723896103896 0.557923896103896 0.0
1.0893415584415582 0.5915415584415583 0.0
1.1221280148423003 0.6243280148423004 0.0
1.1540832653061224 0.6562832653061225 0.0
1.185207309833024 0.6874073098330241 0.0
1.2155001484230055 0.7177001484230056 0.0
1.2449617810760667 0.7471617810760669 0.0
1.2735922077922077 0.7757922077922077 0.0
1.3013914285714283 0.8035914285714285 0.0
1.3283594434137287 0.830559443413729 0.0
1.3544962523191093 0.8566962523191094 0.0
1.3798018552875693 0.8820018552875695 0.0
1.4042762523191092 0.9064762523191093 0.0
1.427919443413729 0.9301194434137292 0.0
1.4507314285714283 0.9529314285714284 0.0
1.4727122077922075 0.9749122077922077 0.0
1.4938617810760666 0.9960617810760668 0.0
1.5141801484230053 1.0163801484230055 0.0
1.5336673098330238 1.035867309833024 0.0
1.552323265306122 1.0545232653061223 0.0
1.5701480148423002 1.0723480148423004 0.0
1.5871415584415582 1.0893415584415584 0.0
1.603303896103896 1.105503896103896 0.0
1.6186350278293131 1.1208350278293133 0.0
1.6331349536178106 1.1353349536178106 0.0
1.6468036734693874 1.1490036734693876 0.0
1.6596411873840444 1.1618411873840446 0.0
1.6716474953617806 1.173847495361781 0.0
1.6828225974025972 1.1850225974025972 0.0
1.6931664935064934 1.1953664935064934 0.0
1.7026791836734692 1.2048791836734694 0.0
1.7113606679035245 1.2135606679035247 0.0
1.71921094619666 1.2214109461966602 0.0
1.7262300185528754 1.2284300185528756 0.0
1.7324178849721703 1.2346178849721705 0.0
1.7377745454545452 1.2399745454545454 0.0
1.7422999999999997 1.2445 0.0
1.6155872727272724 -1.2422372727272726 0.0
1.6106462152133578 -1.237296215213358 0.0
1.604873951762523 -1.2315239517625232 0.0
1.598270482374768 -1.224920482374768 0.0
1.5908358070500925 -1.2174858070500927 0.0
1.582569925788497 -1.2092199257884972 0.0
1.5734728385899812 -1.2001228385899814 0.0
1.5635445454545454 -1.1901945454545453 0.0
1.552785046382189 -1.1794350463821892 0.0
1.5411943413729126 -1.1678443413729127 0.0
1.5287724304267158 -1.155422430426716 0.0
1.5155193135435991 -1.142169313543599 0.0
1.501434990723562 -1.1280849907235622 0.0
1.4865194619666047 -1.1131694619666048 0.0
1.4707727272727271 -1.0974227272727273 0.0
1.4541947866419294 -1.0808447866419293 0.0
1.4367856400742112 -1.0634356400742113 0.0
1.418545287569573 -1.0451952875695731 0.0
1.3994737291280146 -1.0261237291280147 0.0
1.379570964749536 -1.0062209647495362 0.0
1.358836994434137 -0.9854869944341371 0.0
1.337271818181818 -0.9639218181818181 0.0
1.3148754359925787 -0.9415254359925787 0.0
1.291647847866419 -0.9182978478664192 0.0
1.2675890538033394 -0.8942390538033393 0.0
1.2426990538033393 -0.8693490538033395 0.0
1.2169778478664193 -0.8436278478664192 0.0
1.1904254359925788 -0.8170754359925788 0.0
1.163041818181818 -0.7896918181818181 0.0
1.1348269944341371 -0.7614769944341371 0.0
1.105780964749536 -0.7324309647495362 0.0
1.0759037291280147 -0.7025537291280148 0.0
1.0451952875695731 -0.6718452875695733 0.0
1.0136556400742114 -0.6403056400742114 0.0
0.9812847866419293 -0.6079347866419293 0.0
0.9480827272727271 -0.5747327272727272 0.0
0.9140494619666047 -0.5406994619666048 0.0
0.8791849907235622 -0.5058349907235622 0.0
0.8434893135435992 -0.47013931354359917 0.0
0.8069624304267162 -0.43361243042671627 0.0
0.7696043413729128 -0.3962543413729128 0.0
0.7314150463821893 -0.3580650463821894 0.0
0.6923945454545455 -0.3190445454545454 0.0
0.6525428385899814 -0.27919283858998134 0.0
0.6118599257884971 -0.23850992578849706 0.0
0.5703458070500929 -0.19699580705009279 0.0
0.5280004823747682 -0.15465048237476808 0.0
0.4848239517625232 -0.11147395176252317 0.0
0.4408162152133581 -0.06746621521335805 0.0
0.39597727272727273 -0.022627272727272718 0.0
0.39597727272727273 0.02262727272727273 0.0
0.4408162152133581 0.06746621521335806 0.0
0.4848239517625232 0.11147395176252319 0.0
0.528000482374768 0.15465048237476808 0.0
0.5703458070500929 0.19699580705009276 0.0
0.6118599257884971 0.23850992578849717 0.0
0.6525428385899814 0.2791928385899814 0.0
0.6923945454545455 0.3190445454545454 0.0
0.7314150463821891 0.3580650463821891 0.0
0.7696043413729128 0.39625434137291277 0.0
0.8069624304267162 0.43361243042671616 0.0
0.8434893135435992 0.4701393135435992 0.0
0.8791849907235619 0.5058349907235621 0.0
0.9140494619666046 0.5406994619666047 0.0
0.9480827272727271 0.5747327272727272 0.0
0.9812847866419294 0.6079347866419295 0.0
1.0136556400742114 0.6403056400742114 0.0
1.0451952875695731 0.6718452875695732 0.0
1.0759037291280147 0.7025537291280147 0.0
1.105780964749536 0.7324309647495362 0.0
1.1348269944341371 0.7614769944341373 0.0
1.163041818181818 0.789691818181818 0.0
1.1904254359925786 0.8170754359925786 0.0
1.216977847866419 0.843627847866419 0.0
1.2426990538033393 0.8693490538033394 0.0
1.2675890538033392 0.8942390538033393 0.0
1.291647847866419 0.9182978478664192 0.0
1.3148754359925787 0.9415254359925787 0.0
1.3372718181818182 0.9639218181818181 0.0
1.3588369944341372 0.9854869944341373 0.0
1.379570964749536 1.0062209647495362 0.0
1.3994737291280148 1.0261237291280147 0.0
1.418545287569573 1.0451952875695731 0.0
1.4367856400742112 1.0634356400742113 0.0
1.4541947866419291 1.0808447866419293 0.0
1.470772727272727 1.097422727272727 0.0
1.4865194619666047 1.1131694619666048 0.0
1.501434990723562 1.128084990723562 0.0
1.5155193135435991 1.1421693135435993 0.0
1.528772430426716 1.1554224304267162 0.0
1.5411943413729128 1.1678443413729127 0.0
1.5527850463821888 1.179435046382189 0.0
1.5635445454545451 1.1901945454545453 0.0
1.573472838589981 1.2001228385899811 0.0
1.5825699257884969 1.209219925788497 0.0
1.5908358070500925 1.2174858070500927 0.0
1.5982704823747678 1.224920482374768 0.0
1.604873951762523 1.2315239517625232 0.0
1.6106462152133578 1.237296215213358 0.0
1.6155872727272724 1.2422372727272726 0.0

CELLS 200 700
4 0 101 102 1
4 1 102 103 2
4 2 103 104 3
4 3 104 105 4
4 4 105 106 5
4 5 106 107 6
4 6 107 108 7
4 7 108 109 8
4 8 109 110 9
4 9 110 111 10
4 10 111 112 11
4 11 112 113 12
4 12 113 114 13
4 13 114 115 14
4 14 115 116 15
4 15 116 117 16
4 16 117 118 17
4 17 118 119 18
4 18 119 120 19
4 19 120 121 20
4 20 121 122 21
4 21 122 123 22
4 22 123 124 23
4 23 124 125 24
4 24 125 126 25
4 25 126 127 26
4 26 127 128 27
4 27 128 129 28
4 28 129 130 29
4 29 130 131 30
4 30 131 132 31
4 31 132 133 32
4 32 133 134 33
4 33 134 135 34
4 34 135 136 35
4 35 136 137 36
4 36 137 138 37
4 37 138 139 38
4 38 139 140 39
4 39 140 141 40
4 40 141 142 41
4 41 142 143 42
4 42 143 144 43
4 43 144 145 44
4 44 145 146 45
4 45 146 147 46
4 46 147 148 47
4 47 148 149 48
4 48 149 150 49
4 49 150 151 50
4 50 151 152 51
4 51 152 153 52
4 52 153 154 53
4 53 154 155 54
4 54 155 156 55
4 55 156 157 56
4 56 157 158 57
4 57 158 159 58
4 58 159 160 59
4 59 160 161 60
4 60 161 162 61
4 61 162 163 62
4 62 163 164 63
4 63 164 165 64
4 64 165 166 65
4 65 166 167 66
4 66 167 168 67
4 67 168 169 68
4 68 169 170 69
4 69 170 171 70
4 70 171 172 71
4 71 172 173 72
4 72 173 174 73
4 73 174 175 74
4 74 175 176 75
4 75 176 177 76
4 76 177 178 77
4 77 178 179 78
4 78 179 180 79
4 79 180 181 80
4 80 181 182 81
4 81 182 183 82
4 82 183 184 83
4 83 184 185 84
4 84 185 186 85
4 85 186 187 86
4 86 187 188 87
4 87 188 189 88
4 88 189 190 89
4 89 190 191 90
4 90 191 192 91
4 91 192 193 92
4 92 193 194 93
4 93 194 195 94
4 94 195 196 95
4 95 196 197 96
4 96 197 198 97
4 97 198 199 98
4 98 199 200 99
4 99 200 201 100
1 202
1 203
1 204
1 205
1 206
1 207
1 208
1 209
1 210
1 211
1 212
1 213
1 214
1 215
1 216
1 217
1 218
1 219
1 220
1 221
1 222
1 223
1 224
1 225
1 226
1 227
1 228
1 229
1 230
1 231
1 232
1 233
1 234
1 235
1 236
1 237
1 238
1 239
1 240
1 241
1 242
1 243
1 244
1 245
1 246
1 247
1 248
1 249
1 250
1 251
1 252
1 253
1 254
1 255
1 256
1 257
1 258
1 259
1 260
1 261
1 262
1 263
1 264
1 265
1 266
1 267
1 268
1 269
1 270
1 271
1 272
1 273
1 274
1 275
1 276
1 277
1 278
1 279
1 280
1 281
1 282
1 283
1 284
1 285
1 286
1 287
1 288
1 289
1 290
1 291
1 292
1 293
1 294
1 295
1 296
1 297
1 298
1 299
1 300
1 301

CELL_TYPES 200
9
9
9
9
9
9
9
9
9
9
9
9
9
9
9
9
9
9
9
9
9
9
9
9
9
9
9
9
9
9
9
9
9
9
9
9
9
9
9
9
9
9
9
9
9
9
9
9
9
9
9
9
9
9
9
9
9
9
9
9
9
9
9
9
9
9
9
9
9
9
9
9
9
9
9
9
9
9
9
9
9
9
9
9
9
9
9
9
9
9
9
9
9
9
9
9
9
9
9
9
1
1
1
1
1
1
1
1
1
1
1
1
1
1
1
1
1
1
1
1
1
1
1
1
1
1
1
1
1
1
1
1
1
1
1
1
1
1
1
1
1
1
1
1
1
1
1
1
1
1
1
1
1
1
1
1
1
1
1
1
1
1
1
1
1
1
1
1
1
1
1
1
1
1
1
1
1
1
1
1
1
1
1
1
1
1
1
1
1
1
1
1
1
1
1
1
1
1
1
1

CELL_DATA 200

VECTORS Vinf float
49.52884430206593 0.05707998620381469 4.271658837793474
49.53162028647247 0.05713227760610369 4.236134215126025
49.534721374965606 0.05682080827740616 4.196162077490102
49.53807488163115 0.05598869062036163 4.1525400433278135
49.541329146649524 0.04428774883834122 4.106408856536048
49.54494437857052 0.0446009731278507 4.05876911783434
49.548594933681564 0.04466370181692992 4.009985632492226
49.55220823448243 0.044457563843883545 3.960861488136773
49.55572037891878 0.043981377091917045 3.912103807704579
49.55907883031677 0.04324906215470085 3.864303626118045
49.56224366518521 0.04228595940991583 3.8179354958786664
49.56518754471111 0.04112444812384208 3.7733711742102787
49.56789473224152 0.03979969823415846 3.7308986931873616
49.5703041171777 0.04237029849970589 3.693268890856576
49.5724986752246 0.04088245536435417 3.655902800112068
49.57454029550646 0.03801694099459102 3.6196776376679867
49.57641334620865 0.03360429562830747 3.584923742234905
49.57790125299355 0.03179895786263452 3.555787966182416
49.57926090250605 0.030082523526550425 3.528687418980544
49.580434710357885 0.028366974028333502 3.504174304615049
49.58143526110754 0.026667012802722906 3.482153523847306
49.58222490038876 0.02390470473938049 3.4622843806928034
49.58296156328853 0.02208087342370485 3.4448767631333705
49.58357193797732 0.019701627815074396 3.428977706938833
49.583976180895874 0.020282202758995907 3.4165567983919938
49.58431922616827 0.018835491532862406 3.4051479266311255
49.58457444374724 0.017455690181010685 3.3954980315065066
49.58475450852517 0.016140657619480768 3.3875034267225415
49.58486632006453 0.014460515416512082 3.3815050620519194
49.58498893665498 0.012959261339163475 3.376129695415517
49.58494195414372 0.012530856626343217 3.372669478583689
49.58491064301574 0.011415136004494784 3.370631063437582
49.58484121949043 0.010328704954912444 3.3700147095706843
49.58480235439535 0.008322284923308393 3.3709958543717757
49.584682852037574 0.007245557668506455 3.3729086188716004
49.584420122112626 0.007144263893302092 3.3760752401682415
49.58419368378838 0.006077033370688718 3.3804632498623106
49.58390228545314 0.004994923918840494 3.3860643277073916
49.58364027594647 0.003503627799055824 3.3931160363205097
49.58308888611992 0.00234435636638033 3.4019696965360913
49.58232540177752 0.0016543098242658395 3.412910225552418
49.581436847472176 0.0005686535317896384 3.42672101584262
49.580423028527356 6.84579956587301e-7 3.4442435872531862
49.57905415247713 -0.001106280476135275 3.465339072357811
49.57744519856509 -0.001975299047035145 3.4910020297568964
49.57565487708862 -0.0024815100744117143 3.520069568221837
49.57390272065498 -0.002437724688887704 3.5482465952309856
49.57263342099174 -0.0017155685815286742 3.567606490137342
49.5721409919492 -0.000936065020601218 3.572655452118236
49.57236908994994 -0.00016509596369651644 3.5665080584747453
49.57237195620293 0.00025436532072816077 3.566504042688643
49.572150808427544 0.0010343576633380334 3.5726460601459484
49.5726518450058 0.0018193238517804071 3.56759328089376
49.57393370769963 0.0025536177368359514 3.5482329194842688
49.575703848392116 0.0026080386275127874 3.5200522298142483
49.57751707579299 0.0021063792309485184 3.4909764191595465
49.579149712389984 0.0012322170495101224 3.465300237964803
49.580537494073596 0.00011047711725738047 3.444187015464919
49.58156098603145 -0.00047773634435923783 3.426645600576136
49.58245039175117 -0.0015859196694989154 3.412814528046601
49.58320407671175 -0.0022945687000938534 3.4018572361608306
49.58374493242173 -0.0034690938317672245 3.392985468915187
49.5839991629408 -0.004971117462176526 3.3859167373860464
49.58428014577925 -0.006058684497282054 3.380302310485203
49.584498202449126 -0.007128400624095928 3.3759019944758046
49.58475043634574 -0.007228233145915815 3.372725402069234
49.58486477460981 -0.00830495383606424 3.3708034036157386
49.58490612107471 -0.010313386714768604 3.369807253918379
49.584973888593225 -0.011399640395766233 3.370412457957922
49.58500436102227 -0.012515384954455873 3.3724392424216636
49.58504718362131 -0.01294031114906388 3.375888712203213
49.58492557513946 -0.014442468173867821 3.3812523413117828
49.58481751407258 -0.016127094175639962 3.3872318840670887
49.584638275157154 -0.017443463021783737 3.395210129425126
49.58438403875831 -0.018824965366924313 3.4048423856858347
49.58404204740887 -0.020273745298577422 3.4162323179283427
49.583638210037535 -0.01969020716045198 3.4286379805833627
49.58302905406824 -0.0220718801808251 3.4445157254500307
49.58229352495846 -0.023898570582524342 3.4619007444688217
49.58150419891932 -0.026670043628096916 3.4817407874217605
49.58050364492708 -0.02837325792487022 3.503738050384876
49.579329420314245 -0.030091904218418355 3.528228403020446
49.577968993786456 -0.03181110944148573 3.5553076035193136
49.57647969438939 -0.03360769028383165 3.5844342797407927
49.57460566038834 -0.03802218164910525 3.6191702320335346
49.57256316087776 -0.04088932379974879 3.655378985993581
49.57036795104565 -0.042378597473462114 3.6927297276987416
49.56795779642419 -0.03981909912857171 3.730333662646813
49.56525025109923 -0.04114437209143195 3.7727910735624057
49.56230627606733 -0.04230630711331076 3.8173402135321366
49.55914157666761 -0.04326980100052367 3.8636929855047377
49.55578344820045 -0.044002519269142684 3.911477668033035
49.55227176685639 -0.044479145968498106 3.9602198150167394
49.54865902391147 -0.044685768224419324 4.009328546066539
49.54500908109194 -0.044623563550365015 4.058096925285928
49.541394481867016 -0.0443108902960823 4.105722072737433
49.538140395388105 -0.0559941517188599 4.1518562207472725
49.53478746226963 -0.05682691983523513 4.195465095022043
49.53168688902137 -0.05713904136114198 4.2354252388538445
49.52891135483624 -0.05708737024688051 4.270939234776844
49.52884430206593 0.05707998620381469 4.271658837793474
49.53162028647247 0.05713227760610369 4.236134215126025
49.534721374965606 0.05682080827740616 4.196162077490102
49.53807488163115 0.05598869062036163 4.1525400433278135
49.541329146649524 0.04428774883834122 4.106408856536048
49.54494437857052 0.0446009731278507 4.05876911783434
49.548594933681564 0.04466370181692992 4.009985632492226
49.55220823448243 0.044457563843883545 3.960861488136773
49.55572037891878 0.043981377091917045 3.912103807704579
49.55907883031677 0.04324906215470085 3.864303626118045
49.56224366518521 0.04228595940991583 3.8179354958786664
49.56518754471111 0.04112444812384208 3.7733711742102787
49.56789473224152 0.03979969823415846 3.7308986931873616
49.5703041171777 0.04237029849970589 3.693268890856576
49.5724986752246 0.04088245536435417 3.655902800112068
49.57454029550646 0.03801694099459102 3.6196776376679867
49.57641334620865 0.03360429562830747 3.584923742234905
49.57790125299355 0.03179895786263452 3.555787966182416
49.57926090250605 0.030082523526550425 3.528687418980544
49.580434710357885 0.028366974028333502 3.504174304615049
49.58143526110754 0.026667012802722906 3.482153523847306
49.58222490038876 0.02390470473938049 3.4622843806928034
49.58296156328853 0.02208087342370485 3.4448767631333705
49.58357193797732 0.019701627815074396 3.428977706938833
49.583976180895874 0.020282202758995907 3.4165567983919938
49.58431922616827 0.018835491532862406 3.4051479266311255
49.58457444374724 0.017455690181010685 3.3954980315065066
49.58475450852517 0.016140657619480768 3.3875034267225415
49.58486632006453 0.014460515416512082 3.3815050620519194
49.58498893665498 0.012959261339163475 3.376129695415517
49.58494195414372 0.012530856626343217 3.372669478583689
49.58491064301574 0.011415136004494784 3.370631063437582
49.58484121949043 0.010328704954912444 3.3700147095706843
49.58480235439535 0.008322284923308393 3.3709958543717757
49.584682852037574 0.007245557668506455 3.3729086188716004
49.584420122112626 0.007144263893302092 3.3760752401682415
49.58419368378838 0.006077033370688718 3.3804632498623106
49.58390228545314 0.004994923918840494 3.3860643277073916
49.58364027594647 0.003503627799055824 3.3931160363205097
49.58308888611992 0.00234435636638033 3.4019696965360913
49.58232540177752 0.0016543098242658395 3.412910225552418
49.581436847472176 0.0005686535317896384 3.42672101584262
49.580423028527356 6.84579956587301e-7 3.4442435872531862
49.57905415247713 -0.001106280476135275 3.465339072357811
49.57744519856509 -0.001975299047035145 3.4910020297568964
49.57565487708862 -0.0024815100744117143 3.520069568221837
49.57390272065498 -0.002437724688887704 3.5482465952309856
49.57263342099174 -0.0017155685815286742 3.567606490137342
49.5721409919492 -0.000936065020601218 3.572655452118236
49.57236908994994 -0.00016509596369651644 3.5665080584747453
49.57237195620293 0.00025436532072816077 3.566504042688643
49.572150808427544 0.0010343576633380334 3.5726460601459484
49.5726518450058 0.0018193238517804071 3.56759328089376
49.57393370769963 0.0025536177368359514 3.5482329194842688
49.575703848392116 0.0026080386275127874 3.5200522298142483
49.57751707579299 0.0021063792309485184 3.4909764191595465
49.579149712389984 0.0012322170495101224 3.465300237964803
49.580537494073596 0.00011047711725738047 3.444187015464919
49.58156098603145 -0.00047773634435923783 3.426645600576136
49.58245039175117 -0.0015859196694989154 3.412814528046601
49.58320407671175 -0.0022945687000938534 3.4018572361608306
49.58374493242173 -0.0034690938317672245 3.392985468915187
49.5839991629408 -0.004971117462176526 3.3859167373860464
49.58428014577925 -0.006058684497282054 3.380302310485203
49.584498202449126 -0.007128400624095928 3.3759019944758046
49.58475043634574 -0.007228233145915815 3.372725402069234
49.58486477460981 -0.00830495383606424 3.3708034036157386
49.58490612107471 -0.010313386714768604 3.369807253918379
49.584973888593225 -0.011399640395766233 3.370412457957922
49.58500436102227 -0.012515384954455873 3.3724392424216636
49.58504718362131 -0.01294031114906388 3.375888712203213
49.58492557513946 -0.014442468173867821 3.3812523413117828
49.58481751407258 -0.016127094175639962 3.3872318840670887
49.584638275157154 -0.017443463021783737 3.395210129425126
49.58438403875831 -0.018824965366924313 3.4048423856858347
49.58404204740887 -0.020273745298577422 3.4162323179283427
49.583638210037535 -0.01969020716045198 3.4286379805833627
49.58302905406824 -0.0220718801808251 3.4445157254500307
49.58229352495846 -0.023898570582524342 3.4619007444688217
49.58150419891932 -0.026670043628096916 3.4817407874217605
49.58050364492708 -0.02837325792487022 3.503738050384876
49.579329420314245 -0.030091904218418355 3.528228403020446
49.577968993786456 -0.03181110944148573 3.5553076035193136
49.57647969438939 -0.03360769028383165 3.5844342797407927
49.57460566038834 -0.03802218164910525 3.6191702320335346
49.57256316087776 -0.04088932379974879 3.655378985993581
49.57036795104565 -0.042378597473462114 3.6927297276987416
49.56795779642419 -0.03981909912857171 3.730333662646813
49.56525025109923 -0.04114437209143195 3.7727910735624057
49.56230627606733 -0.04230630711331076 3.8173402135321366
49.55914157666761 -0.04326980100052367 3.8636929855047377
49.55578344820045 -0.044002519269142684 3.911477668033035
49.55227176685639 -0.044479145968498106 3.9602198150167394
49.54865902391147 -0.044685768224419324 4.009328546066539
49.54500908109194 -0.044623563550365015 4.058096925285928
49.541394481867016 -0.0443108902960823 4.105722072737433
49.538140395388105 -0.0559941517188599 4.1518562207472725
49.53478746226963 -0.05682691983523513 4.195465095022043
49.53168688902137 -0.05713904136114198 4.2354252388538445
49.52891135483624 -0.05708737024688051 4.270939234776844

VECTORS L float
-0.006598489265767405 0.0 0.08985432643968226
-0.01190570835944538 0.0 0.16212489894849347
-0.0175923628006168 0.0 0.23956239773440074
-0.023849568848891854 0.0 0.3247693310515337
-0.030719358794045373 0.0 0.41831806977666686
-0.03820369456481027 0.0 0.5202353302955849
-0.04628793094255968 0.0 0.6303216826778478
-0.05494825757619714 0.0 0.748252891636575
-0.06415449676889733 0.0 0.8736180151345027
-0.07387135005400079 0.0 1.0059363795176632
-0.084059091108726 0.0 1.1446670152047351
-0.09467411197505719 0.0 1.2892160948002194
-0.10566963142035861 0.0 1.4389465791305724
-0.1169972273473519 0.0 1.5931990846974653
-0.12860177799545547 0.0 1.7512229959478924
-0.14043008429946804 0.0 1.9122938794580275
-0.1524316219569485 0.0 2.0757237251422533
-0.16456172857642173 0.0 2.2409043469535
-0.1767719168493718 0.0 2.407175473385353
-0.18901840968234176 0.0 2.5739409738558514
-0.20126122452969838 0.0 2.7406563896923326
-0.21346399099536525 0.0 2.9068264503396497
-0.22559472927611599 0.0 3.0720156737407973
-0.23762418696860504 0.0 3.2358257179581758
-0.24952979214164211 0.0 3.397949211775155
-0.26128701764141665 0.0 3.558052158909196
-0.2728749386223673 0.0 3.715849617182167
-0.28427660853264397 0.0 3.8711108184681193
-0.29547691337107823 0.0 4.023629949233058
-0.30645796270090064 0.0 4.173163388084134
-0.3172089680158561 0.0 4.319564223520278
-0.32771592899055635 0.0 4.462641807385972
-0.33796365561043795 0.0 4.602189291041744
-0.3479359748562375 0.0 4.737986439871171
-0.35761216207986296 0.0 4.869751037866923
-0.36697145565291156 0.0 4.997200365445654
-0.375988395228875 0.0 5.1199877186582805
-0.3846341235212589 0.0 5.2377201360349295
-0.3928761344118425 0.0 5.3499549684721055
-0.4006767772216174 0.0 5.4561795112784734
-0.4079924932280419 0.0 5.555800607518118
-0.41476319707535864 0.0 5.6480000503329215
-0.42092254838519993 0.0 5.731874455664214
-0.4263818960258607 0.0 5.806216624802318
-0.4310403862564355 0.0 5.86965319111845
-0.43477200470368194 0.0 5.920468165365169
-0.4374394769269505 0.0 5.956792225352934
-0.43894893419269565 0.0 5.977347122154338
-0.43933216824231847 0.0 5.98256577691161
-0.43755381967703966 0.0 5.9583492773353965
-0.4375526853026337 0.0 5.958333830095268
-0.439329708283058 0.0 5.982532278640488
-0.4389451293853683 0.0 5.977295310537184
-0.4374343219748792 0.0 5.956722028262731
-0.43476544791519106 0.0 5.9203788788952325
-0.43103235909951215 0.0 5.869543882040338
-0.426372344248384 0.0 5.806086554342718
-0.4209114593310472 0.0 5.731723451479526
-0.41475062538792334 0.0 5.647828856524579
-0.4079785390749752 0.0 5.555610588109987
-0.40066160964114533 0.0 5.455972968133196
-0.3928598210052111 0.0 5.34973282214349
-0.3846167755014417 0.0 5.23748390095551
-0.37597013208465885 0.0 5.11973902195573
-0.3669523796763871 0.0 4.996940600073196
-0.3575923613590276 0.0 4.869481403354836
-0.34791548412768264 0.0 4.7377074092418265
-0.3379425848149964 0.0 4.601902361404414