# vtk DataFile Version 4.0
[MyVLM domain - lattices] 
ASCII
DATASET UNSTRUCTURED_GRID
POINTS 302 float
1.2444999999999997 -1.2445 0.0
1.2399745454545452 -1.2399745454545454 0.0
1.2346178849721705 -1.2346178849721707 0.0
1.2284300185528754 -1.2284300185528756 0.0
1.2214109461966602 -1.2214109461966605 0.0
1.2135606679035247 -1.213560667903525 0.0
1.2048791836734691 -1.2048791836734694 0.0
1.1953664935064932 -1.1953664935064934 0.0
1.1850225974025972 -1.1850225974025974 0.0
1.1738474953617808 -1.173847495361781 0.0
1.1618411873840442 -1.1618411873840444 0.0
1.1490036734693874 -1.1490036734693876 0.0
1.1353349536178106 -1.1353349536178108 0.0
1.1208350278293133 -1.1208350278293135 0.0
1.1055038961038959 -1.105503896103896 0.0
1.0893415584415582 -1.0893415584415584 0.0
1.0723480148423004 -1.0723480148423006 0.0
1.054523265306122 -1.0545232653061223 0.0
1.0358673098330238 -1.035867309833024 0.0
1.0163801484230053 -1.0163801484230055 0.0
0.9960617810760664 -0.9960617810760668 0.0
0.9749122077922076 -0.9749122077922077 0.0
0.9529314285714284 -0.9529314285714284 0.0
0.9301194434137288 -0.930119443413729 0.0
0.9064762523191091 -0.9064762523191096 0.0
0.8820018552875695 -0.8820018552875695 0.0
0.8566962523191093 -0.8566962523191094 0.0
0.8305594434137288 -0.8305594434137291 0.0
0.8035914285714284 -0.8035914285714285 0.0
0.7757922077922076 -0.7757922077922077 0.0
0.7471617810760666 -0.7471617810760667 0.0
0.7177001484230053 -0.7177001484230054 0.0
0.6874073098330239 -0.687407309833024 0.0
0.6562832653061222 -0.6562832653061225 0.0
0.6243280148423004 -0.6243280148423005 0.0
0.5915415584415582 -0.5915415584415583 0.0
0.5579238961038958 -0.5579238961038959 0.0
0.5234750278293133 -0.5234750278293134 0.0
0.48819495361781057 -0.48819495361781057 0.0
0.4520836734693877 -0.4520836734693877 0.0
0.4151411873840445 -0.4151411873840446 0.0
0.37736749536178105 -0.37736749536178116 0.0
0.3387625974025974 -0.3387625974025974 0.0
0.2993264935064933 -0.29932649350649343 0.0
0.25905918367346925 -0.25905918367346925 0.0
0.21796066790352486 -0.21796066790352486 0.0
0.17603094619666027 -0.1760309461966605 0.0
0.13327001855287546 -0.13327001855287568 0.0
0.08967788497217066 -0.08967788497217066 0.0
0.045254545454545436 -0.045254545454545436 0.0
0.0 0.0 0.0
0.04525454545454545 0.04525454545454546 0.0
0.08967788497217066 0.08967788497217068 0.0
0.13327001855287568 0.1332700185528757 0.0
0.17603094619666046 0.1760309461966605 0.0
0.21796066790352497 0.21796066790352508 0.0
0.2590591836734693 0.25905918367346936 0.0
0.29932649350649343 0.2993264935064935 0.0
0.3387625974025973 0.33876259740259734 0.0
0.37736749536178094 0.377367495361781 0.0
0.41514118738404443 0.4151411873840445 0.0
0.45208367346938766 0.4520836734693878 0.0
0.48819495361781057 0.4881949536178107 0.0
0.5234750278293133 0.5234750278293134 0.0
0.5579238961038959 0.557923896103896 0.0
0.5915415584415582 0.5915415584415583 0.0
0.6243280148423003 0.6243280148423004 0.0
0.6562832653061222 0.6562832653061225 0.0
0.687407309833024 0.6874073098330241 0.0
0.7177001484230054 0.7177001484230056 0.0
0.7471617810760667 0.7471617810760669 0.0
0.7757922077922076 0.7757922077922077 0.0
0.8035914285714284 0.8035914285714285 0.0
0.8305594434137288 0.830559443413729 0.0
0.8566962523191093 0.8566962523191094 0.0
0.8820018552875692 0.8820018552875695 0.0
0.9064762523191091 0.9064762523191093 0.0
0.9301194434137288 0.9301194434137292 0.0
0.9529314285714284 0.9529314285714284 0.0
0.9749122077922076 0.9749122077922077 0.0
0.9960617810760666 0.9960617810760668 0.0
1.0163801484230053 1.0163801484230055 0.0
1.0358673098330238 1.035867309833024 0.0
1.054523265306122 1.0545232653061223 0.0
1.0723480148423001 1.0723480148423004 0.0
1.0893415584415582 1.0893415584415584 0.0
1.1055038961038959 1.105503896103896 0.0
1.120835027829313 1.1208350278293133 0.0
1.1353349536178106 1.1353349536178106 0.0
1.1490036734693874 1.1490036734693876 0.0
1.1618411873840444 1.1618411873840446 0.0
1.1738474953617808 1.173847495361781 0.0
1.1850225974025972 1.1850225974025972 0.0
1.1953664935064932 1.1953664935064934 0.0
1.2048791836734691 1.2048791836734694 0.0
1.2135606679035245 1.2135606679035247 0.0
1.22141094619666 1.2214109461966602 0.0
1.2284300185528754 1.2284300185528756 0.0
1.2346178849721703 1.2346178849721705 0.0
1.2399745454545452 1.2399745454545454 0.0
1.2444999999999997 1.2445 0.0
1.7422999999999997 -1.2445 0.0
1.7377745454545452 -1.2399745454545454 0.0
1.7324178849721703 -1.2346178849721707 0.0
1.7262300185528754 -1.2284300185528756 0.0
1.7192109461966603 -1.2214109461966605 0.0
1.7113606679035245 -1.213560667903525 0.0
1.7026791836734692 -1.2048791836734694 0.0
1.6931664935064934 -1.1953664935064934 0.0
1.6828225974025972 -1.1850225974025974 0.0
1.6716474953617806 -1.173847495361781 0.0
1.6596411873840444 -1.1618411873840444 0.0
1.6468036734693878 -1.1490036734693876 0.0
1.6331349536178106 -1.1353349536178108 0.0
1.6186350278293133 -1.1208350278293135 0.0
1.603303896103896 -1.105503896103896 0.0
1.5871415584415582 -1.0893415584415584 0.0
1.5701480148423004 -1.0723480148423006 0.0
1.552323265306122 -1.0545232653061223 0.0
1.5336673098330238 -1.035867309833024 0.0
1.5141801484230053 -1.0163801484230055 0.0
1.4938617810760666 -0.9960617810760668 0.0
1.4727122077922075 -0.9749122077922077 0.0
1.4507314285714283 -0.9529314285714284 0.0
1.4279194434137288 -0.930119443413729 0.0
1.4042762523191092 -0.9064762523191096 0.0
1.3798018552875693 -0.8820018552875695 0.0
1.3544962523191093 -0.8566962523191094 0.0
1.328359443413729 -0.8305594434137291 0.0
1.3013914285714283 -0.8035914285714285 0.0
1.2735922077922077 -0.7757922077922077 0.0
1.2449617810760665 -0.7471617810760667 0.0
1.2155001484230055 -0.7177001484230054 0.0
1.1852073098330238 -0.687407309833024 0.0
1.1540832653061224 -0.6562832653061225 0.0
1.1221280148423003 -0.6243280148423005 0.0
1.0893415584415582 -0.5915415584415583 0.0
1.055723896103896 -0.5579238961038959 0.0
1.0212750278293132 -0.5234750278293134 0.0
0.9859949536178108 -0.48819495361781057 0.0
0.9498836734693876 -0.4520836734693877 0.0
0.9129411873840445 -0.4151411873840446 0.0
0.875167495361781 -0.37736749536178116 0.0
0.8365625974025973 -0.3387625974025974 0.0
0.7971264935064933 -0.29932649350649343 0.0
0.7568591836734693 -0.25905918367346925 0.0
0.7157606679035249 -0.21796066790352486 0.0
0.6738309461966603 -0.1760309461966605 0.0
0.6310700185528755 -0.13327001855287568 0.0
0.5874778849721707 -0.08967788497217066 0.0
0.5430545454545455 -0.045254545454545436 0.0
0.4978 0.0 0.0
0.5430545454545455 0.04525454545454546 0.0
0.5874778849721707 0.08967788497217068 0.0
0.6310700185528757 0.1332700185528757 0.0
0.6738309461966605 0.1760309461966605 0.0
0.715760667903525 0.21796066790352508 0.0
0.7568591836734693 0.25905918367346936 0.0
0.7971264935064934 0.2993264935064935 0.0
0.8365625974025973 0.33876259740259734 0.0
0.875167495361781 0.377367495361781 0.0
0.9129411873840445 0.4151411873840445 0.0
0.9498836734693876 0.4520836734693878 0.0
0.9859949536178105 0.4881949536178107 0.0
1.0212750278293132 0.5234750278293134 0.0
1.055723896103896 0.557923896103896 0.0
1.0893415584415582 0.5915415584415583 0.0
1.1221280148423003 0.6243280148423004 0.0
1.1540832653061224 0.6562832653061225 0.0
1.185207309833024 0.6874073098330241 0.0
1.2155001484230055 0.7177001484230056 0.0
1.2449617810760667 0.7471617810760669 0.0
1.2735922077922077 0.7757922077922077 0.0
1.3013914285714283 0.8035914285714285 0.0
1.3283594434137287 0.830559443413729 0.0
1.3544962523191093 0.8566962523191094 0.0
1.3798018552875693 0.8820018552875695 0.0
1.4042762523191092 0.9064762523191093 0.0
1.427919443413729 0.9301194434137292 0.0
1.4507314285714283 0.9529314285714284 0.0
1.4727122077922075 0.9749122077922077 0.0
1.4938617810760666 0.9960617810760668 0.0
1.5141801484230053 1.0163801484230055 0.0
1.5336673098330238 1.035867309833024 0.0
1.552323265306122 1.0545232653061223 0.0
1.5701480148423002 1.0723480148423004 0.0
1.5871415584415582 1.0893415584415584 0.0
1.603303896103896 1.105503896103896 0.0
1.6186350278293131 1.1208350278293133 0.0
1.6331349536178106 1.1353349536178106 0.0
1.6468036734693874 1.1490036734693876 0.0
1.6596411873840444 1.1618411873840446 0.0
1.6716474953617806 1.173847495361781 0.0
1.6828225974025972 1.1850225974025972 0.0
1.6931664935064934 1.1953664935064934 0.0
1.7026791836734692 1.2048791836734694 0.0
1.7113606679035245 1.2135606679035247 0.0
1.71921094619666 1.2214109461966602 0.0
1.7262300185528754 1.2284300185528756 0.0
1.7324178849721703 1.2346178849721705 0.0
1.7377745454545452 1.2399745454545454 0.0
1.7422999999999997 1.2445 0.0
1.6155872727272724 -1.2422372727272726 0.0
1.6106462152133578 -1.237296215213358 0.0
1.604873951762523 -1.2315239517625232 0.0
1.598270482374768 -1.224920482374768 0.0
1.5908358070500925 -1.2174858070500927 0.0
1.582569925788497 -1.2092199257884972 0.0
1.5734728385899812 -1.2001228385899814 0.0
1.5635445454545454 -1.1901945454545453 0.0
1.552785046382189 -1.1794350463821892 0.0
1.5411943413729126 -1.1678443413729127 0.0
1.5287724304267158 -1.155422430426716 0.0
1.5155193135435991 -1.142169313543599 0.0
1.501434990723562 -1.1280849907235622 0.0
1.4865194619666047 -1.1131694619666048 0.0
1.4707727272727271 -1.0974227272727273 0.0
1.4541947866419294 -1.0808447866419293 0.0
1.4367856400742112 -1.0634356400742113 0.0
1.418545287569573 -1.0451952875695731 0.0
1.3994737291280146 -1.0261237291280147 0.0
1.379570964749536 -1.0062209647495362 0.0
1.358836994434137 -0.9854869944341371 0.0
1.337271818181818 -0.9639218181818181 0.0
1.3148754359925787 -0.9415254359925787 0.0
1.291647847866419 -0.9182978478664192 0.0
1.2675890538033394 -0.8942390538033393 0.0
1.2426990538033393 -0.8693490538033395 0.0
1.2169778478664193 -0.8436278478664192 0.0
1.1904254359925788 -0.8170754359925788 0.0
1.163041818181818 -0.7896918181818181 0.0
1.1348269944341371 -0.7614769944341371 0.0
1.105780964749536 -0.7324309647495362 0.0
1.0759037291280147 -0.7025537291280148 0.0
1.0451952875695731 -0.6718452875695733 0.0
1.0136556400742114 -0.6403056400742114 0.0
0.9812847866419293 -0.6079347866419293 0.0
0.9480827272727271 -0.5747327272727272 0.0
0.9140494619666047 -0.5406994619666048 0.0
0.8791849907235622 -0.5058349907235622 0.0
0.8434893135435992 -0.47013931354359917 0.0
0.8069624304267162 -0.43361243042671627 0.0
0.7696043413729128 -0.3962543413729128 0.0
0.7314150463821893 -0.3580650463821894 0.0
0.6923945454545455 -0.3190445454545454 0.0
0.6525428385899814 -0.27919283858998134 0.0
0.6118599257884971 -0.23850992578849706 0.0
0.5703458070500929 -0.19699580705009279 0.0
0.5280004823747682 -0.15465048237476808 0.0
0.4848239517625232 -0.11147395176252317 0.0
0.4408162152133581 -0.06746621521335805 0.0
0.39597727272727273 -0.022627272727272718 0.0
0.39597727272727273 0.02262727272727273 0.0
0.4408162152133581 0.06746621521335806 0.0
0.4848239517625232 0.11147395176252319 0.0
0.528000482374768 0.15465048237476808 0.0
0.5703458070500929 0.19699580705009276 0.0
0.6118599257884971 0.23850992578849717 0.0
0.6525428385899814 0.2791928385899814 0.0
0.6923945454545455 0.3190445454545454 0.0
0.7314150463821891 0.3580650463821891 0.0
0.7696043413729128 0.39625434137291277 0.0
0.8069624304267162 0.43361243042671616 0.0
0.8434893135435992 0.4701393135435992 0.0
0.8791849907235619 0.5058349907235621 0.0
0.9140494619666046 0.5406994619666047 0.0
0.9480827272727271 0.5747327272727272 0.0
0.9812847866419294 0.6079347866419295 0.0
1.0136556400742114 0.6403056400742114 0.0
1.0451952875695731 0.6718452875695732 0.0
1.0759037291280147 0.7025537291280147 0.0
1.105780964749536 0.7324309647495362 0.0
1.1348269944341371 0.7614769944341373 0.0
1.163041818181818 0.789691818181818 0.0
1.1904254359925786 0.8170754359925786 0.0
1.216977847866419 0.843627847866419 0.0
1.2426990538033393 0.8693490538033394 0.0
1.2675890538033392 0.8942390538033393 0.0
1.291647847866419 0.9182978478664192 0.0
1.3148754359925787 0.9415254359925787 0.0
1.3372718181818182 0.9639218181818181 0.0
1.3588369944341372 0.9854869944341373 0.0
1.379570964749536 1.0062209647495362 0.0
1.3994737291280148 1.0261237291280147 0.0
1.418545287569573 1.0451952875695731 0.0
1.4367856400742112 1.0634356400742113 0.0
1.4541947866419291 1.0808447866419293 0.0
1.470772727272727 1.097422727272727 0.0
1.4865194619666047 1.1131694619666048 0.0
1.501434990723562 1.128084990723562 0.0
1.5155193135435991 1.1421693135435993 0.0
1.528772430426716 1.1554224304267162 0.0
1.5411943413729128 1.1678443413729127 0.0
1.5527850463821888 1.179435046382189 0.0
1.5635445454545451 1.1901945454545453 0.0
1.573472838589981 1.2001228385899811 0.0
1.5825699257884969 1.209219925788497 0.0
1.5908358070500925 1.2174858070500927 0.0
1.5982704823747678 1.224920482374768 0.0
1.604873951762523 1.2315239517625232 0.0
1.6106462152133578 1.237296215213358 0.0
1.6155872727272724 1.2422372727272726 0.0

CELLS 200 700
4 0 101 102 1
4 1 102 103 2
4 2 103 104 3
4 3 104 105 4
4 4 105 106 5
4 5 106 107 6
4 6 107 108 7
4 7 108 109 8
4 8 109 110 9
4 9 110 111 10
4 10 111 112 11
4 11 112 113 12
4 12 113 114 13
4 13 114 115 14
4 14 115 116 15
4 15 116 117 16
4 16 117 118 17
4 17 118 119 18
4 18 119 120 19
4 19 120 121 20
4 20 121 122 21
4 21 122 123 22
4 22 123 124 23
4 23 124 125 24
4 24 125 126 25
4 25 126 127 26
4 26 127 128 27
4 27 128 129 28
4 28 129 130 29
4 29 130 131 30
4 30 131 132 31
4 31 132 133 32
4 32 133 134 33
4 33 134 135 34
4 34 135 136 35
4 35 136 137 36
4 36 137 138 37
4 37 138 139 38
4 38 139 140 39
4 39 140 141 40
4 40 141 142 41
4 41 142 143 42
4 42 143 144 43
4 43 144 145 44
4 44 145 146 45
4 45 146 147 46
4 46 147 148 47
4 47 148 149 48
4 48 149 150 49
4 49 150 151 50
4 50 151 152 51
4 51 152 153 52
4 52 153 154 53
4 53 154 155 54
4 54 155 156 55
4 55 156 157 56
4 56 157 158 57
4 57 158 159 58
4 58 159 160 59
4 59 160 161 60
4 60 161 162 61
4 61 162 163 62
4 62 163 164 63
4 63 164 165 64
4 64 165 166 65
4 65 166 167 66
4 66 167 168 67
4 67 168 169 68
4 68 169 170 69
4 69 170 171 70
4 70 171 172 71
4 71 172 173 72
4 72 173 174 73
4 73 174 175 74
4 74 175 176 75
4 75 176 177 76
4 76 177 178 77
4 77 178 179 78
4 78 179 180 79
4 79 180 181 80
4 80 181 182 81
4 81 182 183 82
4 82 183 184 83
4 83 184 185 84
4 84 185 186 85
4 85 186 187 86
4 86 187 188 87
4 87 188 189 88
4 88 189 190 89
4 89 190 191 90
4 90 191 192 91
4 91 192 193 92
4 92 193 194 93
4 93 194 195 94
4 94 195 196 95
4 95 196 197 96
4 96 197 198 97
4 97 198 199 98
4 98 199 200 99
4 99 200 201 100
1 202
1 203
1 204
1 205
1 206
1 207
1 208
1 209
1 210
1 211
1 212
1 213
1 214
1 215
1 216
1 217
1 218
1 219
1 220
1 221
1 222
1 223
1 224
1 225
1 226
1 227
1 228
1 229
1 230
1 231
1 232
1 233
1 234
1 235
1 236
1 237
1 238
1 239
1 240
1 241
1 242
1 243
1 244
1 245
1 246
1 247
1 248
1 249
1 250
1 251
1 252
1 253
1 254
1 255
1 256
1 257
1 258
1 259
1 260
1 261
1 262
1 263
1 264
1 265
1 266
1 267
1 268
1 269
1 270
1 271
1 272
1 273
1 274
1 275
1 276
1 277
1 278
1 279
1 280
1 281
1 282
1 283
1 284
1 285
1 286
1 287
1 288
1 289
1 290
1 291
1 292
1 293
1 294
1 295
1 296
1 297
1 298
1 299
1 300
1 301

CELL_TYPES 200
9
9
9
9
9
9
9
9
9
9
9
9
9
9
9
9
9
9
9
9
9
9
9
9
9
9
9
9
9
9
9
9
9
9
9
9
9
9
9
9
9
9
9
9
9
9
9
9
9
9
9
9
9
9
9
9
9
9
9
9
9
9
9
9
9
9
9
9
9
9
9
9
9
9
9
9
9
9
9
9
9
9
9
9
9
9
9
9
9
9
9
9
9
9
9
9
9
9
9
9
1
1
1
1
1
1
1
1
1
1
1
1
1
1
1
1
1
1
1
1
1
1
1
1
1
1
1
1
1
1
1
1
1
1
1
1
1
1
1
1
1
1
1
1
1
1
1
1
1
1
1
1
1
1
1
1
1
1
1
1
1
1
1
1
1
1
1
1
1
1
1
1
1
1
1
1
1
1
1
1
1
1
1
1
1
1
1
1
1
1
1
1
1
1
1
1
1
1
1
1

CELL_DATA 200

VECTORS Vvpm float
-0.010865862373762157 0.011864503921392938 0.14796489097071194
-0.010294420122540737 0.012083644660395387 0.140183328174352
-0.009650869898058623 0.012277704586189962 0.1314198416213097
-0.008950573004042665 0.012424159320860266 0.12188361246563677
-0.008211751494071367 0.012502874570139634 0.11182277786186953
-0.0074541195941742 0.012498430852061844 0.10150579448695464
-0.006697058339415939 0.012401960880715105 0.09119658182023177
-0.005957743586085005 0.012211996437577862 0.08112903051995016
-0.005249703148775107 0.011934039610675636 0.07148735436892596
-0.0045821556752778 0.01157895709139251 0.06239708746362148
-0.003960206037486333 0.01116068508246808 0.05392774493197801
-0.0033856726672721973 0.010693926630164054 0.04610408910434248
-0.002858156127639845 0.010192417871459653 0.03892068068381757
-0.00237599337460987 0.009668010195283289 0.03235487332052068
-0.0019369158253027343 0.009130466197745359 0.026375774793762578
-0.00153841050559484 0.008587677861775096 0.020949164907352668
-0.0011778795156075288 0.008046022303018652 0.016039666996367753
-0.0008526987109124477 0.00751068520093545 0.011611547013120005
-0.0005602399814386873 0.00698589656826 0.007629016908145512
-0.0002978860558792675 0.006475087071993215 0.004056436227860581
-6.304688757396732e-5 0.00598099141516054 0.000858535247828653
0.0001468213038910731 0.005505722121913687 -0.0019993257299920322
0.0003341957233306984 0.005050828921336862 -0.0045508798164888035
0.0005014671622823188 0.004617351966587438 -0.006828683397615965
0.0006509218898937732 0.004205872455165965 -0.008863869535210038
0.0007847257760585296 0.0038165615155486407 -0.010685931765229835
0.0009049104366949747 0.0034492269291773905 -0.012322535432359293
0.0010133606300495074 0.0031033568142757456 -0.01379934606031313
0.0011118016962161931 0.002778159379660978 -0.01513985831063995
0.0012017854264773933 0.0024725979945265588 -0.01636520355975576
0.001284672265877764 0.0021854209848083755 -0.017493907544116612
0.0013616070787479187 0.001915185720074157 -0.01854156034944494
0.0014334847115106636 0.0016602767114868768 -0.01952034746538086
0.001500900092238943 0.0014189176536846281 -0.020438370270758403
0.001564075347233192 0.0011891777130039664 -0.021298653550237558
0.0016227529810984814 0.0009689730861613615 -0.022097690883736247
0.0016760389156694135 0.0007560663146924362 -0.02282330724328966
0.0017221711118613507 0.0005480688361472968 -0.023451508222188364
0.0017581770807197947 0.00034245846305352783 -0.023941816222894725
0.0017793646638503908 0.00013663656928722658 -0.02423033620593955
0.0017785626034465293 -7.192197718039967e-5 -0.024219414221458645
0.001744990527135238 -0.0002853101113664634 -0.02376224953077855
0.001662605822037623 -0.0005043589850408187 -0.02264038331453808
0.0015078324408125967 -0.0007267142876527454 -0.020532770895899295
0.001247329891231352 -0.0009421586004723468 -0.01698540115932764
0.0008423496087374398 -0.0011202136756260114 -0.011470619057053318
0.00029171724062755655 -0.0011823406139490707 -0.003972432948124565
-0.0002527969139925017 -0.0010002149533796581 0.0034424389459848203
-0.0005013310926554619 -0.0005640247185517226 0.00682683048190546
-0.0003936553635619426 -0.0001339302553480785 0.005360566050446212
-0.0003936553635633591 0.00013393025534071178 0.005360566050447646
-0.0005013310926608806 0.0005640247185458708 0.0068268304819109485
-0.00025279691399998546 0.00100021495337772 0.003442438945992442
0.00029171724062141416 0.0011823406139496394 -0.00397243294811822
0.0008423496087334837 0.0011202136756271533 -0.01147061905704914
0.0012473298912288773 0.000942158600473378 -0.016985401159325002
0.0015078324408109604 0.000726714287653578 -0.020532770895897643
0.0016626058220364764 0.0005043589850414789 -0.022640383314537063
0.0017449905271343905 0.00028531011136699065 -0.023762249530777903
0.0017785626034458738 7.192197718082662e-5 -0.02421941422145817
0.0017793646638498619 -0.00013663656928687105 -0.02423033620593912
0.0017581770807193553 -0.00034245846305322306 -0.023941816222894305
0.0017221711118609803 -0.0005480688361470285 -0.02345150822218797
0.0016760389156690993 -0.0007560663146921992 -0.022823307243289345
0.0016227529810982138 -0.0009689730861611538 -0.022097690883736042
0.0015640753472329612 -0.001189177713003784 -0.021298653550237415
0.0015009000922387393 -0.0014189176536844655 -0.020438370270758295
0.0014334847115104843 -0.0016602767114867318 -0.0195203474653808
0.0013616070787477589 -0.0019151857200740276 -0.018541560349444926
0.0012846722658776206 -0.002185420984808262 -0.017493907544116612
0.0012017854264772614 -0.00247259799452646 -0.01636520355975576
0.0011118016962160728 -0.0027781593796608905 -0.015139858310639971
0.0010133606300493949 -0.003103356814275667 -0.013799346060313116
0.000904910436694868 -0.0034492269291773207 -0.012322535432359267
0.0007847257760584291 -0.003816561515548586 -0.010685931765229802
0.0006509218898936713 -0.004205872455165919 -0.008863869535209906
0.0005014671622822202 -0.0046173519665874034 -0.006828683397615793
0.00033419572333059656 -0.00505082892133683 -0.004550879816488525
0.0001468213038909708 -0.005505722121913664 -0.0019993257299916966
-6.304688757407601e-5 -0.005980991415160525 0.0008585352478291259
-0.00029788605587937597 -0.006475087071993189 0.004056436227861095
-0.0005602399814387994 -0.006985896568259983 0.007629016908146095
-0.0008526987109125627 -0.007510685200935428 0.011611547013120714
-0.0011778795156076485 -0.00804602230301863 0.016039666996368548
-0.0015384105055949674 -0.00858767786177508 0.020949164907353605
-0.001936915825302858 -0.009130466197745329 0.02637577479376348
-0.0023759933746100065 -0.009668010195283263 0.03235487332052177
-0.0028581561276399773 -0.010192417871459606 0.038920680683818605
-0.0033856726672723556 -0.010693926630164014 0.04610408910434395
-0.003960206037486495 -0.011160685082468029 0.05392774493197953
-0.004582155675277955 -0.011578957091392434 0.06239708746362297
-0.0052497031487752565 -0.011934039610675549 0.07148735436892727
-0.005957743586085164 -0.012211996437577758 0.08112903051995164
-0.00669705833941608 -0.012401960880714984 0.09119658182023303
-0.007454119594174333 -0.012498430852061728 0.1015057944869558
-0.008211751494071516 -0.012502874570139507 0.11182277786187096
-0.008950573004042799 -0.012424159320860132 0.12188361246563809
-0.009650869898058762 -0.01227770458618981 0.13141984162131096
-0.010294420122540872 -0.01208364466039524 0.14018332817435322
-0.010865862373762279 -0.011864503921392787 0.14796489097071308
-0.010865862373762157 0.011864503921392938 0.14796489097071194
-0.010294420122540737 0.012083644660395387 0.140183328174352
-0.009650869898058623 0.012277704586189962 0.1314198416213097
-0.008950573004042665 0.012424159320860266 0.12188361246563677
-0.008211751494071367 0.012502874570139634 0.11182277786186953
-0.0074541195941742 0.012498430852061844 0.10150579448695464
-0.006697058339415939 0.012401960880715105 0.09119658182023177
-0.005957743586085005 0.012211996437577862 0.08112903051995016
-0.005249703148775107 0.011934039610675636 0.07148735436892596
-0.0045821556752778 0.01157895709139251 0.06239708746362148
-0.003960206037486333 0.01116068508246808 0.05392774493197801
-0.0033856726672721973 0.010693926630164054 0.04610408910434248
-0.002858156127639845 0.010192417871459653 0.03892068068381757
-0.00237599337460987 0.009668010195283289 0.03235487332052068
-0.0019369158253027343 0.009130466197745359 0.026375774793762578
-0.00153841050559484 0.008587677861775096 0.020949164907352668
-0.0011778795156075288 0.008046022303018652 0.016039666996367753
-0.0008526987109124477 0.00751068520093545 0.011611547013120005
-0.0005602399814386873 0.00698589656826 0.007629016908145512
-0.0002978860558792675 0.006475087071993215 0.004056436227860581
-6.304688757396732e-5 0.00598099141516054 0.000858535247828653
0.0001468213038910731 0.005505722121913687 -0.0019993257299920322
0.0003341957233306984 0.005050828921336862 -0.0045508798164888035
0.0005014671622823188 0.004617351966587438 -0.006828683397615965
0.0006509218898937732 0.004205872455165965 -0.008863869535210038
0.0007847257760585296 0.0038165615155486407 -0.010685931765229835
0.0009049104366949747 0.0034492269291773905 -0.012322535432359293
0.0010133606300495074 0.0031033568142757456 -0.01379934606031313
0.0011118016962161931 0.002778159379660978 -0.01513985831063995
0.0012017854264773933 0.0024725979945265588 -0.01636520355975576
0.001284672265877764 0.0021854209848083755 -0.017493907544116612
0.0013616070787479187 0.001915185720074157 -0.01854156034944494
0.0014334847115106636 0.0016602767114868768 -0.01952034746538086
0.001500900092238943 0.0014189176536846281 -0.020438370270758403
0.001564075347233192 0.0011891777130039664 -0.021298653550237558
0.0016227529810984814 0.0009689730861613615 -0.022097690883736247
0.0016760389156694135 0.0007560663146924362 -0.02282330724328966
0.0017221711118613507 0.0005480688361472968 -0.023451508222188364
0.0017581770807197947 0.00034245846305352783 -0.023941816222894725
0.0017793646638503908 0.00013663656928722658 -0.02423033620593955
0.0017785626034465293 -7.192197718039967e-5 -0.024219414221458645
0.001744990527135238 -0.0002853101113664634 -0.02376224953077855
0.001662605822037623 -0.0005043589850408187 -0.02264038331453808
0.0015078324408125967 -0.0007267142876527454 -0.020532770895899295
0.001247329891231352 -0.0009421586004723468 -0.01698540115932764
0.0008423496087374398 -0.0011202136756260114 -0.011470619057053318
0.00029171724062755655 -0.0011823406139490707 -0.003972432948124565
-0.0002527969139925017 -0.0010002149533796581 0.0034424389459848203
-0.0005013310926554619 -0.0005640247185517226 0.00682683048190546
-0.0003936553635619426 -0.0001339302553480785 0.005360566050446212
-0.0003936553635633591 0.00013393025534071178 0.005360566050447646
-0.0005013310926608806 0.0005640247185458708 0.0068268304819109485
-0.00025279691399998546 0.00100021495337772 0.003442438945992442
0.00029171724062141416 0.0011823406139496394 -0.00397243294811822
0.0008423496087334837 0.0011202136756271533 -0.01147061905704914
0.0012473298912288773 0.000942158600473378 -0.016985401159325002
0.0015078324408109604 0.000726714287653578 -0.020532770895897643
0.0016626058220364764 0.0005043589850414789 -0.022640383314537063
0.0017449905271343905 0.00028531011136699065 -0.023762249530777903
0.0017785626034458738 7.192197718082662e-5 -0.02421941422145817
0.0017793646638498619 -0.00013663656928687105 -0.02423033620593912
0.0017581770807193553 -0.00034245846305322306 -0.023941816222894305
0.0017221711118609803 -0.0005480688361470285 -0.02345150822218797
0.0016760389156690993 -0.0007560663146921992 -0.022823307243289345
0.0016227529810982138 -0.0009689730861611538 -0.022097690883736042
0.0015640753472329612 -0.001189177713003784 -0.021298653550237415
0.0015009000922387393 -0.0014189176536844655 -0.020438370270758295
0.0014334847115104843 -0.0016602767114867318 -0.0195203474653808
0.0013616070787477589 -0.0019151857200740276 -0.018541560349444926
0.0012846722658776206 -0.002185420984808262 -0.017493907544116612
0.0012017854264772614 -0.00247259799452646 -0.01636520355975576
0.0011118016962160728 -0.0027781593796608905 -0.015139858310639971
0.0010133606300493949 -0.003103356814275667 -0.013799346060313116
0.000904910436694868 -0.0034492269291773207 -0.012322535432359267
0.0007847257760584291 -0.003816561515548586 -0.010685931765229802
0.0006509218898936713 -0.004205872455165919 -0.008863869535209906
0.0005014671622822202 -0.0046173519665874034 -0.006828683397615793
0.00033419572333059656 -0.00505082892133683 -0.004550879816488525
0.0001468213038909708 -0.005505722121913664 -0.0019993257299916966
-6.304688757407601e-5 -0.005980991415160525 0.0008585352478291259
-0.00029788605587937597 -0.006475087071993189 0.004056436227861095
-0.0005602399814387994 -0.006985896568259983 0.007629016908146095
-0.0008526987109125627 -0.007510685200935428 0.011611547013120714
-0.0011778795156076485 -0.00804602230301863 0.016039666996368548
-0.0015384105055949674 -0.00858767786177508 0.020949164907353605
-0.001936915825302858 -0.009130466197745329 0.02637577479376348
-0.0023759933746100065 -0.009668010195283263 0.03235487332052177
-0.0028581561276399773 -0.010192417871459606 0.038920680683818605
-0.0033856726672723556 -0.010693926630164014 0.04610408910434395
-0.003960206037486495 -0.011160685082468029 0.05392774493197953
-0.004582155675277955 -0.011578957091392434 0.06239708746362297
-0.0052497031487752565 -0.011934039610675549 0.07148735436892727
-0.005957743586085164 -0.012211996437577758 0.08112903051995164
-0.00669705833941608 -0.012401960880714984 0.09119658182023303
-0.007454119594174333 -0.012498430852061728 0.1015057944869558
-0.008211751494071516 -0.012502874570139507 0.11182277786187096
-0.008950573004042799 -0.012424159320860132 0.12188361246563809
-0.009650869898058762 -0.01227770458618981 0.13141984162131096
-0.010294420122540872 -0.01208364466039524 0.14018332817435322
-0.010865862373762279 -0.011864503921392787 0.14796489097071308

VECTORS Vvpm_BBp float
-0.00771404140637152 0.010871208932818939 0.10504525608510208
-0.007346252693636419 0.010840420005077447 0.10003692679579364
-0.006939037399957974 0.01077986774673388 0.09449170963233752
-0.006500298544063408 0.0106833931014667 0.08851722323226943
-0.00603854180863517 0.010546553711747793 0.08222929295463102
-0.005562409824943545 0.010366989291888506 0.07574560904338272
-0.0050802040674511 0.010144507907660378 0.06917921607073593
-0.004599477460926163 0.00988089815729475 0.06263296530163522
-0.004126756761890343 0.00957953697351978 0.05619573424841184
-0.0036674131890517456 0.009244902310129763 0.04994066499249344
-0.0032256610002543056 0.008882098973477987 0.04392514480614167
-0.002804641900210025 0.00849647009845435 0.038191955567055985
-0.002406551878523081 0.008093318773192571 0.032771000963611845
-0.0020327788874507516 0.007677727509581554 0.02768118130922713
-0.0016840340785811536 0.007254447944478037 0.02293218064586561
-0.0013604696704263473 0.006827834943909111 0.018526071795247782
-0.0010617820171076374 0.0064018078158418305 0.014458719887283348
-0.0007873008295063265 0.005979829096708109 0.010720997320963252
-0.0005360663530921302 0.0055648960658619085 0.007299834726407109
-0.00030689639348317527 0.005159542401878039 0.004179133679320257
-9.844477612794375e-5 0.0047658483165642015 0.001340562770386871
9.074757496693232e-5 0.004385457770206871 -0.0012357468348076887
0.0002622080481499489 0.004019601354387904 -0.0035705942079506357