# vtk DataFile Version 4.0
[MyVLM domain - lattices] 
ASCII
DATASET UNSTRUCTURED_GRID
POINTS 302 float
1.2444999999999997 -1.2445 0.0
1.2399745454545452 -1.2399745454545454 0.0
1.2346178849721705 -1.2346178849721707 0.0
1.2284300185528754 -1.2284300185528756 0.0
1.2214109461966602 -1.2214109461966605 0.0
1.2135606679035247 -1.213560667903525 0.0
1.2048791836734691 -1.2048791836734694 0.0
1.1953664935064932 -1.1953664935064934 0.0
1.1850225974025972 -1.1850225974025974 0.0
1.1738474953617808 -1.173847495361781 0.0
1.1618411873840442 -1.1618411873840444 0.0
1.1490036734693874 -1.1490036734693876 0.0
1.1353349536178106 -1.1353349536178108 0.0
1.1208350278293133 -1.1208350278293135 0.0
1.1055038961038959 -1.105503896103896 0.0
1.0893415584415582 -1.0893415584415584 0.0
1.0723480148423004 -1.0723480148423006 0.0
1.054523265306122 -1.0545232653061223 0.0
1.0358673098330238 -1.035867309833024 0.0
1.0163801484230053 -1.0163801484230055 0.0
0.9960617810760664 -0.9960617810760668 0.0
0.9749122077922076 -0.9749122077922077 0.0
0.9529314285714284 -0.9529314285714284 0.0
0.9301194434137288 -0.930119443413729 0.0
0.9064762523191091 -0.9064762523191096 0.0
0.8820018552875695 -0.8820018552875695 0.0
0.8566962523191093 -0.8566962523191094 0.0
0.8305594434137288 -0.8305594434137291 0.0
0.8035914285714284 -0.8035914285714285 0.0
0.7757922077922076 -0.7757922077922077 0.0
0.7471617810760666 -0.7471617810760667 0.0
0.7177001484230053 -0.7177001484230054 0.0
0.6874073098330239 -0.687407309833024 0.0
0.6562832653061222 -0.6562832653061225 0.0
0.6243280148423004 -0.6243280148423005 0.0
0.5915415584415582 -0.5915415584415583 0.0
0.5579238961038958 -0.5579238961038959 0.0
0.5234750278293133 -0.5234750278293134 0.0
0.48819495361781057 -0.48819495361781057 0.0
0.4520836734693877 -0.4520836734693877 0.0
0.4151411873840445 -0.4151411873840446 0.0
0.37736749536178105 -0.37736749536178116 0.0
0.3387625974025974 -0.3387625974025974 0.0
0.2993264935064933 -0.29932649350649343 0.0
0.25905918367346925 -0.25905918367346925 0.0
0.21796066790352486 -0.21796066790352486 0.0
0.17603094619666027 -0.1760309461966605 0.0
0.13327001855287546 -0.13327001855287568 0.0
0.08967788497217066 -0.08967788497217066 0.0
0.045254545454545436 -0.045254545454545436 0.0
0.0 0.0 0.0
0.04525454545454545 0.04525454545454546 0.0
0.08967788497217066 0.08967788497217068 0.0
0.13327001855287568 0.1332700185528757 0.0
0.17603094619666046 0.1760309461966605 0.0
0.21796066790352497 0.21796066790352508 0.0
0.2590591836734693 0.25905918367346936 0.0
0.29932649350649343 0.2993264935064935 0.0
0.3387625974025973 0.33876259740259734 0.0
0.37736749536178094 0.377367495361781 0.0
0.41514118738404443 0.4151411873840445 0.0
0.45208367346938766 0.4520836734693878 0.0
0.48819495361781057 0.4881949536178107 0.0
0.5234750278293133 0.5234750278293134 0.0
0.5579238961038959 0.557923896103896 0.0
0.5915415584415582 0.5915415584415583 0.0
0.6243280148423003 0.6243280148423004 0.0
0.6562832653061222 0.6562832653061225 0.0
0.687407309833024 0.6874073098330241 0.0
0.7177001484230054 0.7177001484230056 0.0
0.7471617810760667 0.7471617810760669 0.0
0.7757922077922076 0.7757922077922077 0.0
0.8035914285714284 0.8035914285714285 0.0
0.8305594434137288 0.830559443413729 0.0
0.8566962523191093 0.8566962523191094 0.0
0.8820018552875692 0.8820018552875695 0.0
0.9064762523191091 0.9064762523191093 0.0
0.9301194434137288 0.9301194434137292 0.0
0.9529314285714284 0.9529314285714284 0.0
0.9749122077922076 0.9749122077922077 0.0
0.9960617810760666 0.9960617810760668 0.0
1.0163801484230053 1.0163801484230055 0.0
1.0358673098330238 1.035867309833024 0.0
1.054523265306122 1.0545232653061223 0.0
1.0723480148423001 1.0723480148423004 0.0
1.0893415584415582 1.0893415584415584 0.0
1.1055038961038959 1.105503896103896 0.0
1.120835027829313 1.1208350278293133 0.0
1.1353349536178106 1.1353349536178106 0.0
1.1490036734693874 1.1490036734693876 0.0
1.1618411873840444 1.1618411873840446 0.0
1.1738474953617808 1.173847495361781 0.0
1.1850225974025972 1.1850225974025972 0.0
1.1953664935064932 1.1953664935064934 0.0
1.2048791836734691 1.2048791836734694 0.0
1.2135606679035245 1.2135606679035247 0.0
1.22141094619666 1.2214109461966602 0.0
1.2284300185528754 1.2284300185528756 0.0
1.2346178849721703 1.2346178849721705 0.0
1.2399745454545452 1.2399745454545454 0.0
1.2444999999999997 1.2445 0.0
1.7422999999999997 -1.2445 0.0
1.7377745454545452 -1.2399745454545454 0.0
1.7324178849721703 -1.2346178849721707 0.0
1.7262300185528754 -1.2284300185528756 0.0
1.7192109461966603 -1.2214109461966605 0.0
1.7113606679035245 -1.213560667903525 0.0
1.7026791836734692 -1.2048791836734694 0.0
1.6931664935064934 -1.1953664935064934 0.0
1.6828225974025972 -1.1850225974025974 0.0
1.6716474953617806 -1.173847495361781 0.0
1.6596411873840444 -1.1618411873840444 0.0
1.6468036734693878 -1.1490036734693876 0.0
1.6331349536178106 -1.1353349536178108 0.0
1.6186350278293133 -1.1208350278293135 0.0
1.603303896103896 -1.105503896103896 0.0
1.5871415584415582 -1.0893415584415584 0.0
1.5701480148423004 -1.0723480148423006 0.0
1.552323265306122 -1.0545232653061223 0.0
1.5336673098330238 -1.035867309833024 0.0
1.5141801484230053 -1.0163801484230055 0.0
1.4938617810760666 -0.9960617810760668 0.0
1.4727122077922075 -0.9749122077922077 0.0
1.4507314285714283 -0.9529314285714284 0.0
1.4279194434137288 -0.930119443413729 0.0
1.4042762523191092 -0.9064762523191096 0.0
1.3798018552875693 -0.8820018552875695 0.0
1.3544962523191093 -0.8566962523191094 0.0
1.328359443413729 -0.8305594434137291 0.0
1.3013914285714283 -0.8035914285714285 0.0
1.2735922077922077 -0.7757922077922077 0.0
1.2449617810760665 -0.7471617810760667 0.0
1.2155001484230055 -0.7177001484230054 0.0
1.1852073098330238 -0.687407309833024 0.0
1.1540832653061224 -0.6562832653061225 0.0
1.1221280148423003 -0.6243280148423005 0.0
1.0893415584415582 -0.5915415584415583 0.0
1.055723896103896 -0.5579238961038959 0.0
1.0212750278293132 -0.5234750278293134 0.0
0.9859949536178108 -0.48819495361781057 0.0
0.9498836734693876 -0.4520836734693877 0.0
0.9129411873840445 -0.4151411873840446 0.0
0.875167495361781 -0.37736749536178116 0.0
0.8365625974025973 -0.3387625974025974 0.0
0.7971264935064933 -0.29932649350649343 0.0
0.7568591836734693 -0.25905918367346925 0.0
0.7157606679035249 -0.21796066790352486 0.0
0.6738309461966603 -0.1760309461966605 0.0
0.6310700185528755 -0.13327001855287568 0.0
0.5874778849721707 -0.08967788497217066 0.0
0.5430545454545455 -0.045254545454545436 0.0
0.4978 0.0 0.0
0.5430545454545455 0.04525454545454546 0.0
0.5874778849721707 0.08967788497217068 0.0
0.6310700185528757 0.1332700185528757 0.0
0.6738309461966605 0.1760309461966605 0.0
0.715760667903525 0.21796066790352508 0.0
0.7568591836734693 0.25905918367346936 0.0
0.7971264935064934 0.2993264935064935 0.0
0.8365625974025973 0.33876259740259734 0.0
0.875167495361781 0.377367495361781 0.0
0.9129411873840445 0.4151411873840445 0.0
0.9498836734693876 0.4520836734693878 0.0
0.9859949536178105 0.4881949536178107 0.0
1.0212750278293132 0.5234750278293134 0.0
1.055723896103896 0.557923896103896 0.0
1.0893415584415582 0.5915415584415583 0.0
1.1221280148423003 0.6243280148423004 0.0
1.1540832653061224 0.6562832653061225 0.0
1.185207309833024 0.6874073098330241 0.0
1.2155001484230055 0.7177001484230056 0.0
1.2449617810760667 0.7471617810760669 0.0
1.2735922077922077 0.7757922077922077 0.0
1.3013914285714283 0.8035914285714285 0.0
1.3283594434137287 0.830559443413729 0.0
1.3544962523191093 0.8566962523191094 0.0
1.3798018552875693 0.8820018552875695 0.0
1.4042762523191092 0.9064762523191093 0.0
1.427919443413729 0.9301194434137292 0.0
1.4507314285714283 0.9529314285714284 0.0
1.4727122077922075 0.9749122077922077 0.0
1.4938617810760666 0.9960617810760668 0.0
1.5141801484230053 1.0163801484230055 0.0
1.5336673098330238 1.035867309833024 0.0
1.552323265306122 1.0545232653061223 0.0
1.5701480148423002 1.0723480148423004 0.0
1.5871415584415582 1.0893415584415584 0.0
1.603303896103896 1.105503896103896 0.0
1.6186350278293131 1.1208350278293133 0.0
1.6331349536178106 1.1353349536178106 0.0
1.6468036734693874 1.1490036734693876 0.0
1.6596411873840444 1.1618411873840446 0.0
1.6716474953617806 1.173847495361781 0.0
1.6828225974025972 1.1850225974025972 0.0
1.6931664935064934 1.1953664935064934 0.0
1.7026791836734692 1.2048791836734694 0.0
1.7113606679035245 1.2135606679035247 0.0
1.71921094619666 1.2214109461966602 0.0
1.7262300185528754 1.2284300185528756 0.0
1.7324178849721703 1.2346178849721705 0.0
1.7377745454545452 1.2399745454545454 0.0
1.7422999999999997 1.2445 0.0
1.6155872727272724 -1.2422372727272726 0.0
1.6106462152133578 -1.237296215213358 0.0
1.604873951762523 -1.2315239517625232 0.0
1.598270482374768 -1.224920482374768 0.0
1.5908358070500925 -1.2174858070500927 0.0
1.582569925788497 -1.2092199257884972 0.0
1.5734728385899812 -1.2001228385899814 0.0
1.5635445454545454 -1.1901945454545453 0.0
1.552785046382189 -1.1794350463821892 0.0
1.5411943413729126 -1.1678443413729127 0.0
1.5287724304267158 -1.155422430426716 0.0
1.5155193135435991 -1.142169313543599 0.0
1.501434990723562 -1.1280849907235622 0.0
1.4865194619666047 -1.1131694619666048 0.0
1.4707727272727271 -1.0974227272727273 0.0
1.4541947866419294 -1.0808447866419293 0.0
1.4367856400742112 -1.0634356400742113 0.0
1.418545287569573 -1.0451952875695731 0.0
1.3994737291280146 -1.0261237291280147 0.0
1.379570964749536 -1.0062209647495362 0.0
1.358836994434137 -0.9854869944341371 0.0
1.337271818181818 -0.9639218181818181 0.0
1.3148754359925787 -0.9415254359925787 0.0
1.291647847866419 -0.9182978478664192 0.0
1.2675890538033394 -0.8942390538033393 0.0
1.2426990538033393 -0.8693490538033395 0.0
1.2169778478664193 -0.8436278478664192 0.0
1.1904254359925788 -0.8170754359925788 0.0
1.163041818181818 -0.7896918181818181 0.0
1.1348269944341371 -0.7614769944341371 0.0
1.105780964749536 -0.7324309647495362 0.0
1.0759037291280147 -0.7025537291280148 0.0
1.0451952875695731 -0.6718452875695733 0.0
1.0136556400742114 -0.6403056400742114 0.0
0.9812847866419293 -0.6079347866419293 0.0
0.9480827272727271 -0.5747327272727272 0.0
0.9140494619666047 -0.5406994619666048 0.0
0.8791849907235622 -0.5058349907235622 0.0
0.8434893135435992 -0.47013931354359917 0.0
0.8069624304267162 -0.43361243042671627 0.0
0.7696043413729128 -0.3962543413729128 0.0
0.7314150463821893 -0.3580650463821894 0.0
0.6923945454545455 -0.3190445454545454 0.0
0.6525428385899814 -0.27919283858998134 0.0
0.6118599257884971 -0.23850992578849706 0.0
0.5703458070500929 -0.19699580705009279 0.0
0.5280004823747682 -0.15465048237476808 0.0
0.4848239517625232 -0.11147395176252317 0.0
0.4408162152133581 -0.06746621521335805 0.0
0.39597727272727273 -0.022627272727272718 0.0
0.39597727272727273 0.02262727272727273 0.0
0.4408162152133581 0.06746621521335806 0.0
0.4848239517625232 0.11147395176252319 0.0
0.528000482374768 0.15465048237476808 0.0
0.5703458070500929 0.19699580705009276 0.0
0.6118599257884971 0.23850992578849717 0.0
0.6525428385899814 0.2791928385899814 0.0
0.6923945454545455 0.3190445454545454 0.0
0.7314150463821891 0.3580650463821891 0.0
0.7696043413729128 0.39625434137291277 0.0
0.8069624304267162 0.43361243042671616 0.0
0.8434893135435992 0.4701393135435992 0.0
0.8791849907235619 0.5058349907235621 0.0
0.9140494619666046 0.5406994619666047 0.0
0.9480827272727271 0.5747327272727272 0.0
0.9812847866419294 0.6079347866419295 0.0
1.0136556400742114 0.6403056400742114 0.0
1.0451952875695731 0.6718452875695732 0.0
1.0759037291280147 0.7025537291280147 0.0
1.105780964749536 0.7324309647495362 0.0
1.1348269944341371 0.7614769944341373 0.0
1.163041818181818 0.789691818181818 0.0
1.1904254359925786 0.8170754359925786 0.0
1.216977847866419 0.843627847866419 0.0
1.2426990538033393 0.8693490538033394 0.0
1.2675890538033392 0.8942390538033393 0.0
1.291647847866419 0.9182978478664192 0.0
1.3148754359925787 0.9415254359925787 0.0
1.3372718181818182 0.9639218181818181 0.0
1.3588369944341372 0.9854869944341373 0.0
1.379570964749536 1.0062209647495362 0.0
1.3994737291280148 1.0261237291280147 0.0
1.418545287569573 1.0451952875695731 0.0
1.4367856400742112 1.0634356400742113 0.0
1.4541947866419291 1.0808447866419293 0.0
1.470772727272727 1.097422727272727 0.0
1.4865194619666047 1.1131694619666048 0.0
1.501434990723562 1.128084990723562 0.0
1.5155193135435991 1.1421693135435993 0.0
1.528772430426716 1.1554224304267162 0.0
1.5411943413729128 1.1678443413729127 0.0
1.5527850463821888 1.179435046382189 0.0
1.5635445454545451 1.1901945454545453 0.0
1.573472838589981 1.2001228385899811 0.0
1.5825699257884969 1.209219925788497 0.0
1.5908358070500925 1.2174858070500927 0.0
1.5982704823747678 1.224920482374768 0.0
1.604873951762523 1.2315239517625232 0.0
1.6106462152133578 1.237296215213358 0.0
1.6155872727272724 1.2422372727272726 0.0

CELLS 200 700
4 0 101 102 1
4 1 102 103 2
4 2 103 104 3
4 3 104 105 4
4 4 105 106 5
4 5 106 107 6
4 6 107 108 7
4 7 108 109 8
4 8 109 110 9
4 9 110 111 10
4 10 111 112 11
4 11 112 113 12
4 12 113 114 13
4 13 114 115 14
4 14 115 116 15
4 15 116 117 16
4 16 117 118 17
4 17 118 119 18
4 18 119 120 19
4 19 120 121 20
4 20 121 122 21
4 21 122 123 22
4 22 123 124 23
4 23 124 125 24
4 24 125 126 25
4 25 126 127 26
4 26 127 128 27
4 27 128 129 28
4 28 129 130 29
4 29 130 131 30
4 30 131 132 31
4 31 132 133 32
4 32 133 134 33
4 33 134 135 34
4 34 135 136 35
4 35 136 137 36
4 36 137 138 37
4 37 138 139 38
4 38 139 140 39
4 39 140 141 40
4 40 141 142 41
4 41 142 143 42
4 42 143 144 43
4 43 144 145 44
4 44 145 146 45
4 45 146 147 46
4 46 147 148 47
4 47 148 149 48
4 48 149 150 49
4 49 150 151 50
4 50 151 152 51
4 51 152 153 52
4 52 153 154 53
4 53 154 155 54
4 54 155 156 55
4 55 156 157 56
4 56 157 158 57
4 57 158 159 58
4 58 159 160 59
4 59 160 161 60
4 60 161 162 61
4 61 162 163 62
4 62 163 164 63
4 63 164 165 64
4 64 165 166 65
4 65 166 167 66
4 66 167 168 67
4 67 168 169 68
4 68 169 170 69
4 69 170 171 70
4 70 171 172 71
4 71 172 173 72
4 72 173 174 73
4 73 174 175 74
4 74 175 176 75
4 75 176 177 76
4 76 177 178 77
4 77 178 179 78
4 78 179 180 79
4 79 180 181 80
4 80 181 182 81
4 81 182 183 82
4 82 183 184 83
4 83 184 185 84
4 84 185 186 85
4 85 186 187 86
4 86 187 188 87
4 87 188 189 88
4 88 189 190 89
4 89 190 191 90
4 90 191 192 91
4 91 192 193 92
4 92 193 194 93
4 93 194 195 94
4 94 195 196 95
4 95 196 197 96
4 96 197 198 97
4 97 198 199 98
4 98 199 200 99
4 99 200 201 100
1 202
1 203
1 204
1 205
1 206
1 207
1 208
1 209
1 210
1 211
1 212
1 213
1 214
1 215
1 216
1 217
1 218
1 219
1 220
1 221
1 222
1 223
1 224
1 225
1 226
1 227
1 228
1 229
1 230
1 231
1 232
1 233
1 234
1 235
1 236
1 237
1 238
1 239
1 240
1 241
1 242
1 243
1 244
1 245
1 246
1 247
1 248
1 249
1 250
1 251
1 252
1 253
1 254
1 255
1 256
1 257
1 258
1 259
1 260
1 261
1 262
1 263
1 264
1 265
1 266
1 267
1 268
1 269
1 270
1 271
1 272
1 273
1 274
1 275
1 276
1 277
1 278
1 279
1 280
1 281
1 282
1 283
1 284
1 285
1 286
1 287
1 288
1 289
1 290
1 291
1 292
1 293
1 294
1 295
1 296
1 297
1 298
1 299
1 300
1 301

CELL_TYPES 200
9
9
9
9
9
9
9
9
9
9
9
9
9
9
9
9
9
9
9
9
9
9
9
9
9
9
9
9
9
9
9
9
9
9
9
9
9
9
9
9
9
9
9
9
9
9
9
9
9
9
9
9
9
9
9
9
9
9
9
9
9
9
9
9
9
9
9
9
9
9
9
9
9
9
9
9
9
9
9
9
9
9
9
9
9
9
9
9
9
9
9
9
9
9
9
9
9
9
9
9
1
1
1
1
1
1
1
1
1
1
1
1
1
1
1
1
1
1
1
1
1
1
1
1
1
1
1
1
1
1
1
1
1
1
1
1
1
1
1
1
1
1
1
1
1
1
1
1
1
1
1
1
1
1
1
1
1
1
1
1
1
1
1
1
1
1
1
1
1
1
1
1
1
1
1
1
1
1
1
1
1
1
1
1
1
1
1
1
1
1
1
1
1
1
1
1
1
1
1
1

CELL_DATA 200

VECTORS Vinf float
49.53078157275508 0.033789646532372375 4.305383702815176
49.53324672868693 0.0352540673469748 4.270433554812445
49.53570614168394 0.0311914946355862 4.232011655749223
49.53868721220918 0.03211262639196544 4.18867606849398
49.54183383902938 0.03291611554387158 4.142414407905411
49.54507631335603 0.03355557554555697 4.094098353119132
49.54834647768768 0.03399787723869987 4.044595269699322
49.551582170231505 0.03422496625391202 3.9947167552794998
49.55473073382495 0.034233324278295646 3.945179290625805
49.55775094907006 0.03403128428684771 3.8965840592698138
49.560613214858016 0.03363503037019079 3.849416514142997
49.56356759511576 0.03526827480200244 3.8031839536633085
49.566223175589926 0.03587835819553988 3.758376196411616
49.56809864475768 0.03147947318270909 3.7199138703896866
49.57020742926651 0.030500374104616843 3.6815342895354077
49.57212220512807 0.029417560755500335 3.6457997320419393
49.57384474836115 0.028246011073180505 3.6127814749611082
49.5753775655169 0.027001889852972253 3.582498419591005
49.576580798978476 0.025771533695065758 3.55619407770227
49.57760900764478 0.02096630428499528 3.5301194436406673
49.578665903548575 0.02117403656311339 3.5082208149321117
49.57957695479674 0.02095658401567392 3.4880927788768488
49.58033380416034 0.020312900509711435 3.470076553485769
49.58093571583284 0.01923108571168355 3.4544247727447037
49.58138249222421 0.017686718563494176 3.4413367766098584
49.58166926575612 0.01564606717321435 3.4309778368192747
49.58178565590526 0.013072164308116582 3.4234899723379284
49.58235153610417 0.01188088584406256 3.4095839047565537
49.582434743838306 0.01220613363052799 3.403644584967792
49.58261812559318 0.01131726837685538 3.3980258749004673
49.58272746477812 0.010379345719885037 3.39392143618144
49.58277028773442 0.009389271316071495 3.3914157705947776
49.58274832947217 0.008335485791836546 3.390602149071978
49.58265369992986 0.007203830419692638 3.391563738493705
49.58276067300225 0.0066200889130301165 3.3922125772657434
49.58290739475753 0.008922330530477071 3.3990828853831987
49.582734737554 0.00722378053443589 3.4017554932075447
49.5824873006635 0.0057505358143191375 3.4059978240896718
49.58216258427494 0.004510583610135752 3.412048607986108
49.581728846376585 0.003501235463124125 3.4202981184315475
49.58086875024615 0.0021892678352363926 3.431860308878365
49.58014558381552 0.000842049780803576 3.444944924035971
49.57917717110623 -0.00039146444121102985 3.4615933292256558
49.577946717883776 -0.0014412852614642058 3.4824703763977283
49.57644397482089 -0.002222582732953864 3.5078282052239467
49.57470553242532 -0.002437153639479215 3.5367964311205684
49.57317370515981 -0.002364257402403267 3.5645504200318476
49.57175850392836 -0.0019200523466511713 3.5840388303782222
49.5712421582713 -0.0010099881216236552 3.588830718312889
49.57145361195865 -0.00022232168528729876 3.5824487497178295
49.571453670674416 0.00024085218174399535 3.582452257813677
49.57124180755919 0.0010284903722306074 3.588848951105696
49.57175758398225 0.0019391371354132167 3.584076657833715
49.57317267998049 0.002384202342143238 3.564603322262144
49.574704659800126 0.002454017726018112 3.5368562865680904
49.57644371482483 0.0022409111388496813 3.5078897568502976
49.57794690936826 0.001460452092870286 3.482533547695674
49.57917754225057 0.0004115857142953834 3.4616615694789727
49.58014602822439 -0.0008207052924923043 3.445020453467606
49.580869393875325 -0.0021664576053329037 3.431942461408647
49.58173072381347 -0.003477174999498909 3.4203820944743146
49.58216542528004 -0.004485437333879283 3.412129823699341
49.582491519772525 -0.005724423221067632 3.4060703959379066
49.58274066333297 -0.007196928642197214 3.4018142542497123
49.582915201974274 -0.008895003054996917 3.3991243528077297
49.58276509861681 -0.0066063365553636205 3.392255926704566
49.58265960229167 -0.007187553887740891 3.391584765604237
49.58275619599723 -0.008317793299060563 3.3905995441507173
49.582780069016245 -0.009370397275852744 3.39139110619097
49.58273909179016 -0.010359518564142757 3.393877516945674
49.58263148890509 -0.011296730701519217 3.397965955522902
49.58244968033294 -0.012185124794218745 3.4035715992790165
49.58236820021713 -0.011860152386248705 3.4095013770628673
49.58180787365714 -0.01304748237198451 3.4233959643190666
49.5816925412901 -0.015622509564342362 3.430877819739763
49.581406658262914 -0.017664347751751897 3.4412307714423678
49.580960669891475 -0.019209987563291123 3.454311968480786
49.58035947949533 -0.020293190168472936 3.4699555035713487
49.57960329415273 -0.02093839358108247 3.4879618281644853
49.57869284026293 -0.0211575009319837 3.508078629514765
49.577636447422954 -0.020951548051056 3.5299654562069436
49.57660842561562 -0.02576000237833138 3.5560282677575223
49.57540523595631 -0.026993010481337145 3.582321487633311
49.57387189090151 -0.028239195353197345 3.6125961043887846
49.57214837837295 -0.029412579339215813 3.645608006091778
49.57023221869509 -0.030496820078352978 3.681338274484658
49.56812173810226 -0.03147679635669768 3.7197154343987284
49.566245031820195 -0.03587509827723612 3.7581790655831524
49.56358764983585 -0.03526488395483587 3.8029865976600856
49.56063101347409 -0.033631369824982986 3.849218437469705
49.55776743439927 -0.03402634460060558 3.896387210075463
49.55474628277953 -0.034226852832836226 3.9449835745269626
49.55159717092835 -0.0342168456319623 3.9945218304473276
49.548361288765655 -0.033988102098928726 4.04440066599127
49.545091237879795 -0.03354422415268646 4.0939035756188105
49.54184911165625 -0.03290332197896861 4.142219012186745
49.538702996481454 -0.03209855671858447 4.188479705790836
49.53572253402713 -0.031176328277805445 4.23181409290258
49.533263549023765 -0.03523520201730027 4.270237169627411
49.53079905568218 -0.03377007719267182 4.305185923514937
49.53078157275508 0.033789646532372375 4.305383702815176
49.53324672868693 0.0352540673469748 4.270433554812445
49.53570614168394 0.0311914946355862 4.232011655749223
49.53868721220918 0.03211262639196544 4.18867606849398
49.54183383902938 0.03291611554387158 4.142414407905411
49.54507631335603 0.03355557554555697 4.094098353119132
49.54834647768768 0.03399787723869987 4.044595269699322
49.551582170231505 0.03422496625391202 3.9947167552794998
49.55473073382495 0.034233324278295646 3.945179290625805
49.55775094907006 0.03403128428684771 3.8965840592698138
49.560613214858016 0.03363503037019079 3.849416514142997
49.56356759511576 0.03526827480200244 3.8031839536633085
49.566223175589926 0.03587835819553988 3.758376196411616
49.56809864475768 0.03147947318270909 3.7199138703896866
49.57020742926651 0.030500374104616843 3.6815342895354077
49.57212220512807 0.029417560755500335 3.6457997320419393
49.57384474836115 0.028246011073180505 3.6127814749611082
49.5753775655169 0.027001889852972253 3.582498419591005
49.576580798978476 0.025771533695065758 3.55619407770227
49.57760900764478 0.02096630428499528 3.5301194436406673
49.578665903548575 0.02117403656311339 3.5082208149321117
49.57957695479674 0.02095658401567392 3.4880927788768488
49.58033380416034 0.020312900509711435 3.470076553485769
49.58093571583284 0.01923108571168355 3.4544247727447037
49.58138249222421 0.017686718563494176 3.4413367766098584
49.58166926575612 0.01564606717321435 3.4309778368192747
49.58178565590526 0.013072164308116582 3.4234899723379284
49.58235153610417 0.01188088584406256 3.4095839047565537
49.582434743838306 0.01220613363052799 3.403644584967792
49.58261812559318 0.01131726837685538 3.3980258749004673
49.58272746477812 0.010379345719885037 3.39392143618144
49.58277028773442 0.009389271316071495 3.3914157705947776
49.58274832947217 0.008335485791836546 3.390602149071978
49.58265369992986 0.007203830419692638 3.391563738493705
49.58276067300225 0.0066200889130301165 3.3922125772657434
49.58290739475753 0.008922330530477071 3.3990828853831987
49.582734737554 0.00722378053443589 3.4017554932075447
49.5824873006635 0.0057505358143191375 3.4059978240896718
49.58216258427494 0.004510583610135752 3.412048607986108
49.581728846376585 0.003501235463124125 3.4202981184315475
49.58086875024615 0.0021892678352363926 3.431860308878365
49.58014558381552 0.000842049780803576 3.444944924035971
49.57917717110623 -0.00039146444121102985 3.4615933292256558
49.577946717883776 -0.0014412852614642058 3.4824703763977283
49.57644397482089 -0.002222582732953864 3.5078282052239467
49.57470553242532 -0.002437153639479215 3.5367964311205684
49.57317370515981 -0.002364257402403267 3.5645504200318476
49.57175850392836 -0.0019200523466511713 3.5840388303782222
49.5712421582713 -0.0010099881216236552 3.588830718312889
49.57145361195865 -0.00022232168528729876 3.5824487497178295
49.571453670674416 0.00024085218174399535 3.582452257813677
49.57124180755919 0.0010284903722306074 3.588848951105696
49.57175758398225 0.0019391371354132167 3.584076657833715
49.57317267998049 0.002384202342143238 3.564603322262144
49.574704659800126 0.002454017726018112 3.5368562865680904
49.57644371482483 0.0022409111388496813 3.5078897568502976
49.57794690936826 0.001460452092870286 3.482533547695674
49.57917754225057 0.0004115857142953834 3.4616615694789727
49.58014602822439 -0.0008207052924923043 3.445020453467606
49.580869393875325 -0.0021664576053329037 3.431942461408647
49.58173072381347 -0.003477174999498909 3.4203820944743146
49.58216542528004 -0.004485437333879283 3.412129823699341
49.582491519772525 -0.005724423221067632 3.4060703959379066
49.58274066333297 -0.007196928642197214 3.4018142542497123
49.582915201974274 -0.008895003054996917 3.3991243528077297
49.58276509861681 -0.0066063365553636205 3.392255926704566
49.58265960229167 -0.007187553887740891 3.391584765604237
49.58275619599723 -0.008317793299060563 3.3905995441507173
49.582780069016245 -0.009370397275852744 3.39139110619097
49.58273909179016 -0.010359518564142757 3.393877516945674
49.58263148890509 -0.011296730701519217 3.397965955522902
49.58244968033294 -0.012185124794218745 3.4035715992790165
49.58236820021713 -0.011860152386248705 3.4095013770628673
49.58180787365714 -0.01304748237198451 3.4233959643190666
49.5816925412901 -0.015622509564342362 3.430877819739763
49.581406658262914 -0.017664347751751897 3.4412307714423678
49.580960669891475 -0.019209987563291123 3.454311968480786
49.58035947949533 -0.020293190168472936 3.4699555035713487
49.57960329415273 -0.02093839358108247 3.4879618281644853
49.57869284026293 -0.0211575009319837 3.508078629514765
49.577636447422954 -0.020951548051056 3.5299654562069436
49.57660842561562 -0.02576000237833138 3.5560282677575223
49.57540523595631 -0.026993010481337145 3.582321487633311
49.57387189090151 -0.028239195353197345 3.6125961043887846
49.57214837837295 -0.029412579339215813 3.645608006091778
49.57023221869509 -0.030496820078352978 3.681338274484658
49.56812173810226 -0.03147679635669768 3.7197154343987284
49.566245031820195 -0.03587509827723612 3.7581790655831524
49.56358764983585 -0.03526488395483587 3.8029865976600856
49.56063101347409 -0.033631369824982986 3.849218437469705
49.55776743439927 -0.03402634460060558 3.896387210075463
49.55474628277953 -0.034226852832836226 3.9449835745269626
49.55159717092835 -0.0342168456319623 3.9945218304473276
49.548361288765655 -0.033988102098928726 4.04440066599127
49.545091237879795 -0.03354422415268646 4.0939035756188105
49.54184911165625 -0.03290332197896861 4.142219012186745
49.538702996481454 -0.03209855671858447 4.188479705790836
49.53572253402713 -0.031176328277805445 4.23181409290258
49.533263549023765 -0.03523520201730027 4.270237169627411
49.53079905568218 -0.03377007719267182 4.305185923514937

VECTORS L float
-0.0066511694650002685 0.0 0.09057169425345361
-0.012000115343031968 0.0 0.16341047744679965
-0.017731470397882837 0.0 0.24145668276716248
-0.024037574890065586 0.0 0.32732948618945257
-0.030960510675558352 0.0 0.4216019335537024
-0.03850228225322198 0.0 0.5243013209405352
-0.04664811589885267 0.0 0.6352264685065248
-0.05537375667902564 0.0 0.7540470869054369
-0.06464857982211894 0.0 0.8803461460996935
-0.07443678488538984 0.0 1.013636136821745
-0.0846980440622635 0.0 1.1533678988395106
-0.09538784336425427 0.0 1.298935266970109
-0.10645920729674274 0.0 1.449698556695132
-0.11786458514494927 0.0 1.6050102504880415
-0.12954877098590917 0.0 1.7641185867222484
-0.14146038937782804 0.0 1.9263239649995327
-0.1535481281759449 0.0 2.0909276468632614
-0.16576238302178983 0.0 2.257254149481036
-0.17805637807326244 0.0 2.4246665070844373
-0.19038029782724247 0.0 2.592486361598027
-0.20270307911084232 0.0 2.7602907130949323
-0.21498397104961772 0.0 2.9275246402549016
-0.2271901590923292 0.0 3.09374129391591
-0.239293516671247 0.0 3.2585576631042894
-0.2512692553966621 0.0 3.4216361941814557
-0.26309452729462063 0.0 3.582665756943591
-0.27474544905285947 0.0 3.741321122561775
-0.28621194827882146 0.0 3.8974651311479778
-0.2974546313107219 0.0 4.050561343101696
-0.30847760217888764 0.0 4.200665644682018
-0.31926814345190313 0.0 4.34760485742523
-0.32981326120986865 0.0 4.491202037810872
-0.34009904179009237 0.0 4.631267717804803
-0.3501089499530184 0.0 4.767576730288767
-0.35981929093913084 0.0 4.899806414033703
-0.36922740888947664 0.0 5.02792060312227
-0.3782657058704635 0.0 5.150998788852097
-0.38692542357454796 0.0 5.268921705768111
-0.39517985065422645 0.0 5.381325614529145
-0.4029542535032036 0.0 5.487192837059868
-0.4102778374249751 0.0 5.586921073919966
-0.41703804981548886 0.0 5.67897765027755
-0.4231822839940938 0.0 5.762646199451435
-0.4286283433502425 0.0 5.836807416585789
-0.4332729303267398 0.0 5.900054656606137
-0.4369915528737412 0.0 5.950692660365224
-0.43964689346560265 0.0 5.986851518967522
-0.44114587789236104 0.0 6.007263802838121
-0.4415155856729123 0.0 6.012298264858585
-0.43970803746550624 0.0 5.987684141815856
-0.4397077239073519 0.0 5.987679871966255
-0.44151590394986595 0.0 6.012302598966005
-0.4411471672649142 0.0 6.007281360751398
-0.4396491237477782 0.0 5.986881889631864
-0.43699458848832246 0.0 5.950733997570233
-0.4332763606897222 0.0 5.900101369261537
-0.428631981851908 0.0 5.8368569635507415
-0.42318600753652147 0.0 5.762696904451222
-0.41704175662553383 0.0 5.679028127425639
-0.41028146203045746 0.0 5.586970431654913
-0.4029576444605385 0.0 5.487239013112453
-0.3951827822034293 0.0 5.381365534633344
-0.3869277407122488 0.0 5.268953259179655
-0.3782673395667539 0.0 5.151021035562498
-0.36922835263935416 0.0 5.02793345455025
-0.35981960931543083 0.0 4.899810749493963
-0.35010875496200716 0.0 4.767574075016436
-0.340098045255212 0.0 4.631254147581856