# vtk DataFile Version 4.0
[MyVLM domain - lattices] 
ASCII
DATASET UNSTRUCTURED_GRID
POINTS 302 float
1.2444999999999997 -1.2445 0.0
1.2399745454545452 -1.2399745454545454 0.0
1.2346178849721705 -1.2346178849721707 0.0
1.2284300185528754 -1.2284300185528756 0.0
1.2214109461966602 -1.2214109461966605 0.0
1.2135606679035247 -1.213560667903525 0.0
1.2048791836734691 -1.2048791836734694 0.0
1.1953664935064932 -1.1953664935064934 0.0
1.1850225974025972 -1.1850225974025974 0.0
1.1738474953617808 -1.173847495361781 0.0
1.1618411873840442 -1.1618411873840444 0.0
1.1490036734693874 -1.1490036734693876 0.0
1.1353349536178106 -1.1353349536178108 0.0
1.1208350278293133 -1.1208350278293135 0.0
1.1055038961038959 -1.105503896103896 0.0
1.0893415584415582 -1.0893415584415584 0.0
1.0723480148423004 -1.0723480148423006 0.0
1.054523265306122 -1.0545232653061223 0.0
1.0358673098330238 -1.035867309833024 0.0
1.0163801484230053 -1.0163801484230055 0.0
0.9960617810760664 -0.9960617810760668 0.0
0.9749122077922076 -0.9749122077922077 0.0
0.9529314285714284 -0.9529314285714284 0.0
0.9301194434137288 -0.930119443413729 0.0
0.9064762523191091 -0.9064762523191096 0.0
0.8820018552875695 -0.8820018552875695 0.0
0.8566962523191093 -0.8566962523191094 0.0
0.8305594434137288 -0.8305594434137291 0.0
0.8035914285714284 -0.8035914285714285 0.0
0.7757922077922076 -0.7757922077922077 0.0
0.7471617810760666 -0.7471617810760667 0.0
0.7177001484230053 -0.7177001484230054 0.0
0.6874073098330239 -0.687407309833024 0.0
0.6562832653061222 -0.6562832653061225 0.0
0.6243280148423004 -0.6243280148423005 0.0
0.5915415584415582 -0.5915415584415583 0.0
0.5579238961038958 -0.5579238961038959 0.0
0.5234750278293133 -0.5234750278293134 0.0
0.48819495361781057 -0.48819495361781057 0.0
0.4520836734693877 -0.4520836734693877 0.0
0.4151411873840445 -0.4151411873840446 0.0
0.37736749536178105 -0.37736749536178116 0.0
0.3387625974025974 -0.3387625974025974 0.0
0.2993264935064933 -0.29932649350649343 0.0
0.25905918367346925 -0.25905918367346925 0.0
0.21796066790352486 -0.21796066790352486 0.0
0.17603094619666027 -0.1760309461966605 0.0
0.13327001855287546 -0.13327001855287568 0.0
0.08967788497217066 -0.08967788497217066 0.0
0.045254545454545436 -0.045254545454545436 0.0
0.0 0.0 0.0
0.04525454545454545 0.04525454545454546 0.0
0.08967788497217066 0.08967788497217068 0.0
0.13327001855287568 0.1332700185528757 0.0
0.17603094619666046 0.1760309461966605 0.0
0.21796066790352497 0.21796066790352508 0.0
0.2590591836734693 0.25905918367346936 0.0
0.29932649350649343 0.2993264935064935 0.0
0.3387625974025973 0.33876259740259734 0.0
0.37736749536178094 0.377367495361781 0.0
0.41514118738404443 0.4151411873840445 0.0
0.45208367346938766 0.4520836734693878 0.0
0.48819495361781057 0.4881949536178107 0.0
0.5234750278293133 0.5234750278293134 0.0
0.5579238961038959 0.557923896103896 0.0
0.5915415584415582 0.5915415584415583 0.0
0.6243280148423003 0.6243280148423004 0.0
0.6562832653061222 0.6562832653061225 0.0
0.687407309833024 0.6874073098330241 0.0
0.7177001484230054 0.7177001484230056 0.0
0.7471617810760667 0.7471617810760669 0.0
0.7757922077922076 0.7757922077922077 0.0
0.8035914285714284 0.8035914285714285 0.0
0.8305594434137288 0.830559443413729 0.0
0.8566962523191093 0.8566962523191094 0.0
0.8820018552875692 0.8820018552875695 0.0
0.9064762523191091 0.9064762523191093 0.0
0.9301194434137288 0.9301194434137292 0.0
0.9529314285714284 0.9529314285714284 0.0
0.9749122077922076 0.9749122077922077 0.0
0.9960617810760666 0.9960617810760668 0.0
1.0163801484230053 1.0163801484230055 0.0
1.0358673098330238 1.035867309833024 0.0
1.054523265306122 1.0545232653061223 0.0
1.0723480148423001 1.0723480148423004 0.0
1.0893415584415582 1.0893415584415584 0.0
1.1055038961038959 1.105503896103896 0.0
1.120835027829313 1.1208350278293133 0.0
1.1353349536178106 1.1353349536178106 0.0
1.1490036734693874 1.1490036734693876 0.0
1.1618411873840444 1.1618411873840446 0.0
1.1738474953617808 1.173847495361781 0.0
1.1850225974025972 1.1850225974025972 0.0
1.1953664935064932 1.1953664935064934 0.0
1.2048791836734691 1.2048791836734694 0.0
1.2135606679035245 1.2135606679035247 0.0
1.22141094619666 1.2214109461966602 0.0
1.2284300185528754 1.2284300185528756 0.0
1.2346178849721703 1.2346178849721705 0.0
1.2399745454545452 1.2399745454545454 0.0
1.2444999999999997 1.2445 0.0
1.7422999999999997 -1.2445 0.0
1.7377745454545452 -1.2399745454545454 0.0
1.7324178849721703 -1.2346178849721707 0.0
1.7262300185528754 -1.2284300185528756 0.0
1.7192109461966603 -1.2214109461966605 0.0
1.7113606679035245 -1.213560667903525 0.0
1.7026791836734692 -1.2048791836734694 0.0
1.6931664935064934 -1.1953664935064934 0.0
1.6828225974025972 -1.1850225974025974 0.0
1.6716474953617806 -1.173847495361781 0.0
1.6596411873840444 -1.1618411873840444 0.0
1.6468036734693878 -1.1490036734693876 0.0
1.6331349536178106 -1.1353349536178108 0.0
1.6186350278293133 -1.1208350278293135 0.0
1.603303896103896 -1.105503896103896 0.0
1.5871415584415582 -1.0893415584415584 0.0
1.5701480148423004 -1.0723480148423006 0.0
1.552323265306122 -1.0545232653061223 0.0
1.5336673098330238 -1.035867309833024 0.0
1.5141801484230053 -1.0163801484230055 0.0
1.4938617810760666 -0.9960617810760668 0.0
1.4727122077922075 -0.9749122077922077 0.0
1.4507314285714283 -0.9529314285714284 0.0
1.4279194434137288 -0.930119443413729 0.0
1.4042762523191092 -0.9064762523191096 0.0
1.3798018552875693 -0.8820018552875695 0.0
1.3544962523191093 -0.8566962523191094 0.0
1.328359443413729 -0.8305594434137291 0.0
1.3013914285714283 -0.8035914285714285 0.0
1.2735922077922077 -0.7757922077922077 0.0
1.2449617810760665 -0.7471617810760667 0.0
1.2155001484230055 -0.7177001484230054 0.0
1.1852073098330238 -0.687407309833024 0.0
1.1540832653061224 -0.6562832653061225 0.0
1.1221280148423003 -0.6243280148423005 0.0
1.0893415584415582 -0.5915415584415583 0.0
1.055723896103896 -0.5579238961038959 0.0
1.0212750278293132 -0.5234750278293134 0.0
0.9859949536178108 -0.48819495361781057 0.0
0.9498836734693876 -0.4520836734693877 0.0
0.9129411873840445 -0.4151411873840446 0.0
0.875167495361781 -0.37736749536178116 0.0
0.8365625974025973 -0.3387625974025974 0.0
0.7971264935064933 -0.29932649350649343 0.0
0.7568591836734693 -0.25905918367346925 0.0
0.7157606679035249 -0.21796066790352486 0.0
0.6738309461966603 -0.1760309461966605 0.0
0.6310700185528755 -0.13327001855287568 0.0
0.5874778849721707 -0.08967788497217066 0.0
0.5430545454545455 -0.045254545454545436 0.0
0.4978 0.0 0.0
0.5430545454545455 0.04525454545454546 0.0
0.5874778849721707 0.08967788497217068 0.0
0.6310700185528757 0.1332700185528757 0.0
0.6738309461966605 0.1760309461966605 0.0
0.715760667903525 0.21796066790352508 0.0
0.7568591836734693 0.25905918367346936 0.0
0.7971264935064934 0.2993264935064935 0.0
0.8365625974025973 0.33876259740259734 0.0
0.875167495361781 0.377367495361781 0.0
0.9129411873840445 0.4151411873840445 0.0
0.9498836734693876 0.4520836734693878 0.0
0.9859949536178105 0.4881949536178107 0.0
1.0212750278293132 0.5234750278293134 0.0
1.055723896103896 0.557923896103896 0.0
1.0893415584415582 0.5915415584415583 0.0
1.1221280148423003 0.6243280148423004 0.0
1.1540832653061224 0.6562832653061225 0.0
1.185207309833024 0.6874073098330241 0.0
1.2155001484230055 0.7177001484230056 0.0
1.2449617810760667 0.7471617810760669 0.0
1.2735922077922077 0.7757922077922077 0.0
1.3013914285714283 0.8035914285714285 0.0
1.3283594434137287 0.830559443413729 0.0
1.3544962523191093 0.8566962523191094 0.0
1.3798018552875693 0.8820018552875695 0.0
1.4042762523191092 0.9064762523191093 0.0
1.427919443413729 0.9301194434137292 0.0
1.4507314285714283 0.9529314285714284 0.0
1.4727122077922075 0.9749122077922077 0.0
1.4938617810760666 0.9960617810760668 0.0
1.5141801484230053 1.0163801484230055 0.0
1.5336673098330238 1.035867309833024 0.0
1.552323265306122 1.0545232653061223 0.0
1.5701480148423002 1.0723480148423004 0.0
1.5871415584415582 1.0893415584415584 0.0
1.603303896103896 1.105503896103896 0.0
1.6186350278293131 1.1208350278293133 0.0
1.6331349536178106 1.1353349536178106 0.0
1.6468036734693874 1.1490036734693876 0.0
1.6596411873840444 1.1618411873840446 0.0
1.6716474953617806 1.173847495361781 0.0
1.6828225974025972 1.1850225974025972 0.0
1.6931664935064934 1.1953664935064934 0.0
1.7026791836734692 1.2048791836734694 0.0
1.7113606679035245 1.2135606679035247 0.0
1.71921094619666 1.2214109461966602 0.0
1.7262300185528754 1.2284300185528756 0.0
1.7324178849721703 1.2346178849721705 0.0
1.7377745454545452 1.2399745454545454 0.0
1.7422999999999997 1.2445 0.0
1.6155872727272724 -1.2422372727272726 0.0
1.6106462152133578 -1.237296215213358 0.0
1.604873951762523 -1.2315239517625232 0.0
1.598270482374768 -1.224920482374768 0.0
1.5908358070500925 -1.2174858070500927 0.0
1.582569925788497 -1.2092199257884972 0.0
1.5734728385899812 -1.2001228385899814 0.0
1.5635445454545454 -1.1901945454545453 0.0
1.552785046382189 -1.1794350463821892 0.0
1.5411943413729126 -1.1678443413729127 0.0
1.5287724304267158 -1.155422430426716 0.0
1.5155193135435991 -1.142169313543599 0.0
1.501434990723562 -1.1280849907235622 0.0
1.4865194619666047 -1.1131694619666048 0.0
1.4707727272727271 -1.0974227272727273 0.0
1.4541947866419294 -1.0808447866419293 0.0
1.4367856400742112 -1.0634356400742113 0.0
1.418545287569573 -1.0451952875695731 0.0
1.3994737291280146 -1.0261237291280147 0.0
1.379570964749536 -1.0062209647495362 0.0
1.358836994434137 -0.9854869944341371 0.0
1.337271818181818 -0.9639218181818181 0.0
1.3148754359925787 -0.9415254359925787 0.0
1.291647847866419 -0.9182978478664192 0.0
1.2675890538033394 -0.8942390538033393 0.0
1.2426990538033393 -0.8693490538033395 0.0
1.2169778478664193 -0.8436278478664192 0.0
1.1904254359925788 -0.8170754359925788 0.0
1.163041818181818 -0.7896918181818181 0.0
1.1348269944341371 -0.7614769944341371 0.0
1.105780964749536 -0.7324309647495362 0.0
1.0759037291280147 -0.7025537291280148 0.0
1.0451952875695731 -0.6718452875695733 0.0
1.0136556400742114 -0.6403056400742114 0.0
0.9812847866419293 -0.6079347866419293 0.0
0.9480827272727271 -0.5747327272727272 0.0
0.9140494619666047 -0.5406994619666048 0.0
0.8791849907235622 -0.5058349907235622 0.0
0.8434893135435992 -0.47013931354359917 0.0
0.8069624304267162 -0.43361243042671627 0.0
0.7696043413729128 -0.3962543413729128 0.0
0.7314150463821893 -0.3580650463821894 0.0
0.6923945454545455 -0.3190445454545454 0.0
0.6525428385899814 -0.27919283858998134 0.0
0.6118599257884971 -0.23850992578849706 0.0
0.5703458070500929 -0.19699580705009279 0.0
0.5280004823747682 -0.15465048237476808 0.0
0.4848239517625232 -0.11147395176252317 0.0
0.4408162152133581 -0.06746621521335805 0.0
0.39597727272727273 -0.022627272727272718 0.0
0.39597727272727273 0.02262727272727273 0.0
0.4408162152133581 0.06746621521335806 0.0
0.4848239517625232 0.11147395176252319 0.0
0.528000482374768 0.15465048237476808 0.0
0.5703458070500929 0.19699580705009276 0.0
0.6118599257884971 0.23850992578849717 0.0
0.6525428385899814 0.2791928385899814 0.0
0.6923945454545455 0.3190445454545454 0.0
0.7314150463821891 0.3580650463821891 0.0
0.7696043413729128 0.39625434137291277 0.0
0.8069624304267162 0.43361243042671616 0.0
0.8434893135435992 0.4701393135435992 0.0
0.8791849907235619 0.5058349907235621 0.0
0.9140494619666046 0.5406994619666047 0.0
0.9480827272727271 0.5747327272727272 0.0
0.9812847866419294 0.6079347866419295 0.0
1.0136556400742114 0.6403056400742114 0.0
1.0451952875695731 0.6718452875695732 0.0
1.0759037291280147 0.7025537291280147 0.0
1.105780964749536 0.7324309647495362 0.0
1.1348269944341371 0.7614769944341373 0.0
1.163041818181818 0.789691818181818 0.0
1.1904254359925786 0.8170754359925786 0.0
1.216977847866419 0.843627847866419 0.0
1.2426990538033393 0.8693490538033394 0.0
1.2675890538033392 0.8942390538033393 0.0
1.291647847866419 0.9182978478664192 0.0
1.3148754359925787 0.9415254359925787 0.0
1.3372718181818182 0.9639218181818181 0.0
1.3588369944341372 0.9854869944341373 0.0
1.379570964749536 1.0062209647495362 0.0
1.3994737291280148 1.0261237291280147 0.0
1.418545287569573 1.0451952875695731 0.0
1.4367856400742112 1.0634356400742113 0.0
1.4541947866419291 1.0808447866419293 0.0
1.470772727272727 1.097422727272727 0.0
1.4865194619666047 1.1131694619666048 0.0
1.501434990723562 1.128084990723562 0.0
1.5155193135435991 1.1421693135435993 0.0
1.528772430426716 1.1554224304267162 0.0
1.5411943413729128 1.1678443413729127 0.0
1.5527850463821888 1.179435046382189 0.0
1.5635445454545451 1.1901945454545453 0.0
1.573472838589981 1.2001228385899811 0.0
1.5825699257884969 1.209219925788497 0.0
1.5908358070500925 1.2174858070500927 0.0
1.5982704823747678 1.224920482374768 0.0
1.604873951762523 1.2315239517625232 0.0
1.6106462152133578 1.237296215213358 0.0
1.6155872727272724 1.2422372727272726 0.0

CELLS 200 700
4 0 101 102 1
4 1 102 103 2
4 2 103 104 3
4 3 104 105 4
4 4 105 106 5
4 5 106 107 6
4 6 107 108 7
4 7 108 109 8
4 8 109 110 9
4 9 110 111 10
4 10 111 112 11
4 11 112 113 12
4 12 113 114 13
4 13 114 115 14
4 14 115 116 15
4 15 116 117 16
4 16 117 118 17
4 17 118 119 18
4 18 119 120 19
4 19 120 121 20
4 20 121 122 21
4 21 122 123 22
4 22 123 124 23
4 23 124 125 24
4 24 125 126 25
4 25 126 127 26
4 26 127 128 27
4 27 128 129 28
4 28 129 130 29
4 29 130 131 30
4 30 131 132 31
4 31 132 133 32
4 32 133 134 33
4 33 134 135 34
4 34 135 136 35
4 35 136 137 36
4 36 137 138 37
4 37 138 139 38
4 38 139 140 39
4 39 140 141 40
4 40 141 142 41
4 41 142 143 42
4 42 143 144 43
4 43 144 145 44
4 44 145 146 45
4 45 146 147 46
4 46 147 148 47
4 47 148 149 48
4 48 149 150 49
4 49 150 151 50
4 50 151 152 51
4 51 152 153 52
4 52 153 154 53
4 53 154 155 54
4 54 155 156 55
4 55 156 157 56
4 56 157 158 57
4 57 158 159 58
4 58 159 160 59
4 59 160 161 60
4 60 161 162 61
4 61 162 163 62
4 62 163 164 63
4 63 164 165 64
4 64 165 166 65
4 65 166 167 66
4 66 167 168 67
4 67 168 169 68
4 68 169 170 69
4 69 170 171 70
4 70 171 172 71
4 71 172 173 72
4 72 173 174 73
4 73 174 175 74
4 74 175 176 75
4 75 176 177 76
4 76 177 178 77
4 77 178 179 78
4 78 179 180 79
4 79 180 181 80
4 80 181 182 81
4 81 182 183 82
4 82 183 184 83
4 83 184 185 84
4 84 185 186 85
4 85 186 187 86
4 86 187 188 87
4 87 188 189 88
4 88 189 190 89
4 89 190 191 90
4 90 191 192 91
4 91 192 193 92
4 92 193 194 93
4 93 194 195 94
4 94 195 196 95
4 95 196 197 96
4 96 197 198 97
4 97 198 199 98
4 98 199 200 99
4 99 200 201 100
1 202
1 203
1 204
1 205
1 206
1 207
1 208
1 209
1 210
1 211
1 212
1 213
1 214
1 215
1 216
1 217
1 218
1 219
1 220
1 221
1 222
1 223
1 224
1 225
1 226
1 227
1 228
1 229
1 230
1 231
1 232
1 233
1 234
1 235
1 236
1 237
1 238
1 239
1 240
1 241
1 242
1 243
1 244
1 245
1 246
1 247
1 248
1 249
1 250
1 251
1 252
1 253
1 254
1 255
1 256
1 257
1 258
1 259
1 260
1 261
1 262
1 263
1 264
1 265
1 266
1 267
1 268
1 269
1 270
1 271
1 272
1 273
1 274
1 275
1 276
1 277
1 278
1 279
1 280
1 281
1 282
1 283
1 284
1 285
1 286
1 287
1 288
1 289
1 290
1 291
1 292
1 293
1 294
1 295
1 296
1 297
1 298
1 299
1 300
1 301

CELL_TYPES 200
9
9
9
9
9
9
9
9
9
9
9
9
9
9
9
9
9
9
9
9
9
9
9
9
9
9
9
9
9
9
9
9
9
9
9
9
9
9
9
9
9
9
9
9
9
9
9
9
9
9
9
9
9
9
9
9
9
9
9
9
9
9
9
9
9
9
9
9
9
9
9
9
9
9
9
9
9
9
9
9
9
9
9
9
9
9
9
9
9
9
9
9
9
9
9
9
9
9
9
9
1
1
1
1
1
1
1
1
1
1
1
1
1
1
1
1
1
1
1
1
1
1
1
1
1
1
1
1
1
1
1
1
1
1
1
1
1
1
1
1
1
1
1
1
1
1
1
1
1
1
1
1
1
1
1
1
1
1
1
1
1
1
1
1
1
1
1
1
1
1
1
1
1
1
1
1
1
1
1
1
1
1
1
1
1
1
1
1
1
1
1
1
1
1
1
1
1
1
1
1

CELL_DATA 200

VECTORS Vinf float
49.53864053276686 0.03225746587327608 4.211437252275632
49.54099458948886 0.029761457787750877 4.178457747946132
49.54361519173294 0.03069121034930694 4.1400519693086695
49.54645530406949 0.03155471814722198 4.098021730860532
49.54944980828903 0.03229683389779595 4.053171676237113
49.55253029072602 0.03287174817782665 4.006354030823092
49.5564135219428 0.03600816428444636 3.959609932947502
49.55946379094578 0.035798531592307184 3.912209133344931
49.56245325460389 0.03552084497010765 3.864833070017108
49.565338077137056 0.035220524500541715 3.818094954118959
49.56808299513009 0.03495289563864041 3.772529353261217
49.57066072683271 0.03477953519612263 3.7286044739904027
49.57305087445088 0.034765249759902854 3.6867383679857486
49.57523873516474 0.0349760004941687 3.6473125305309844
49.57567594822831 0.029305331475158895 3.608419660284029
49.57730970438618 0.028245137266840126 3.5741616192190406
49.57765169832477 0.023105969870672594 3.5311558712052653
49.578695953606804 0.023351832464983707 3.505994630795799
49.57962865018447 0.023347564782405628 3.4823762316418536
49.58044646937774 0.02307433072403865 3.46046749287155
49.58114647646771 0.022511873301359772 3.440378548186473
49.58172605201997 0.02163935517737614 3.42217052654218
49.58218340812368 0.020435803162954232 3.405864760802877
49.582518483562524 0.018879813991864492 3.3914533643153724
49.58273374202523 0.01694835507205721 3.378911318984542
49.58283414982965 0.01461486257532598 3.36820938301074
49.58282570063676 0.011847343307975126 3.3593258101013435
49.5857402900939 0.014375386553839064 3.3529239584960155
49.584823063619126 0.014953169158862344 3.3474816656501654
49.58496136182196 0.013784403309228777 3.344120812746687
49.585062185136 0.012554357061888566 3.341745282556614
49.585119118163384 0.011271958688489622 3.3404813208418562
49.58512859574162 0.00994646635560304 3.3404161773227843
49.58508872694645 0.008586100681455202 3.3415793982010555
49.58499830449117 0.007198343191513821 3.343933602105671
49.58485698804061 0.005790079219387142 3.3474080575384626
49.58498617749863 0.00545606063874119 3.3504877893428047
49.582368263005044 0.004529388780475062 3.356784411326032
49.58188114147353 0.003441858920943455 3.3655433437050446
49.58132966639658 0.002352755584148437 3.3758139220054866
49.5806817942744 0.0012685152173941233 3.3880914705832152
49.57989599320193 0.00020667524545663868 3.402994598205555
49.57892718262314 -0.0007983294049410626 3.4212224087582404
49.57960895087992 -0.0014783239958120703 3.439748002482514
49.57800119466334 -0.0023626093414187256 3.4654941360178086
49.57610593123101 -0.002956072704595028 3.494725236481029
49.57414458604399 -0.0030219026110192256 3.5232411522534797
49.57263277672889 -0.0023999415690285028 3.543297255454256
49.57204037548708 -0.0013532048925305954 3.5489870019563154
49.572188474313855 -0.0005031474127636201 3.543854668760459
49.57275795710663 0.0002761983453075124 3.543374830248284
49.572287015624994 0.0005160910315064029 3.5494456838603416
49.57283479353905 0.0019123305681832555 3.543878682673556
49.57429823069537 0.0026986201888253253 3.52377436975938
49.5761952346908 0.0026230000302453153 3.4950829866011306
49.57800250372491 0.0018633354001607702 3.465620577499246
49.57994859509847 0.0015031674784095523 3.4387678283842686
49.57895773111366 0.0009435446089137105 3.4213630585903645
49.57993662124084 -0.00011352408508434417 3.4031800791190734
49.580740771811996 -0.0012186110431776046 3.3882681821026326
49.58140922210832 -0.0023402427074248494 3.375974996200507
49.581978659824244 -0.0034607301004672417 3.36570573348637
49.58247957809321 -0.0045722779830293945 3.356964722849192
49.5850009499652 -0.00541504294472795 3.3504659068632865
49.58465137372234 -0.00645914724749819 3.3478232720527257
49.58491646324408 -0.0075530419840660916 3.3437452219344266
49.58507917415841 -0.008724147433439054 3.341147328691729
49.5851559360366 -0.009958467454254162 3.339923587501262
49.5851582977066 -0.011242712217159884 3.3399975425836144
49.58509455308129 -0.01256292504729456 3.3412733582347767
49.58497223817336 -0.01390384187290831 3.343629266480518
49.58480037449116 -0.015250330077361957 3.3469230734085413
49.58579071153198 -0.014298898263162852 3.352342200362091
49.58279956437716 -0.011694154316121851 3.358607654515456
49.582821227842395 -0.014454772756457594 3.367441146504632
49.58273346885346 -0.016783158816461346 3.3780909292437062
49.58253034082751 -0.018711130426965948 3.390578591056963
49.582206924961326 -0.020265098345434943 3.4049333123101735
49.58176079754923 -0.021467957929282147 3.421180215876933
49.58119204921313 -0.022340986316359522 3.4393274343482103
49.58050248656619 -0.022905038254150856 3.4593539532759525
49.579694738484264 -0.023180837174186432 3.481198981915452
49.578771742111286 -0.023188527868240688 3.5047527289333362
49.577736814101705 -0.0229468342494993 3.5298487283951543
49.577451182840385 -0.028162442953128416 3.572908404534147
49.575824414049016 -0.029222895173808498 3.6071099160978517
49.57533610998062 -0.034920866457412346 3.645756124077043
49.57316147619243 -0.03470960825456961 3.6851285819746646
49.570784327148814 -0.03472341754094076 3.7269405303909475
49.568219313217234 -0.03489635359356998 3.770810793527248
49.56548677792205 -0.035163633000870914 3.816321654779634
49.56261394435924 -0.035463701291696056 3.8630052910822834
49.55963601164804 -0.035741250856506826 3.910327585955026
49.55659674576393 -0.03595087193407035 3.9576758494568276
49.552738636676196 -0.03279605041932092 4.004552749745729
49.54966399885799 -0.0322224739246686 4.051322100295829
49.54667498057349 -0.031481756442257466 4.096126833929348
49.54383992727318 -0.030619662926355717 4.138115308265973
49.541223892314754 -0.029691291088615453 4.176483425083343
49.538871666226754 -0.03218650943786408 4.209385348848263
49.53864053276686 0.03225746587327608 4.211437252275632
49.54099458948886 0.029761457787750877 4.178457747946132
49.54361519173294 0.03069121034930694 4.1400519693086695
49.54645530406949 0.03155471814722198 4.098021730860532
49.54944980828903 0.03229683389779595 4.053171676237113
49.55253029072602 0.03287174817782665 4.006354030823092
49.5564135219428 0.03600816428444636 3.959609932947502
49.55946379094578 0.035798531592307184 3.912209133344931
49.56245325460389 0.03552084497010765 3.864833070017108
49.565338077137056 0.035220524500541715 3.818094954118959
49.56808299513009 0.03495289563864041 3.772529353261217
49.57066072683271 0.03477953519612263 3.7286044739904027
49.57305087445088 0.034765249759902854 3.6867383679857486
49.57523873516474 0.0349760004941687 3.6473125305309844
49.57567594822831 0.029305331475158895 3.608419660284029
49.57730970438618 0.028245137266840126 3.5741616192190406
49.57765169832477 0.023105969870672594 3.5311558712052653
49.578695953606804 0.023351832464983707 3.505994630795799
49.57962865018447 0.023347564782405628 3.4823762316418536
49.58044646937774 0.02307433072403865 3.46046749287155
49.58114647646771 0.022511873301359772 3.440378548186473
49.58172605201997 0.02163935517737614 3.42217052654218
49.58218340812368 0.020435803162954232 3.405864760802877
49.582518483562524 0.018879813991864492 3.3914533643153724
49.58273374202523 0.01694835507205721 3.378911318984542
49.58283414982965 0.01461486257532598 3.36820938301074
49.58282570063676 0.011847343307975126 3.3593258101013435
49.5857402900939 0.014375386553839064 3.3529239584960155
49.584823063619126 0.014953169158862344 3.3474816656501654
49.58496136182196 0.013784403309228777 3.344120812746687
49.585062185136 0.012554357061888566 3.341745282556614
49.585119118163384 0.011271958688489622 3.3404813208418562
49.58512859574162 0.00994646635560304 3.3404161773227843
49.58508872694645 0.008586100681455202 3.3415793982010555
49.58499830449117 0.007198343191513821 3.343933602105671
49.58485698804061 0.005790079219387142 3.3474080575384626
49.58498617749863 0.00545606063874119 3.3504877893428047
49.582368263005044 0.004529388780475062 3.356784411326032
49.58188114147353 0.003441858920943455 3.3655433437050446
49.58132966639658 0.002352755584148437 3.3758139220054866
49.5806817942744 0.0012685152173941233 3.3880914705832152
49.57989599320193 0.00020667524545663868 3.402994598205555
49.57892718262314 -0.0007983294049410626 3.4212224087582404
49.57960895087992 -0.0014783239958120703 3.439748002482514
49.57800119466334 -0.0023626093414187256 3.4654941360178086
49.57610593123101 -0.002956072704595028 3.494725236481029
49.57414458604399 -0.0030219026110192256 3.5232411522534797
49.57263277672889 -0.0023999415690285028 3.543297255454256
49.57204037548708 -0.0013532048925305954 3.5489870019563154
49.572188474313855 -0.0005031474127636201 3.543854668760459
49.57275795710663 0.0002761983453075124 3.543374830248284
49.572287015624994 0.0005160910315064029 3.5494456838603416
49.57283479353905 0.0019123305681832555 3.543878682673556
49.57429823069537 0.0026986201888253253 3.52377436975938
49.5761952346908 0.0026230000302453153 3.4950829866011306
49.57800250372491 0.0018633354001607702 3.465620577499246
49.57994859509847 0.0015031674784095523 3.4387678283842686
49.57895773111366 0.0009435446089137105 3.4213630585903645
49.57993662124084 -0.00011352408508434417 3.4031800791190734
49.580740771811996 -0.0012186110431776046 3.3882681821026326
49.58140922210832 -0.0023402427074248494 3.375974996200507
49.581978659824244 -0.0034607301004672417 3.36570573348637
49.58247957809321 -0.0045722779830293945 3.356964722849192
49.5850009499652 -0.00541504294472795 3.3504659068632865
49.58465137372234 -0.00645914724749819 3.3478232720527257
49.58491646324408 -0.0075530419840660916 3.3437452219344266
49.58507917415841 -0.008724147433439054 3.341147328691729
49.5851559360366 -0.009958467454254162 3.339923587501262
49.5851582977066 -0.011242712217159884 3.3399975425836144
49.58509455308129 -0.01256292504729456 3.3412733582347767
49.58497223817336 -0.01390384187290831 3.343629266480518
49.58480037449116 -0.015250330077361957 3.3469230734085413
49.58579071153198 -0.014298898263162852 3.352342200362091
49.58279956437716 -0.011694154316121851 3.358607654515456
49.582821227842395 -0.014454772756457594 3.367441146504632
49.58273346885346 -0.016783158816461346 3.3780909292437062
49.58253034082751 -0.018711130426965948 3.390578591056963
49.582206924961326 -0.020265098345434943 3.4049333123101735
49.58176079754923 -0.021467957929282147 3.421180215876933
49.58119204921313 -0.022340986316359522 3.4393274343482103
49.58050248656619 -0.022905038254150856 3.4593539532759525
49.579694738484264 -0.023180837174186432 3.481198981915452
49.578771742111286 -0.023188527868240688 3.5047527289333362
49.577736814101705 -0.0229468342494993 3.5298487283951543
49.577451182840385 -0.028162442953128416 3.572908404534147
49.575824414049016 -0.029222895173808498 3.6071099160978517
49.57533610998062 -0.034920866457412346 3.645756124077043
49.57316147619243 -0.03470960825456961 3.6851285819746646
49.570784327148814 -0.03472341754094076 3.7269405303909475
49.568219313217234 -0.03489635359356998 3.770810793527248
49.56548677792205 -0.035163633000870914 3.816321654779634
49.56261394435924 -0.035463701291696056 3.8630052910822834
49.55963601164804 -0.035741250856506826 3.910327585955026
49.55659674576393 -0.03595087193407035 3.9576758494568276
49.552738636676196 -0.03279605041932092 4.004552749745729
49.54966399885799 -0.0322224739246686 4.051322100295829
49.54667498057349 -0.031481756442257466 4.096126833929348
49.54383992727318 -0.030619662926355717 4.138115308265973
49.541223892314754 -0.029691291088615453 4.176483425083343
49.538871666226754 -0.03218650943786408 4.209385348848263

VECTORS L float
-0.006513400876335792 0.0 0.08869564304833696
-0.011754194698692879 0.0 0.16006167547642444
-0.017370504864740375 0.0 0.23654126750435012
-0.023551118157566966 0.0 0.32070520595193236
-0.03033751334172852 0.0 0.4131183241167039
-0.03773170081725291 0.0 0.5138079984378925
-0.045719605965148076 0.0 0.6225825690736024
-0.05427757209441584 0.0 0.7391198931893428
-0.06337558224224218 0.0 0.863011217528605
-0.07297854461951188 0.0 0.993778682850052
-0.08304700383617447 0.0 1.1308850089741442
-0.0935377186741959 0.0 1.2737413625536733
-0.10440418693135865 0.0 1.4217145040863954
-0.11559716654816665 0.0 1.5741338843131825
-0.12706452835103402 0.0 1.7302896389618116
-0.1387572959779351 0.0 1.889514836884253
-0.150618289892582 0.0 2.0510308409542874
-0.162619261506368 0.0 2.2144529785900717
-0.17471153023602845 0.0 2.3791183463839087
-0.1868467093758031 0.0 2.5443680427782427
-0.1989832287157052 0.0 2.7096359892257165
-0.2110844993165436 0.0 2.8744239391802284
-0.22311826103299875 0.0 3.0382925930518594
-0.23505618547345805 0.0 3.200856191548604
-0.2468735200525168 0.0 3.361777668593728
-0.25854872372398424 0.0 3.520763690953167
-0.27006315074064946 0.0 3.677560351862944
-0.2814014130529351 0.0 3.8319581059598242
-0.2925433856750031 0.0 3.983682903082589
-0.3034766469249005 0.0 4.132565592108886
-0.3141830000847867 0.0 4.278358380891284
-0.3246474662254416 0.0 4.420857295225738
-0.33485506365124074 0.0 4.559858323236949
-0.34478947974629104 0.0 4.69513932936411
-0.3544320664593516 0.0 4.826446375468325
-0.3637609620663732 0.0 4.953481761514005
-0.3727481221562546 0.0 5.075863595287886
-0.38138392266492394 0.0 5.193460821974244
-0.38962981429861543 0.0 5.305748500077148
-0.39743951475702444 0.0 5.41209638458862
-0.4047625171185104 0.0 5.511816702104511
-0.4115394040254724 0.0 5.604100342170741
-0.4176969526522897 0.0 5.687950199630185
-0.42313299685808436 0.0 5.761975036366994
-0.4277873619352167 0.0 5.825355428781935
-0.4315257719454014 0.0 5.876262886518238
-0.43421043662712944 0.0 5.912821063242803
-0.4357467301499683 0.0 5.933741400330339
-0.43616158957624573 0.0 5.939390710773064
-0.4344395512010899 0.0 5.915941010080868
-0.4344448976847734 0.0 5.9160138153353525
-0.43617623819582846 0.0 5.93959018701571
-0.43576480594424455 0.0 5.93398754581215
-0.43422757640879567 0.0 5.913054462658171
-0.43153835767595 0.0 5.876434271557397
-0.427792928173935 0.0 5.825431226530584
-0.4231279742931989 0.0 5.761906642047232
-0.41769429242806594 0.0 5.68791397426917
-0.4115360068518333 0.0 5.6040540814682025
-0.40475710506567936 0.0 5.511743003968134
-0.39743125496673964 0.0 5.411983907646902
-0.3896181584946506 0.0 5.305589778228526
-0.3813684267336004 0.0 5.193249807541159
-0.37273010888366487 0.0 5.0756183011894445
-0.36374012253809607 0.0 4.953197981136217
-0.35440450024814696 0.0 4.826070995098588
-0.34475634047327414 0.0 4.694688058332863
-0.33481777017930286 0.0 4.559350482780353