# vtk DataFile Version 4.0
[MyVLM domain - lattices] 
ASCII
DATASET UNSTRUCTURED_GRID
POINTS 302 float
1.2444999999999997 -1.2445 0.0
1.2399745454545452 -1.2399745454545454 0.0
1.2346178849721705 -1.2346178849721707 0.0
1.2284300185528754 -1.2284300185528756 0.0
1.2214109461966602 -1.2214109461966605 0.0
1.2135606679035247 -1.213560667903525 0.0
1.2048791836734691 -1.2048791836734694 0.0
1.1953664935064932 -1.1953664935064934 0.0
1.1850225974025972 -1.1850225974025974 0.0
1.1738474953617808 -1.173847495361781 0.0
1.1618411873840442 -1.1618411873840444 0.0
1.1490036734693874 -1.1490036734693876 0.0
1.1353349536178106 -1.1353349536178108 0.0
1.1208350278293133 -1.1208350278293135 0.0
1.1055038961038959 -1.105503896103896 0.0
1.0893415584415582 -1.0893415584415584 0.0
1.0723480148423004 -1.0723480148423006 0.0
1.054523265306122 -1.0545232653061223 0.0
1.0358673098330238 -1.035867309833024 0.0
1.0163801484230053 -1.0163801484230055 0.0
0.9960617810760664 -0.9960617810760668 0.0
0.9749122077922076 -0.9749122077922077 0.0
0.9529314285714284 -0.9529314285714284 0.0
0.9301194434137288 -0.930119443413729 0.0
0.9064762523191091 -0.9064762523191096 0.0
0.8820018552875695 -0.8820018552875695 0.0
0.8566962523191093 -0.8566962523191094 0.0
0.8305594434137288 -0.8305594434137291 0.0
0.8035914285714284 -0.8035914285714285 0.0
0.7757922077922076 -0.7757922077922077 0.0
0.7471617810760666 -0.7471617810760667 0.0
0.7177001484230053 -0.7177001484230054 0.0
0.6874073098330239 -0.687407309833024 0.0
0.6562832653061222 -0.6562832653061225 0.0
0.6243280148423004 -0.6243280148423005 0.0
0.5915415584415582 -0.5915415584415583 0.0
0.5579238961038958 -0.5579238961038959 0.0
0.5234750278293133 -0.5234750278293134 0.0
0.48819495361781057 -0.48819495361781057 0.0
0.4520836734693877 -0.4520836734693877 0.0
0.4151411873840445 -0.4151411873840446 0.0
0.37736749536178105 -0.37736749536178116 0.0
0.3387625974025974 -0.3387625974025974 0.0
0.2993264935064933 -0.29932649350649343 0.0
0.25905918367346925 -0.25905918367346925 0.0
0.21796066790352486 -0.21796066790352486 0.0
0.17603094619666027 -0.1760309461966605 0.0
0.13327001855287546 -0.13327001855287568 0.0
0.08967788497217066 -0.08967788497217066 0.0
0.045254545454545436 -0.045254545454545436 0.0
0.0 0.0 0.0
0.04525454545454545 0.04525454545454546 0.0
0.08967788497217066 0.08967788497217068 0.0
0.13327001855287568 0.1332700185528757 0.0
0.17603094619666046 0.1760309461966605 0.0
0.21796066790352497 0.21796066790352508 0.0
0.2590591836734693 0.25905918367346936 0.0
0.29932649350649343 0.2993264935064935 0.0
0.3387625974025973 0.33876259740259734 0.0
0.37736749536178094 0.377367495361781 0.0
0.41514118738404443 0.4151411873840445 0.0
0.45208367346938766 0.4520836734693878 0.0
0.48819495361781057 0.4881949536178107 0.0
0.5234750278293133 0.5234750278293134 0.0
0.5579238961038959 0.557923896103896 0.0
0.5915415584415582 0.5915415584415583 0.0
0.6243280148423003 0.6243280148423004 0.0
0.6562832653061222 0.6562832653061225 0.0
0.687407309833024 0.6874073098330241 0.0
0.7177001484230054 0.7177001484230056 0.0
0.7471617810760667 0.7471617810760669 0.0
0.7757922077922076 0.7757922077922077 0.0
0.8035914285714284 0.8035914285714285 0.0
0.8305594434137288 0.830559443413729 0.0
0.8566962523191093 0.8566962523191094 0.0
0.8820018552875692 0.8820018552875695 0.0
0.9064762523191091 0.9064762523191093 0.0
0.9301194434137288 0.9301194434137292 0.0
0.9529314285714284 0.9529314285714284 0.0
0.9749122077922076 0.9749122077922077 0.0
0.9960617810760666 0.9960617810760668 0.0
1.0163801484230053 1.0163801484230055 0.0
1.0358673098330238 1.035867309833024 0.0
1.054523265306122 1.0545232653061223 0.0
1.0723480148423001 1.0723480148423004 0.0
1.0893415584415582 1.0893415584415584 0.0
1.1055038961038959 1.105503896103896 0.0
1.120835027829313 1.1208350278293133 0.0
1.1353349536178106 1.1353349536178106 0.0
1.1490036734693874 1.1490036734693876 0.0
1.1618411873840444 1.1618411873840446 0.0
1.1738474953617808 1.173847495361781 0.0
1.1850225974025972 1.1850225974025972 0.0
1.1953664935064932 1.1953664935064934 0.0
1.2048791836734691 1.2048791836734694 0.0
1.2135606679035245 1.2135606679035247 0.0
1.22141094619666 1.2214109461966602 0.0
1.2284300185528754 1.2284300185528756 0.0
1.2346178849721703 1.2346178849721705 0.0
1.2399745454545452 1.2399745454545454 0.0
1.2444999999999997 1.2445 0.0
1.7422999999999997 -1.2445 0.0
1.7377745454545452 -1.2399745454545454 0.0
1.7324178849721703 -1.2346178849721707 0.0
1.7262300185528754 -1.2284300185528756 0.0
1.7192109461966603 -1.2214109461966605 0.0
1.7113606679035245 -1.213560667903525 0.0
1.7026791836734692 -1.2048791836734694 0.0
1.6931664935064934 -1.1953664935064934 0.0
1.6828225974025972 -1.1850225974025974 0.0
1.6716474953617806 -1.173847495361781 0.0
1.6596411873840444 -1.1618411873840444 0.0
1.6468036734693878 -1.1490036734693876 0.0
1.6331349536178106 -1.1353349536178108 0.0
1.6186350278293133 -1.1208350278293135 0.0
1.603303896103896 -1.105503896103896 0.0
1.5871415584415582 -1.0893415584415584 0.0
1.5701480148423004 -1.0723480148423006 0.0
1.552323265306122 -1.0545232653061223 0.0
1.5336673098330238 -1.035867309833024 0.0
1.5141801484230053 -1.0163801484230055 0.0
1.4938617810760666 -0.9960617810760668 0.0
1.4727122077922075 -0.9749122077922077 0.0
1.4507314285714283 -0.9529314285714284 0.0
1.4279194434137288 -0.930119443413729 0.0
1.4042762523191092 -0.9064762523191096 0.0
1.3798018552875693 -0.8820018552875695 0.0
1.3544962523191093 -0.8566962523191094 0.0
1.328359443413729 -0.8305594434137291 0.0
1.3013914285714283 -0.8035914285714285 0.0
1.2735922077922077 -0.7757922077922077 0.0
1.2449617810760665 -0.7471617810760667 0.0
1.2155001484230055 -0.7177001484230054 0.0
1.1852073098330238 -0.687407309833024 0.0
1.1540832653061224 -0.6562832653061225 0.0
1.1221280148423003 -0.6243280148423005 0.0
1.0893415584415582 -0.5915415584415583 0.0
1.055723896103896 -0.5579238961038959 0.0
1.0212750278293132 -0.5234750278293134 0.0
0.9859949536178108 -0.48819495361781057 0.0
0.9498836734693876 -0.4520836734693877 0.0
0.9129411873840445 -0.4151411873840446 0.0
0.875167495361781 -0.37736749536178116 0.0
0.8365625974025973 -0.3387625974025974 0.0
0.7971264935064933 -0.29932649350649343 0.0
0.7568591836734693 -0.25905918367346925 0.0
0.7157606679035249 -0.21796066790352486 0.0
0.6738309461966603 -0.1760309461966605 0.0
0.6310700185528755 -0.13327001855287568 0.0
0.5874778849721707 -0.08967788497217066 0.0
0.5430545454545455 -0.045254545454545436 0.0
0.4978 0.0 0.0
0.5430545454545455 0.04525454545454546 0.0
0.5874778849721707 0.08967788497217068 0.0
0.6310700185528757 0.1332700185528757 0.0
0.6738309461966605 0.1760309461966605 0.0
0.715760667903525 0.21796066790352508 0.0
0.7568591836734693 0.25905918367346936 0.0
0.7971264935064934 0.2993264935064935 0.0
0.8365625974025973 0.33876259740259734 0.0
0.875167495361781 0.377367495361781 0.0
0.9129411873840445 0.4151411873840445 0.0
0.9498836734693876 0.4520836734693878 0.0
0.9859949536178105 0.4881949536178107 0.0
1.0212750278293132 0.5234750278293134 0.0
1.055723896103896 0.557923896103896 0.0
1.0893415584415582 0.5915415584415583 0.0
1.1221280148423003 0.6243280148423004 0.0
1.1540832653061224 0.6562832653061225 0.0
1.185207309833024 0.6874073098330241 0.0
1.2155001484230055 0.7177001484230056 0.0
1.2449617810760667 0.7471617810760669 0.0
1.2735922077922077 0.7757922077922077 0.0
1.3013914285714283 0.8035914285714285 0.0
1.3283594434137287 0.830559443413729 0.0
1.3544962523191093 0.8566962523191094 0.0
1.3798018552875693 0.8820018552875695 0.0
1.4042762523191092 0.9064762523191093 0.0
1.427919443413729 0.9301194434137292 0.0
1.4507314285714283 0.9529314285714284 0.0
1.4727122077922075 0.9749122077922077 0.0
1.4938617810760666 0.9960617810760668 0.0
1.5141801484230053 1.0163801484230055 0.0
1.5336673098330238 1.035867309833024 0.0
1.552323265306122 1.0545232653061223 0.0
1.5701480148423002 1.0723480148423004 0.0
1.5871415584415582 1.0893415584415584 0.0
1.603303896103896 1.105503896103896 0.0
1.6186350278293131 1.1208350278293133 0.0
1.6331349536178106 1.1353349536178106 0.0
1.6468036734693874 1.1490036734693876 0.0
1.6596411873840444 1.1618411873840446 0.0
1.6716474953617806 1.173847495361781 0.0
1.6828225974025972 1.1850225974025972 0.0
1.6931664935064934 1.1953664935064934 0.0
1.7026791836734692 1.2048791836734694 0.0
1.7113606679035245 1.2135606679035247 0.0
1.71921094619666 1.2214109461966602 0.0
1.7262300185528754 1.2284300185528756 0.0
1.7324178849721703 1.2346178849721705 0.0
1.7377745454545452 1.2399745454545454 0.0
1.7422999999999997 1.2445 0.0
1.6155872727272724 -1.2422372727272726 0.0
1.6106462152133578 -1.237296215213358 0.0
1.604873951762523 -1.2315239517625232 0.0
1.598270482374768 -1.224920482374768 0.0
1.5908358070500925 -1.2174858070500927 0.0
1.582569925788497 -1.2092199257884972 0.0
1.5734728385899812 -1.2001228385899814 0.0
1.5635445454545454 -1.1901945454545453 0.0
1.552785046382189 -1.1794350463821892 0.0
1.5411943413729126 -1.1678443413729127 0.0
1.5287724304267158 -1.155422430426716 0.0
1.5155193135435991 -1.142169313543599 0.0
1.501434990723562 -1.1280849907235622 0.0
1.4865194619666047 -1.1131694619666048 0.0
1.4707727272727271 -1.0974227272727273 0.0
1.4541947866419294 -1.0808447866419293 0.0
1.4367856400742112 -1.0634356400742113 0.0
1.418545287569573 -1.0451952875695731 0.0
1.3994737291280146 -1.0261237291280147 0.0
1.379570964749536 -1.0062209647495362 0.0
1.358836994434137 -0.9854869944341371 0.0
1.337271818181818 -0.9639218181818181 0.0
1.3148754359925787 -0.9415254359925787 0.0
1.291647847866419 -0.9182978478664192 0.0
1.2675890538033394 -0.8942390538033393 0.0
1.2426990538033393 -0.8693490538033395 0.0
1.2169778478664193 -0.8436278478664192 0.0
1.1904254359925788 -0.8170754359925788 0.0
1.163041818181818 -0.7896918181818181 0.0
1.1348269944341371 -0.7614769944341371 0.0
1.105780964749536 -0.7324309647495362 0.0
1.0759037291280147 -0.7025537291280148 0.0
1.0451952875695731 -0.6718452875695733 0.0
1.0136556400742114 -0.6403056400742114 0.0
0.9812847866419293 -0.6079347866419293 0.0
0.9480827272727271 -0.5747327272727272 0.0
0.9140494619666047 -0.5406994619666048 0.0
0.8791849907235622 -0.5058349907235622 0.0
0.8434893135435992 -0.47013931354359917 0.0
0.8069624304267162 -0.43361243042671627 0.0
0.7696043413729128 -0.3962543413729128 0.0
0.7314150463821893 -0.3580650463821894 0.0
0.6923945454545455 -0.3190445454545454 0.0
0.6525428385899814 -0.27919283858998134 0.0
0.6118599257884971 -0.23850992578849706 0.0
0.5703458070500929 -0.19699580705009279 0.0
0.5280004823747682 -0.15465048237476808 0.0
0.4848239517625232 -0.11147395176252317 0.0
0.4408162152133581 -0.06746621521335805 0.0
0.39597727272727273 -0.022627272727272718 0.0
0.39597727272727273 0.02262727272727273 0.0
0.4408162152133581 0.06746621521335806 0.0
0.4848239517625232 0.11147395176252319 0.0
0.528000482374768 0.15465048237476808 0.0
0.5703458070500929 0.19699580705009276 0.0
0.6118599257884971 0.23850992578849717 0.0
0.6525428385899814 0.2791928385899814 0.0
0.6923945454545455 0.3190445454545454 0.0
0.7314150463821891 0.3580650463821891 0.0
0.7696043413729128 0.39625434137291277 0.0
0.8069624304267162 0.43361243042671616 0.0
0.8434893135435992 0.4701393135435992 0.0
0.8791849907235619 0.5058349907235621 0.0
0.9140494619666046 0.5406994619666047 0.0
0.9480827272727271 0.5747327272727272 0.0
0.9812847866419294 0.6079347866419295 0.0
1.0136556400742114 0.6403056400742114 0.0
1.0451952875695731 0.6718452875695732 0.0
1.0759037291280147 0.7025537291280147 0.0
1.105780964749536 0.7324309647495362 0.0
1.1348269944341371 0.7614769944341373 0.0
1.163041818181818 0.789691818181818 0.0
1.1904254359925786 0.8170754359925786 0.0
1.216977847866419 0.843627847866419 0.0
1.2426990538033393 0.8693490538033394 0.0
1.2675890538033392 0.8942390538033393 0.0
1.291647847866419 0.9182978478664192 0.0
1.3148754359925787 0.9415254359925787 0.0
1.3372718181818182 0.9639218181818181 0.0
1.3588369944341372 0.9854869944341373 0.0
1.379570964749536 1.0062209647495362 0.0
1.3994737291280148 1.0261237291280147 0.0
1.418545287569573 1.0451952875695731 0.0
1.4367856400742112 1.0634356400742113 0.0
1.4541947866419291 1.0808447866419293 0.0
1.470772727272727 1.097422727272727 0.0
1.4865194619666047 1.1131694619666048 0.0
1.501434990723562 1.128084990723562 0.0
1.5155193135435991 1.1421693135435993 0.0
1.528772430426716 1.1554224304267162 0.0
1.5411943413729128 1.1678443413729127 0.0
1.5527850463821888 1.179435046382189 0.0
1.5635445454545451 1.1901945454545453 0.0
1.573472838589981 1.2001228385899811 0.0
1.5825699257884969 1.209219925788497 0.0
1.5908358070500925 1.2174858070500927 0.0
1.5982704823747678 1.224920482374768 0.0
1.604873951762523 1.2315239517625232 0.0
1.6106462152133578 1.237296215213358 0.0
1.6155872727272724 1.2422372727272726 0.0

CELLS 200 700
4 0 101 102 1
4 1 102 103 2
4 2 103 104 3
4 3 104 105 4
4 4 105 106 5
4 5 106 107 6
4 6 107 108 7
4 7 108 109 8
4 8 109 110 9
4 9 110 111 10
4 10 111 112 11
4 11 112 113 12
4 12 113 114 13
4 13 114 115 14
4 14 115 116 15
4 15 116 117 16
4 16 117 118 17
4 17 118 119 18
4 18 119 120 19
4 19 120 121 20
4 20 121 122 21
4 21 122 123 22
4 22 123 124 23
4 23 124 125 24
4 24 125 126 25
4 25 126 127 26
4 26 127 128 27
4 27 128 129 28
4 28 129 130 29
4 29 130 131 30
4 30 131 132 31
4 31 132 133 32
4 32 133 134 33
4 33 134 135 34
4 34 135 136 35
4 35 136 137 36
4 36 137 138 37
4 37 138 139 38
4 38 139 140 39
4 39 140 141 40
4 40 141 142 41
4 41 142 143 42
4 42 143 144 43
4 43 144 145 44
4 44 145 146 45
4 45 146 147 46
4 46 147 148 47
4 47 148 149 48
4 48 149 150 49
4 49 150 151 50
4 50 151 152 51
4 51 152 153 52
4 52 153 154 53
4 53 154 155 54
4 54 155 156 55
4 55 156 157 56
4 56 157 158 57
4 57 158 159 58
4 58 159 160 59
4 59 160 161 60
4 60 161 162 61
4 61 162 163 62
4 62 163 164 63
4 63 164 165 64
4 64 165 166 65
4 65 166 167 66
4 66 167 168 67
4 67 168 169 68
4 68 169 170 69
4 69 170 171 70
4 70 171 172 71
4 71 172 173 72
4 72 173 174 73
4 73 174 175 74
4 74 175 176 75
4 75 176 177 76
4 76 177 178 77
4 77 178 179 78
4 78 179 180 79
4 79 180 181 80
4 80 181 182 81
4 81 182 183 82
4 82 183 184 83
4 83 184 185 84
4 84 185 186 85
4 85 186 187 86
4 86 187 188 87
4 87 188 189 88
4 88 189 190 89
4 89 190 191 90
4 90 191 192 91
4 91 192 193 92
4 92 193 194 93
4 93 194 195 94
4 94 195 196 95
4 95 196 197 96
4 96 197 198 97
4 97 198 199 98
4 98 199 200 99
4 99 200 201 100
1 202
1 203
1 204
1 205
1 206
1 207
1 208
1 209
1 210
1 211
1 212
1 213
1 214
1 215
1 216
1 217
1 218
1 219
1 220
1 221
1 222
1 223
1 224
1 225
1 226
1 227
1 228
1 229
1 230
1 231
1 232
1 233
1 234
1 235
1 236
1 237
1 238
1 239
1 240
1 241
1 242
1 243
1 244
1 245
1 246
1 247
1 248
1 249
1 250
1 251
1 252
1 253
1 254
1 255
1 256
1 257
1 258
1 259
1 260
1 261
1 262
1 263
1 264
1 265
1 266
1 267
1 268
1 269
1 270
1 271
1 272
1 273
1 274
1 275
1 276
1 277
1 278
1 279
1 280
1 281
1 282
1 283
1 284
1 285
1 286
1 287
1 288
1 289
1 290
1 291
1 292
1 293
1 294
1 295
1 296
1 297
1 298
1 299
1 300
1 301

CELL_TYPES 200
9
9
9
9
9
9
9
9
9
9
9
9
9
9
9
9
9
9
9
9
9
9
9
9
9
9
9
9
9
9
9
9
9
9
9
9
9
9
9
9
9
9
9
9
9
9
9
9
9
9
9
9
9
9
9
9
9
9
9
9
9
9
9
9
9
9
9
9
9
9
9
9
9
9
9
9
9
9
9
9
9
9
9
9
9
9
9
9
9
9
9
9
9
9
9
9
9
9
9
9
1
1
1
1
1
1
1
1
1
1
1
1
1
1
1
1
1
1
1
1
1
1
1
1
1
1
1
1
1
1
1
1
1
1
1
1
1
1
1
1
1
1
1
1
1
1
1
1
1
1
1
1
1
1
1
1
1
1
1
1
1
1
1
1
1
1
1
1
1
1
1
1
1
1
1
1
1
1
1
1
1
1
1
1
1
1
1
1
1
1
1
1
1
1
1
1
1
1
1
1

CELL_DATA 200

VECTORS Vinf float
49.54402256154876 0.033625887038515226 4.084548630779844
49.546164593094126 0.034439644295699255 4.051993202667695
49.54856518514084 0.03524101597508542 4.015270336498799
49.55117257850316 0.0359753884229746 3.9750577306423205
49.55392869587713 0.0365921695615004 3.9321217617131445
49.55677229589607 0.03704911783493078 3.887277713869769
49.55964280297864 0.03731573481582523 3.8413416442825543
49.56248409609396 0.037374973872047385 3.795083646325609
49.56524749827958 0.037222888523381265 3.749192546216886
49.56789344207762 0.03686641339584287 3.7042584950057154
49.57039171006434 0.03632000239496332 3.660773769636763
49.572720567181136 0.035602090417519494 3.6191462589712557
49.574865319788586 0.03473219213651352 3.579717386687562
49.57681679361155 0.033729024731403746 3.542777482113458
49.57699047575261 0.03487048266470961 3.511542870230568
49.583906852166656 0.026596834879985463 3.4704787666257824
49.585137791777846 0.027412481955749628 3.443767842037638
49.586265696529516 0.02780350127918231 3.418371659838242
49.587275069243816 0.027748695330587297 3.3946639404634666
49.588156093353604 0.027224940116710998 3.3729139660050045
49.58890292412091 0.026206042487940406 3.353312465333514
49.58951266652736 0.024662480507222147 3.3359939829375276
49.58998517311794 0.022561418953270983 3.3210519532197598
49.59032318781313 0.019866248588981762 3.308547871644906
49.5905319413061 0.016535329579441482 3.2985201442629024
49.58900308990552 0.021572706401931718 3.282993958676037
49.5888352890013 0.020604550870133673 3.276656706866365
49.58860258234302 0.01956581980720668 3.27126186435497
49.58829492301659 0.01847861015693769 3.2670425973379205
49.58790484931686 0.017363019762347533 3.2641505736604084
49.58742821065665 0.01623840619132909 3.2627093807267484
49.58686535870288 0.01512178331467756 3.262844907147355
49.58622001218516 0.014024630116619814 3.2646846949441595
49.59210404479612 0.011637460727899457 3.2737700892712707
49.59143881957497 0.0105831863025016 3.2764513242607873
49.59071361681052 0.00943006781081641 3.2805898830932505
49.58990090498869 0.008170097604893636 3.286155918590193
49.5889665342692 0.006813733344146411 3.293204580337316
49.587890489891784 0.00538744908258871 3.3019411724814507
49.5849714848211 0.003843946798944412 3.3125265556759356
49.58364774716087 0.002487182087669148 3.3261357694601688
49.582233012465686 0.0012517938951801218 3.3422975533119357
49.58067503670755 0.00015359736887010143 3.3617272718161697
49.57891863125104 -0.0007476748778869956 3.3851066461147976
49.576943151386686 -0.0013418521671764692 3.4126674528113554
49.578375780517355 -0.001967652474990682 3.4407779642178538
49.57611030561578 -0.002267477546866842 3.470467361353994
49.5742692396129 -0.0019189710468523204 3.492042887962866
49.57324403871588 -0.001136684984557424 3.4998051731259743
49.572878936176075 -0.00044618378841763045 3.4971815416246126
49.57288177528769 0.0006627052366740899 3.497170775303328
49.573253630042835 0.0013463319078300118 3.499743759039995
49.57428618681712 0.002121354597291795 3.4919371850693786
49.57613571852349 0.0024617405409371722 3.4703161533139295
49.57841062255615 0.0021521900722995535 3.4405771440664994
49.577080831952564 0.001580427392597532 3.412342455538863
49.579058294240916 0.0009853984109085643 3.3847098864958878
49.58081703649344 7.987442838190784e-5 3.3612631460057445
49.58237712883797 -0.0010252714365826085 3.341770812225529
49.58379331740039 -0.0022694168682430528 3.3255503975787177
49.585117572111024 -0.0036354433503910663 3.3118855374157445
49.588067875168186 -0.005246339028633542 3.3012093970453567
49.58914995961418 -0.0066872289751510215 3.292413212412713
49.590091466666365 -0.008052936089933354 3.2853005654286744
49.590915281840694 -0.009318353509506778 3.2796668704520053
49.591656612199024 -0.010475946239993731 3.2754589785458323
49.59234195228856 -0.011536475102606105 3.272708900315586
49.58620698367817 -0.01348222280387354 3.2646044019218636
49.58679712293788 -0.014553558398638377 3.2625100203642647
49.58730077435144 -0.015644473282832683 3.262140931463339
49.587714193212534 -0.01674369365194741 3.2633636973812585
49.58803753672568 -0.01783427317013407 3.2660423889006243
49.588275806708566 -0.018896965396043044 3.2700409232400096
49.58843740422453 -0.019911764268258195 3.275195916052022
49.58853329703797 -0.020856519872864746 3.2812650056071626
49.59055588900892 -0.01649405587426199 3.2954787946540387
49.590391176039155 -0.019867083227001692 3.305508787557306
49.59008794883243 -0.022591295480045515 3.31799608948334
49.5896435665179 -0.024709554954489347 3.332898713441167
49.58905764354932 -0.026260333806104937 3.3501535977614667
49.588332046157944 -0.02727879331727605 3.3696673665367687
49.58747054866381 -0.02779684214210831 3.391306581411653
49.58647913811509 -0.027842729879360872 3.4148822167904065
49.58536733343896 -0.02744110280673905 3.4401271132117732
49.58415020130924 -0.02661414423307879 3.4666701227198953
49.57631878858885 -0.03371526371307201 3.509988142189785
49.57616704849132 -0.03258883073194462 3.5409184126948894
49.57428091558423 -0.03366200159382946 3.577536617573747
49.57219027686515 -0.034592429770724395 3.6166719540900476
49.569905512138014 -0.03536232007762815 3.658032639889355
49.56744251949853 -0.03595302746067617 3.701275663732647
49.56482421062768 -0.03634695021773177 3.7459913941609058
49.56208192717181 -0.03653043386912681 3.7916857484362567
49.559256288079034 -0.036497303345196117 3.837766844398864
49.5563969348865 -0.03625221498207662 3.8835443218909904
49.55356085892166 -0.03581286619770765 3.9282468224279046
49.55080941046424 -0.03521034075929031 3.9710573063664674
49.54820451293654 -0.03448739751726099 4.0111597584648075
49.54580483820095 -0.03369507844638733 4.047787267274639
49.54366265800326 -0.032888382390721345 4.080261737090402
49.54402256154876 0.033625887038515226 4.084548630779844
49.546164593094126 0.034439644295699255 4.051993202667695
49.54856518514084 0.03524101597508542 4.015270336498799
49.55117257850316 0.0359753884229746 3.9750577306423205
49.55392869587713 0.0365921695615004 3.9321217617131445
49.55677229589607 0.03704911783493078 3.887277713869769
49.55964280297864 0.03731573481582523 3.8413416442825543
49.56248409609396 0.037374973872047385 3.795083646325609
49.56524749827958 0.037222888523381265 3.749192546216886
49.56789344207762 0.03686641339584287 3.7042584950057154
49.57039171006434 0.03632000239496332 3.660773769636763
49.572720567181136 0.035602090417519494 3.6191462589712557
49.574865319788586 0.03473219213651352 3.579717386687562
49.57681679361155 0.033729024731403746 3.542777482113458
49.57699047575261 0.03487048266470961 3.511542870230568
49.583906852166656 0.026596834879985463 3.4704787666257824
49.585137791777846 0.027412481955749628 3.443767842037638
49.586265696529516 0.02780350127918231 3.418371659838242
49.587275069243816 0.027748695330587297 3.3946639404634666
49.588156093353604 0.027224940116710998 3.3729139660050045
49.58890292412091 0.026206042487940406 3.353312465333514
49.58951266652736 0.024662480507222147 3.3359939829375276
49.58998517311794 0.022561418953270983 3.3210519532197598
49.59032318781313 0.019866248588981762 3.308547871644906
49.5905319413061 0.016535329579441482 3.2985201442629024
49.58900308990552 0.021572706401931718 3.282993958676037
49.5888352890013 0.020604550870133673 3.276656706866365
49.58860258234302 0.01956581980720668 3.27126186435497
49.58829492301659 0.01847861015693769 3.2670425973379205
49.58790484931686 0.017363019762347533 3.2641505736604084
49.58742821065665 0.01623840619132909 3.2627093807267484
49.58686535870288 0.01512178331467756 3.262844907147355
49.58622001218516 0.014024630116619814 3.2646846949441595
49.59210404479612 0.011637460727899457 3.2737700892712707
49.59143881957497 0.0105831863025016 3.2764513242607873
49.59071361681052 0.00943006781081641 3.2805898830932505
49.58990090498869 0.008170097604893636 3.286155918590193
49.5889665342692 0.006813733344146411 3.293204580337316
49.587890489891784 0.00538744908258871 3.3019411724814507
49.5849714848211 0.003843946798944412 3.3125265556759356
49.58364774716087 0.002487182087669148 3.3261357694601688
49.582233012465686 0.0012517938951801218 3.3422975533119357
49.58067503670755 0.00015359736887010143 3.3617272718161697
49.57891863125104 -0.0007476748778869956 3.3851066461147976
49.576943151386686 -0.0013418521671764692 3.4126674528113554
49.578375780517355 -0.001967652474990682 3.4407779642178538
49.57611030561578 -0.002267477546866842 3.470467361353994
49.5742692396129 -0.0019189710468523204 3.492042887962866
49.57324403871588 -0.001136684984557424 3.4998051731259743
49.572878936176075 -0.00044618378841763045 3.4971815416246126
49.57288177528769 0.0006627052366740899 3.497170775303328
49.573253630042835 0.0013463319078300118 3.499743759039995
49.57428618681712 0.002121354597291795 3.4919371850693786
49.57613571852349 0.0024617405409371722 3.4703161533139295
49.57841062255615 0.0021521900722995535 3.4405771440664994
49.577080831952564 0.001580427392597532 3.412342455538863
49.579058294240916 0.0009853984109085643 3.3847098864958878
49.58081703649344 7.987442838190784e-5 3.3612631460057445
49.58237712883797 -0.0010252714365826085 3.341770812225529
49.58379331740039 -0.0022694168682430528 3.3255503975787177
49.585117572111024 -0.0036354433503910663 3.3118855374157445
49.588067875168186 -0.005246339028633542 3.3012093970453567
49.58914995961418 -0.0066872289751510215 3.292413212412713
49.590091466666365 -0.008052936089933354 3.2853005654286744
49.590915281840694 -0.009318353509506778 3.2796668704520053
49.591656612199024 -0.010475946239993731 3.2754589785458323
49.59234195228856 -0.011536475102606105 3.272708900315586
49.58620698367817 -0.01348222280387354 3.2646044019218636
49.58679712293788 -0.014553558398638377 3.2625100203642647
49.58730077435144 -0.015644473282832683 3.262140931463339
49.587714193212534 -0.01674369365194741 3.2633636973812585
49.58803753672568 -0.01783427317013407 3.2660423889006243
49.588275806708566 -0.018896965396043044 3.2700409232400096
49.58843740422453 -0.019911764268258195 3.275195916052022
49.58853329703797 -0.020856519872864746 3.2812650056071626
49.59055588900892 -0.01649405587426199 3.2954787946540387
49.590391176039155 -0.019867083227001692 3.305508787557306
49.59008794883243 -0.022591295480045515 3.31799608948334
49.5896435665179 -0.024709554954489347 3.332898713441167
49.58905764354932 -0.026260333806104937 3.3501535977614667
49.588332046157944 -0.02727879331727605 3.3696673665367687
49.58747054866381 -0.02779684214210831 3.391306581411653
49.58647913811509 -0.027842729879360872 3.4148822167904065
49.58536733343896 -0.02744110280673905 3.4401271132117732
49.58415020130924 -0.02661414423307879 3.4666701227198953
49.57631878858885 -0.03371526371307201 3.509988142189785
49.57616704849132 -0.03258883073194462 3.5409184126948894
49.57428091558423 -0.03366200159382946 3.577536617573747
49.57219027686515 -0.034592429770724395 3.6166719540900476
49.569905512138014 -0.03536232007762815 3.658032639889355
49.56744251949853 -0.03595302746067617 3.701275663732647
49.56482421062768 -0.03634695021773177 3.7459913941609058
49.56208192717181 -0.03653043386912681 3.7916857484362567
49.559256288079034 -0.036497303345196117 3.837766844398864
49.5563969348865 -0.03625221498207662 3.8835443218909904
49.55356085892166 -0.03581286619770765 3.9282468224279046
49.55080941046424 -0.03521034075929031 3.9710573063664674
49.54820451293654 -0.03448739751726099 4.0111597584648075
49.54580483820095 -0.03369507844638733 4.047787267274639
49.54366265800326 -0.032888382390721345 4.080261737090402

VECTORS L float
-0.00632558011452063 0.0 0.08613801093520408
-0.011418473290465773 0.0 0.15549001978485158
-0.016877582897683888 0.0 0.22982894752423524
-0.02288638843292955 0.0 0.31165330948502434
-0.029485462007835285 0.0 0.40151559270116594
-0.03667696984954112 0.0 0.49944529557339146
-0.044447292122678665 0.0 0.6052569512343686
-0.052774063075577984 0.0 0.7186459960983015
-0.06162885680384633 0.0 0.8392253430017842
-0.07097837900172711 0.0 0.966541609769361
-0.0807851150329854 0.0 1.1000839442597687
-0.09100782343662382 0.0 1.2392907446350638
-0.10160206493183878 0.0 1.3835568630374193
-0.11252087854388311 0.0 1.5322428126714642
-0.12371593072282522 0.0 1.6846904158242975
-0.13512852217732457 0.0 1.8401003402437248
-0.14672931511465642 0.0 1.9980730812100538
-0.15846297996221761 0.0 2.157855193309007
-0.1702826393069699 0.0 2.318808327639172
-0.18214605892488475 0.0 2.4803573635024714
-0.19401534610030985 0.0 2.6419863002956183
-0.20585659063760856 0.0 2.8032333690188254
-0.2176394561979795 0.0 2.963685467342173
-0.2293364537459867 0.0 3.1229682658299214
-0.24092115618003682 0.0 3.280721895833691
-0.2523619442202167 0.0 3.4365157846898517
-0.2636626541737797 0.0 3.59040217296293
-0.2748030806368682 0.0 3.7421059154066496
-0.28576454556705594 0.0 3.8913726654798833
-0.2965331041918948 0.0 4.038012531514218
-0.30709637914038185 0.0 4.181856965787627
-0.3174423497034255 0.0 4.3227422773891675
-0.32755911003922794 0.0 4.460506339602809
-0.33744109382598564 0.0 4.595073353548494
-0.3470213939078996 0.0 4.725532217127519
-0.3562947113394522 0.0 4.851810772432043
-0.36524303525461066 0.0 4.9736637581346965
-0.37384067945923005 0.0 5.090741394826777
-0.3820562220335951 0.0 5.2026157973791705
-0.3898811748736838 0.0 5.30917137980864
-0.39721604172778363 0.0 5.4090532609718185
-0.4040258854027445 0.0 5.50178568682384
-0.41023843242802954 0.0 5.586384479963942
-0.4157658137827426 0.0 5.661653092005133
-0.42049882745732975 0.0 5.726104474530853
-0.4242973083549144 0.0 5.777829942103736
-0.4270616268738509 0.0 5.815472797699847
-0.4286878000126324 0.0 5.83761706226925
-0.42919787883468236 0.0 5.844563014159211
-0.4276112360781094 0.0 5.8229570509682285
-0.42760554561653946 0.0 5.822879561626214
-0.4291838576250766 0.0 5.844372081614768
-0.4286652329968323 0.0 5.837309757987496
-0.42703048070224786 0.0 5.815048667545529
-0.4242575920403997 0.0 5.777289108809075
-0.4204502890785863 0.0 5.725443507580266
-0.4157091790461767 0.0 5.660881873639497
-0.4101743235458379 0.0 5.585511483101158
-0.4039549264005538 0.0 5.500819409076031
-0.3971388346256237 0.0 5.408001900291893
-0.38979827076759593 0.0 5.308042440696735
-0.3819679752190353 0.0 5.2014141044213815
-0.373748028326941 0.0 5.089479726473554
-0.3651466507381779 0.0 4.972351250763015
-0.35619533824712546 0.0 4.850457568400392
-0.346919989831322 0.0 4.724151356352857
-0.3373393641581742 0.0 4.593688059064869