# vtk DataFile Version 4.0
[MyVLM domain - lattices] 
ASCII
DATASET UNSTRUCTURED_GRID
POINTS 302 float
1.2444999999999997 -1.2445 0.0
1.2399745454545452 -1.2399745454545454 0.0
1.2346178849721705 -1.2346178849721707 0.0
1.2284300185528754 -1.2284300185528756 0.0
1.2214109461966602 -1.2214109461966605 0.0
1.2135606679035247 -1.213560667903525 0.0
1.2048791836734691 -1.2048791836734694 0.0
1.1953664935064932 -1.1953664935064934 0.0
1.1850225974025972 -1.1850225974025974 0.0
1.1738474953617808 -1.173847495361781 0.0
1.1618411873840442 -1.1618411873840444 0.0
1.1490036734693874 -1.1490036734693876 0.0
1.1353349536178106 -1.1353349536178108 0.0
1.1208350278293133 -1.1208350278293135 0.0
1.1055038961038959 -1.105503896103896 0.0
1.0893415584415582 -1.0893415584415584 0.0
1.0723480148423004 -1.0723480148423006 0.0
1.054523265306122 -1.0545232653061223 0.0
1.0358673098330238 -1.035867309833024 0.0
1.0163801484230053 -1.0163801484230055 0.0
0.9960617810760664 -0.9960617810760668 0.0
0.9749122077922076 -0.9749122077922077 0.0
0.9529314285714284 -0.9529314285714284 0.0
0.9301194434137288 -0.930119443413729 0.0
0.9064762523191091 -0.9064762523191096 0.0
0.8820018552875695 -0.8820018552875695 0.0
0.8566962523191093 -0.8566962523191094 0.0
0.8305594434137288 -0.8305594434137291 0.0
0.8035914285714284 -0.8035914285714285 0.0
0.7757922077922076 -0.7757922077922077 0.0
0.7471617810760666 -0.7471617810760667 0.0
0.7177001484230053 -0.7177001484230054 0.0
0.6874073098330239 -0.687407309833024 0.0
0.6562832653061222 -0.6562832653061225 0.0
0.6243280148423004 -0.6243280148423005 0.0
0.5915415584415582 -0.5915415584415583 0.0
0.5579238961038958 -0.5579238961038959 0.0
0.5234750278293133 -0.5234750278293134 0.0
0.48819495361781057 -0.48819495361781057 0.0
0.4520836734693877 -0.4520836734693877 0.0
0.4151411873840445 -0.4151411873840446 0.0
0.37736749536178105 -0.37736749536178116 0.0
0.3387625974025974 -0.3387625974025974 0.0
0.2993264935064933 -0.29932649350649343 0.0
0.25905918367346925 -0.25905918367346925 0.0
0.21796066790352486 -0.21796066790352486 0.0
0.17603094619666027 -0.1760309461966605 0.0
0.13327001855287546 -0.13327001855287568 0.0
0.08967788497217066 -0.08967788497217066 0.0
0.045254545454545436 -0.045254545454545436 0.0
0.0 0.0 0.0
0.04525454545454545 0.04525454545454546 0.0
0.08967788497217066 0.08967788497217068 0.0
0.13327001855287568 0.1332700185528757 0.0
0.17603094619666046 0.1760309461966605 0.0
0.21796066790352497 0.21796066790352508 0.0
0.2590591836734693 0.25905918367346936 0.0
0.29932649350649343 0.2993264935064935 0.0
0.3387625974025973 0.33876259740259734 0.0
0.37736749536178094 0.377367495361781 0.0
0.41514118738404443 0.4151411873840445 0.0
0.45208367346938766 0.4520836734693878 0.0
0.48819495361781057 0.4881949536178107 0.0
0.5234750278293133 0.5234750278293134 0.0
0.5579238961038959 0.557923896103896 0.0
0.5915415584415582 0.5915415584415583 0.0
0.6243280148423003 0.6243280148423004 0.0
0.6562832653061222 0.6562832653061225 0.0
0.687407309833024 0.6874073098330241 0.0
0.7177001484230054 0.7177001484230056 0.0
0.7471617810760667 0.7471617810760669 0.0
0.7757922077922076 0.7757922077922077 0.0
0.8035914285714284 0.8035914285714285 0.0
0.8305594434137288 0.830559443413729 0.0
0.8566962523191093 0.8566962523191094 0.0
0.8820018552875692 0.8820018552875695 0.0
0.9064762523191091 0.9064762523191093 0.0
0.9301194434137288 0.9301194434137292 0.0
0.9529314285714284 0.9529314285714284 0.0
0.9749122077922076 0.9749122077922077 0.0
0.9960617810760666 0.9960617810760668 0.0
1.0163801484230053 1.0163801484230055 0.0
1.0358673098330238 1.035867309833024 0.0
1.054523265306122 1.0545232653061223 0.0
1.0723480148423001 1.0723480148423004 0.0
1.0893415584415582 1.0893415584415584 0.0
1.1055038961038959 1.105503896103896 0.0
1.120835027829313 1.1208350278293133 0.0
1.1353349536178106 1.1353349536178106 0.0
1.1490036734693874 1.1490036734693876 0.0
1.1618411873840444 1.1618411873840446 0.0
1.1738474953617808 1.173847495361781 0.0
1.1850225974025972 1.1850225974025972 0.0
1.1953664935064932 1.1953664935064934 0.0
1.2048791836734691 1.2048791836734694 0.0
1.2135606679035245 1.2135606679035247 0.0
1.22141094619666 1.2214109461966602 0.0
1.2284300185528754 1.2284300185528756 0.0
1.2346178849721703 1.2346178849721705 0.0
1.2399745454545452 1.2399745454545454 0.0
1.2444999999999997 1.2445 0.0
1.7422999999999997 -1.2445 0.0
1.7377745454545452 -1.2399745454545454 0.0
1.7324178849721703 -1.2346178849721707 0.0
1.7262300185528754 -1.2284300185528756 0.0
1.7192109461966603 -1.2214109461966605 0.0
1.7113606679035245 -1.213560667903525 0.0
1.7026791836734692 -1.2048791836734694 0.0
1.6931664935064934 -1.1953664935064934 0.0
1.6828225974025972 -1.1850225974025974 0.0
1.6716474953617806 -1.173847495361781 0.0
1.6596411873840444 -1.1618411873840444 0.0
1.6468036734693878 -1.1490036734693876 0.0
1.6331349536178106 -1.1353349536178108 0.0
1.6186350278293133 -1.1208350278293135 0.0
1.603303896103896 -1.105503896103896 0.0
1.5871415584415582 -1.0893415584415584 0.0
1.5701480148423004 -1.0723480148423006 0.0
1.552323265306122 -1.0545232653061223 0.0
1.5336673098330238 -1.035867309833024 0.0
1.5141801484230053 -1.0163801484230055 0.0
1.4938617810760666 -0.9960617810760668 0.0
1.4727122077922075 -0.9749122077922077 0.0
1.4507314285714283 -0.9529314285714284 0.0
1.4279194434137288 -0.930119443413729 0.0
1.4042762523191092 -0.9064762523191096 0.0
1.3798018552875693 -0.8820018552875695 0.0
1.3544962523191093 -0.8566962523191094 0.0
1.328359443413729 -0.8305594434137291 0.0
1.3013914285714283 -0.8035914285714285 0.0
1.2735922077922077 -0.7757922077922077 0.0
1.2449617810760665 -0.7471617810760667 0.0
1.2155001484230055 -0.7177001484230054 0.0
1.1852073098330238 -0.687407309833024 0.0
1.1540832653061224 -0.6562832653061225 0.0
1.1221280148423003 -0.6243280148423005 0.0
1.0893415584415582 -0.5915415584415583 0.0
1.055723896103896 -0.5579238961038959 0.0
1.0212750278293132 -0.5234750278293134 0.0
0.9859949536178108 -0.48819495361781057 0.0
0.9498836734693876 -0.4520836734693877 0.0
0.9129411873840445 -0.4151411873840446 0.0
0.875167495361781 -0.37736749536178116 0.0
0.8365625974025973 -0.3387625974025974 0.0
0.7971264935064933 -0.29932649350649343 0.0
0.7568591836734693 -0.25905918367346925 0.0
0.7157606679035249 -0.21796066790352486 0.0
0.6738309461966603 -0.1760309461966605 0.0
0.6310700185528755 -0.13327001855287568 0.0
0.5874778849721707 -0.08967788497217066 0.0
0.5430545454545455 -0.045254545454545436 0.0
0.4978 0.0 0.0
0.5430545454545455 0.04525454545454546 0.0
0.5874778849721707 0.08967788497217068 0.0
0.6310700185528757 0.1332700185528757 0.0
0.6738309461966605 0.1760309461966605 0.0
0.715760667903525 0.21796066790352508 0.0
0.7568591836734693 0.25905918367346936 0.0
0.7971264935064934 0.2993264935064935 0.0
0.8365625974025973 0.33876259740259734 0.0
0.875167495361781 0.377367495361781 0.0
0.9129411873840445 0.4151411873840445 0.0
0.9498836734693876 0.4520836734693878 0.0
0.9859949536178105 0.4881949536178107 0.0
1.0212750278293132 0.5234750278293134 0.0
1.055723896103896 0.557923896103896 0.0
1.0893415584415582 0.5915415584415583 0.0
1.1221280148423003 0.6243280148423004 0.0
1.1540832653061224 0.6562832653061225 0.0
1.185207309833024 0.6874073098330241 0.0
1.2155001484230055 0.7177001484230056 0.0
1.2449617810760667 0.7471617810760669 0.0
1.2735922077922077 0.7757922077922077 0.0
1.3013914285714283 0.8035914285714285 0.0
1.3283594434137287 0.830559443413729 0.0
1.3544962523191093 0.8566962523191094 0.0
1.3798018552875693 0.8820018552875695 0.0
1.4042762523191092 0.9064762523191093 0.0
1.427919443413729 0.9301194434137292 0.0
1.4507314285714283 0.9529314285714284 0.0
1.4727122077922075 0.9749122077922077 0.0
1.4938617810760666 0.9960617810760668 0.0
1.5141801484230053 1.0163801484230055 0.0
1.5336673098330238 1.035867309833024 0.0
1.552323265306122 1.0545232653061223 0.0
1.5701480148423002 1.0723480148423004 0.0
1.5871415584415582 1.0893415584415584 0.0
1.603303896103896 1.105503896103896 0.0
1.6186350278293131 1.1208350278293133 0.0
1.6331349536178106 1.1353349536178106 0.0
1.6468036734693874 1.1490036734693876 0.0
1.6596411873840444 1.1618411873840446 0.0
1.6716474953617806 1.173847495361781 0.0
1.6828225974025972 1.1850225974025972 0.0
1.6931664935064934 1.1953664935064934 0.0
1.7026791836734692 1.2048791836734694 0.0
1.7113606679035245 1.2135606679035247 0.0
1.71921094619666 1.2214109461966602 0.0
1.7262300185528754 1.2284300185528756 0.0
1.7324178849721703 1.2346178849721705 0.0
1.7377745454545452 1.2399745454545454 0.0
1.7422999999999997 1.2445 0.0
1.6155872727272724 -1.2422372727272726 0.0
1.6106462152133578 -1.237296215213358 0.0
1.604873951762523 -1.2315239517625232 0.0
1.598270482374768 -1.224920482374768 0.0
1.5908358070500925 -1.2174858070500927 0.0
1.582569925788497 -1.2092199257884972 0.0
1.5734728385899812 -1.2001228385899814 0.0
1.5635445454545454 -1.1901945454545453 0.0
1.552785046382189 -1.1794350463821892 0.0
1.5411943413729126 -1.1678443413729127 0.0
1.5287724304267158 -1.155422430426716 0.0
1.5155193135435991 -1.142169313543599 0.0
1.501434990723562 -1.1280849907235622 0.0
1.4865194619666047 -1.1131694619666048 0.0
1.4707727272727271 -1.0974227272727273 0.0
1.4541947866419294 -1.0808447866419293 0.0
1.4367856400742112 -1.0634356400742113 0.0
1.418545287569573 -1.0451952875695731 0.0
1.3994737291280146 -1.0261237291280147 0.0
1.379570964749536 -1.0062209647495362 0.0
1.358836994434137 -0.9854869944341371 0.0
1.337271818181818 -0.9639218181818181 0.0
1.3148754359925787 -0.9415254359925787 0.0
1.291647847866419 -0.9182978478664192 0.0
1.2675890538033394 -0.8942390538033393 0.0
1.2426990538033393 -0.8693490538033395 0.0
1.2169778478664193 -0.8436278478664192 0.0
1.1904254359925788 -0.8170754359925788 0.0
1.163041818181818 -0.7896918181818181 0.0
1.1348269944341371 -0.7614769944341371 0.0
1.105780964749536 -0.7324309647495362 0.0
1.0759037291280147 -0.7025537291280148 0.0
1.0451952875695731 -0.6718452875695733 0.0
1.0136556400742114 -0.6403056400742114 0.0
0.9812847866419293 -0.6079347866419293 0.0
0.9480827272727271 -0.5747327272727272 0.0
0.9140494619666047 -0.5406994619666048 0.0
0.8791849907235622 -0.5058349907235622 0.0
0.8434893135435992 -0.47013931354359917 0.0
0.8069624304267162 -0.43361243042671627 0.0
0.7696043413729128 -0.3962543413729128 0.0
0.7314150463821893 -0.3580650463821894 0.0
0.6923945454545455 -0.3190445454545454 0.0
0.6525428385899814 -0.27919283858998134 0.0
0.6118599257884971 -0.23850992578849706 0.0
0.5703458070500929 -0.19699580705009279 0.0
0.5280004823747682 -0.15465048237476808 0.0
0.4848239517625232 -0.11147395176252317 0.0
0.4408162152133581 -0.06746621521335805 0.0
0.39597727272727273 -0.022627272727272718 0.0
0.39597727272727273 0.02262727272727273 0.0
0.4408162152133581 0.06746621521335806 0.0
0.4848239517625232 0.11147395176252319 0.0
0.528000482374768 0.15465048237476808 0.0
0.5703458070500929 0.19699580705009276 0.0
0.6118599257884971 0.23850992578849717 0.0
0.6525428385899814 0.2791928385899814 0.0
0.6923945454545455 0.3190445454545454 0.0
0.7314150463821891 0.3580650463821891 0.0
0.7696043413729128 0.39625434137291277 0.0
0.8069624304267162 0.43361243042671616 0.0
0.8434893135435992 0.4701393135435992 0.0
0.8791849907235619 0.5058349907235621 0.0
0.9140494619666046 0.5406994619666047 0.0
0.9480827272727271 0.5747327272727272 0.0
0.9812847866419294 0.6079347866419295 0.0
1.0136556400742114 0.6403056400742114 0.0
1.0451952875695731 0.6718452875695732 0.0
1.0759037291280147 0.7025537291280147 0.0
1.105780964749536 0.7324309647495362 0.0
1.1348269944341371 0.7614769944341373 0.0
1.163041818181818 0.789691818181818 0.0
1.1904254359925786 0.8170754359925786 0.0
1.216977847866419 0.843627847866419 0.0
1.2426990538033393 0.8693490538033394 0.0
1.2675890538033392 0.8942390538033393 0.0
1.291647847866419 0.9182978478664192 0.0
1.3148754359925787 0.9415254359925787 0.0
1.3372718181818182 0.9639218181818181 0.0
1.3588369944341372 0.9854869944341373 0.0
1.379570964749536 1.0062209647495362 0.0
1.3994737291280148 1.0261237291280147 0.0
1.418545287569573 1.0451952875695731 0.0
1.4367856400742112 1.0634356400742113 0.0
1.4541947866419291 1.0808447866419293 0.0
1.470772727272727 1.097422727272727 0.0
1.4865194619666047 1.1131694619666048 0.0
1.501434990723562 1.128084990723562 0.0
1.5155193135435991 1.1421693135435993 0.0
1.528772430426716 1.1554224304267162 0.0
1.5411943413729128 1.1678443413729127 0.0
1.5527850463821888 1.179435046382189 0.0
1.5635445454545451 1.1901945454545453 0.0
1.573472838589981 1.2001228385899811 0.0
1.5825699257884969 1.209219925788497 0.0
1.5908358070500925 1.2174858070500927 0.0
1.5982704823747678 1.224920482374768 0.0
1.604873951762523 1.2315239517625232 0.0
1.6106462152133578 1.237296215213358 0.0
1.6155872727272724 1.2422372727272726 0.0

CELLS 200 700
4 0 101 102 1
4 1 102 103 2
4 2 103 104 3
4 3 104 105 4
4 4 105 106 5
4 5 106 107 6
4 6 107 108 7
4 7 108 109 8
4 8 109 110 9
4 9 110 111 10
4 10 111 112 11
4 11 112 113 12
4 12 113 114 13
4 13 114 115 14
4 14 115 116 15
4 15 116 117 16
4 16 117 118 17
4 17 118 119 18
4 18 119 120 19
4 19 120 121 20
4 20 121 122 21
4 21 122 123 22
4 22 123 124 23
4 23 124 125 24
4 24 125 126 25
4 25 126 127 26
4 26 127 128 27
4 27 128 129 28
4 28 129 130 29
4 29 130 131 30
4 30 131 132 31
4 31 132 133 32
4 32 133 134 33
4 33 134 135 34
4 34 135 136 35
4 35 136 137 36
4 36 137 138 37
4 37 138 139 38
4 38 139 140 39
4 39 140 141 40
4 40 141 142 41
4 41 142 143 42
4 42 143 144 43
4 43 144 145 44
4 44 145 146 45
4 45 146 147 46
4 46 147 148 47
4 47 148 149 48
4 48 149 150 49
4 49 150 151 50
4 50 151 152 51
4 51 152 153 52
4 52 153 154 53
4 53 154 155 54
4 54 155 156 55
4 55 156 157 56
4 56 157 158 57
4 57 158 159 58
4 58 159 160 59
4 59 160 161 60
4 60 161 162 61
4 61 162 163 62
4 62 163 164 63
4 63 164 165 64
4 64 165 166 65
4 65 166 167 66
4 66 167 168 67
4 67 168 169 68
4 68 169 170 69
4 69 170 171 70
4 70 171 172 71
4 71 172 173 72
4 72 173 174 73
4 73 174 175 74
4 74 175 176 75
4 75 176 177 76
4 76 177 178 77
4 77 178 179 78
4 78 179 180 79
4 79 180 181 80
4 80 181 182 81
4 81 182 183 82
4 82 183 184 83
4 83 184 185 84
4 84 185 186 85
4 85 186 187 86
4 86 187 188 87
4 87 188 189 88
4 88 189 190 89
4 89 190 191 90
4 90 191 192 91
4 91 192 193 92
4 92 193 194 93
4 93 194 195 94
4 94 195 196 95
4 95 196 197 96
4 96 197 198 97
4 97 198 199 98
4 98 199 200 99
4 99 200 201 100
1 202
1 203
1 204
1 205
1 206
1 207
1 208
1 209
1 210
1 211
1 212
1 213
1 214
1 215
1 216
1 217
1 218
1 219
1 220
1 221
1 222
1 223
1 224
1 225
1 226
1 227
1 228
1 229
1 230
1 231
1 232
1 233
1 234
1 235
1 236
1 237
1 238
1 239
1 240
1 241
1 242
1 243
1 244
1 245
1 246
1 247
1 248
1 249
1 250
1 251
1 252
1 253
1 254
1 255
1 256
1 257
1 258
1 259
1 260
1 261
1 262
1 263
1 264
1 265
1 266
1 267
1 268
1 269
1 270
1 271
1 272
1 273
1 274
1 275
1 276
1 277
1 278
1 279
1 280
1 281
1 282
1 283
1 284
1 285
1 286
1 287
1 288
1 289
1 290
1 291
1 292
1 293
1 294
1 295
1 296
1 297
1 298
1 299
1 300
1 301

CELL_TYPES 200
9
9
9
9
9
9
9
9
9
9
9
9
9
9
9
9
9
9
9
9
9
9
9
9
9
9
9
9
9
9
9
9
9
9
9
9
9
9
9
9
9
9
9
9
9
9
9
9
9
9
9
9
9
9
9
9
9
9
9
9
9
9
9
9
9
9
9
9
9
9
9
9
9
9
9
9
9
9
9
9
9
9
9
9
9
9
9
9
9
9
9
9
9
9
9
9
9
9
9
9
1
1
1
1
1
1
1
1
1
1
1
1
1
1
1
1
1
1
1
1
1
1
1
1
1
1
1
1
1
1
1
1
1
1
1
1
1
1
1
1
1
1
1
1
1
1
1
1
1
1
1
1
1
1
1
1
1
1
1
1
1
1
1
1
1
1
1
1
1
1
1
1
1
1
1
1
1
1
1
1
1
1
1
1
1
1
1
1
1
1
1
1
1
1
1
1
1
1
1
1

CELL_DATA 200

VECTORS Vinf float
49.530864496879374 0.03357280499096786 4.280221111820964
49.533385221084345 0.03450241809684923 4.245441529082193
49.536207978523315 0.035418836096200966 4.206227044381547
49.53927193615123 0.036260408536265054 4.163303627027749
49.542509288060074 0.03697019925783206 4.117488708203287
49.54584890712109 0.03750083725009287 4.069647768113083
49.549220733531754 0.03781830125375353 4.020641924647532
49.55251058195024 0.039735680229699206 3.9714250086720324
49.555778269208645 0.03966900020307486 3.9221811229051964
49.55890984871611 0.03923033994467706 3.8738878025432353
49.5618658442776 0.03839909287474036 3.82708256633466
49.5646152505821 0.03715603372825678 3.7822204253946747
49.56719002041023 0.035077109541343146 3.739998790684509
49.56952802147305 0.03400248163769098 3.6995902894365478
49.57164967979762 0.03281444092758288 3.661671982889928
49.573557894285024 0.03153603500787203 3.6263591257872996
49.57525953140275 0.03018889570571072 3.5937186936648517
49.576764441204055 0.028792893834345634 3.5637721548558425
49.578084333425274 0.027365787809991042 3.536498833247851
49.57915936392049 0.025736075434362213 3.51251889138717
49.580128561735954 0.023363160533678158 3.4901498241472826
49.581057705296814 0.023044853674537978 3.469977545334481
49.581761021985415 0.02163370185178657 3.452525474292507
49.58234180257711 0.020255854486728158 3.4372119422421052
49.58281368597539 0.018919584391542472 3.423903444682866
49.58318975443511 0.017629634534999435 3.4124739751935462
49.583368378460584 0.01619558613808997 3.4032341496234197
49.58363235203818 0.014854986604212313 3.395162824129956
49.58384642418393 0.014041926360402199 3.388319454171229
49.583937401796234 0.012936267326019438 3.3833308936183744
49.58397979683131 0.0118705549237077 3.379781515119841
49.58398148470616 0.010836656528644238 3.3776618278868904
49.58387567790269 0.009127947793259096 3.37742100796275
49.583810157936334 0.007990958765295902 3.377955778685873
49.58377545270833 0.007820066312376821 3.3795892783850814
49.58363147760655 0.006812678868608268 3.3827178771600805
49.58343811463337 0.005792860997803119 3.3869818732677017
49.583196544754614 0.00439079437398861 3.3928853509205963
49.582801424815585 0.0032787776935420125 3.399733935298505
49.582340806139484 0.0026061929490930613 3.4081064749964414
49.5816852566271 0.0015242946396656811 3.419104174883539
49.58083713736311 0.0004767396230080268 3.4329048347837094
49.57977769950288 -0.0007307585963876822 3.4503678554038184
49.57849044332537 -0.0014013258482477246 3.4713930680834455
49.576947593087176 -0.002140532251901305 3.4970523671578615
49.5751956757282 -0.0025981322678239977 3.5260428745514094
49.57342234920949 -0.002529214575406911 3.5543084425323923
49.572165512837906 -0.0019696324426458234 3.573490801897306
49.571735844751196 -0.000988631095626679 3.5781380041879114
49.57198622998289 -0.0001952489462447083 3.5717641847971517
49.57198673186414 0.00023799424998398555 3.571761220244642
49.57173710336367 0.0010324163604310986 3.578132062505596
49.572167313243874 0.0020150816669578533 3.573484057256764
49.57350337968468 0.0025314596559281323 3.5539689669179118
49.575233925610895 0.002617500271432465 3.525955888849656
49.57699153358651 0.0021462520520847982 3.4969373160336286
49.57855369230007 0.00131802714466764 3.4712121963765434
49.57987044346019 0.00027078671376696466 3.4499157872345827
49.58085556707834 -0.0004036989493538387 3.432773275225778
49.58171429207683 -0.0014451908432288572 3.418930249452686
49.582383458598215 -0.002526137834569342 3.4078920757284976
49.58286830705811 -0.0032028621372427787 3.399400969094873
49.583251022818494 -0.0042827073599719 3.3925798392428055
49.583498927385875 -0.005734588073819865 3.386751507571832
49.583689934222 -0.006759965580695079 3.382499698016826
49.583831076066794 -0.007770878859616327 3.379379425232431
49.5838624135116 -0.00795227359278342 3.3777807300263674
49.58393094274935 -0.009080849747491357 3.3770965725606152
49.58403196966134 -0.010791386983302209 3.3774547693220733
49.584029751541564 -0.01182555016153607 3.3795704434832703
49.58398723694228 -0.012891290666115196 3.383113785140888
49.583896452142014 -0.013996765228525054 3.388094521933493
49.583687363874674 -0.014811013362112236 3.394895790306451
49.58342345252697 -0.016141973123888546 3.402967125947121
49.58324217519338 -0.017582489882925156 3.4122175413384754
49.58286768613497 -0.01887144846678559 3.423634245508493
49.58239781297326 -0.020206745637587044 3.4369290535344628
49.58181942193465 -0.021583765793848107 3.4522281932296557
49.58111877836272 -0.022994347731833675 3.469665350275929
49.58019348517545 -0.023313335177360353 3.4898129784213747
49.57922694453476 -0.025683505206916302 3.51216789303099
49.578153803146876 -0.027315573930298813 3.536139079985664
49.576836441702966 -0.028743307481274773 3.563395541599182
49.57533383720535 -0.030140040216205925 3.593324874332449
49.57363429740448 -0.031487916622470295 3.625948031272881
49.57172801948668 -0.032766995419124686 3.6612438638284672
49.569608197158466 -0.03395560762529728 3.699145661704155
49.56727199055645 -0.03503070120231555 3.7395383188672837
49.56469850538133 -0.037111502405535964 3.781742096707362
49.56195101604108 -0.03835349407163199 3.826589216774528
49.55899693363795 -0.03918413827739808 3.8733803413851926
49.555867260918326 -0.03962261994706103 3.9216603181792284
49.55260145843883 -0.039689499513838586 3.9708915256486894
49.54931394959478 -0.0377741548908811 4.020098394304467
49.54594397548419 -0.0374572170186399 4.0690919703632975
49.54260612638227 -0.03692715559544318 4.116921195634955
49.53937043318146 -0.03621797420095475 4.162725074887919
49.53630799798773 -0.035377021750966665 4.2056382659050255
49.53348660601207 -0.034461210351870386 4.2448434780217195
49.530967073889364 -0.03353216649513626 4.2796148744925695
49.530864496879374 0.03357280499096786 4.280221111820964
49.533385221084345 0.03450241809684923 4.245441529082193
49.536207978523315 0.035418836096200966 4.206227044381547
49.53927193615123 0.036260408536265054 4.163303627027749
49.542509288060074 0.03697019925783206 4.117488708203287
49.54584890712109 0.03750083725009287 4.069647768113083
49.549220733531754 0.03781830125375353 4.020641924647532
49.55251058195024 0.039735680229699206 3.9714250086720324
49.555778269208645 0.03966900020307486 3.9221811229051964
49.55890984871611 0.03923033994467706 3.8738878025432353
49.5618658442776 0.03839909287474036 3.82708256633466
49.5646152505821 0.03715603372825678 3.7822204253946747
49.56719002041023 0.035077109541343146 3.739998790684509
49.56952802147305 0.03400248163769098 3.6995902894365478
49.57164967979762 0.03281444092758288 3.661671982889928
49.573557894285024 0.03153603500787203 3.6263591257872996
49.57525953140275 0.03018889570571072 3.5937186936648517
49.576764441204055 0.028792893834345634 3.5637721548558425
49.578084333425274 0.027365787809991042 3.536498833247851
49.57915936392049 0.025736075434362213 3.51251889138717
49.580128561735954 0.023363160533678158 3.4901498241472826
49.581057705296814 0.023044853674537978 3.469977545334481
49.581761021985415 0.02163370185178657 3.452525474292507
49.58234180257711 0.020255854486728158 3.4372119422421052
49.58281368597539 0.018919584391542472 3.423903444682866
49.58318975443511 0.017629634534999435 3.4124739751935462
49.583368378460584 0.01619558613808997 3.4032341496234197
49.58363235203818 0.014854986604212313 3.395162824129956
49.58384642418393 0.014041926360402199 3.388319454171229
49.583937401796234 0.012936267326019438 3.3833308936183744
49.58397979683131 0.0118705549237077 3.379781515119841
49.58398148470616 0.010836656528644238 3.3776618278868904
49.58387567790269 0.009127947793259096 3.37742100796275
49.583810157936334 0.007990958765295902 3.377955778685873
49.58377545270833 0.007820066312376821 3.3795892783850814
49.58363147760655 0.006812678868608268 3.3827178771600805
49.58343811463337 0.005792860997803119 3.3869818732677017
49.583196544754614 0.00439079437398861 3.3928853509205963
49.582801424815585 0.0032787776935420125 3.399733935298505
49.582340806139484 0.0026061929490930613 3.4081064749964414
49.5816852566271 0.0015242946396656811 3.419104174883539
49.58083713736311 0.0004767396230080268 3.4329048347837094
49.57977769950288 -0.0007307585963876822 3.4503678554038184
49.57849044332537 -0.0014013258482477246 3.4713930680834455
49.576947593087176 -0.002140532251901305 3.4970523671578615
49.5751956757282 -0.0025981322678239977 3.5260428745514094
49.57342234920949 -0.002529214575406911 3.5543084425323923
49.572165512837906 -0.0019696324426458234 3.573490801897306
49.571735844751196 -0.000988631095626679 3.5781380041879114
49.57198622998289 -0.0001952489462447083 3.5717641847971517
49.57198673186414 0.00023799424998398555 3.571761220244642
49.57173710336367 0.0010324163604310986 3.578132062505596
49.572167313243874 0.0020150816669578533 3.573484057256764
49.57350337968468 0.0025314596559281323 3.5539689669179118
49.575233925610895 0.002617500271432465 3.525955888849656
49.57699153358651 0.0021462520520847982 3.4969373160336286
49.57855369230007 0.00131802714466764 3.4712121963765434
49.57987044346019 0.00027078671376696466 3.4499157872345827
49.58085556707834 -0.0004036989493538387 3.432773275225778
49.58171429207683 -0.0014451908432288572 3.418930249452686
49.582383458598215 -0.002526137834569342 3.4078920757284976
49.58286830705811 -0.0032028621372427787 3.399400969094873
49.583251022818494 -0.0042827073599719 3.3925798392428055
49.583498927385875 -0.005734588073819865 3.386751507571832
49.583689934222 -0.006759965580695079 3.382499698016826
49.583831076066794 -0.007770878859616327 3.379379425232431
49.5838624135116 -0.00795227359278342 3.3777807300263674
49.58393094274935 -0.009080849747491357 3.3770965725606152
49.58403196966134 -0.010791386983302209 3.3774547693220733
49.584029751541564 -0.01182555016153607 3.3795704434832703
49.58398723694228 -0.012891290666115196 3.383113785140888
49.583896452142014 -0.013996765228525054 3.388094521933493
49.583687363874674 -0.014811013362112236 3.394895790306451
49.58342345252697 -0.016141973123888546 3.402967125947121
49.58324217519338 -0.017582489882925156 3.4122175413384754
49.58286768613497 -0.01887144846678559 3.423634245508493
49.58239781297326 -0.020206745637587044 3.4369290535344628
49.58181942193465 -0.021583765793848107 3.4522281932296557
49.58111877836272 -0.022994347731833675 3.469665350275929
49.58019348517545 -0.023313335177360353 3.4898129784213747
49.57922694453476 -0.025683505206916302 3.51216789303099
49.578153803146876 -0.027315573930298813 3.536139079985664
49.576836441702966 -0.028743307481274773 3.563395541599182
49.57533383720535 -0.030140040216205925 3.593324874332449
49.57363429740448 -0.031487916622470295 3.625948031272881
49.57172801948668 -0.032766995419124686 3.6612438638284672
49.569608197158466 -0.03395560762529728 3.699145661704155
49.56727199055645 -0.03503070120231555 3.7395383188672837
49.56469850538133 -0.037111502405535964 3.781742096707362
49.56195101604108 -0.03835349407163199 3.826589216774528
49.55899693363795 -0.03918413827739808 3.8733803413851926
49.555867260918326 -0.03962261994706103 3.9216603181792284
49.55260145843883 -0.039689499513838586 3.9708915256486894
49.54931394959478 -0.0377741548908811 4.020098394304467
49.54594397548419 -0.0374572170186399 4.0690919703632975
49.54260612638227 -0.03692715559544318 4.116921195634955
49.53937043318146 -0.03621797420095475 4.162725074887919
49.53630799798773 -0.035377021750966665 4.2056382659050255
49.53348660601207 -0.034461210351870386 4.2448434780217195
49.530967073889364 -0.03353216649513626 4.2796148744925695

VECTORS L float
-0.006613626976167884 0.0 0.09006046283198205
-0.01193306217741336 0.0 0.16249738707267933
-0.017632978227165915 0.0 0.2401154746052785
-0.023904886154678645 0.0 0.32552260942355693
-0.03079076848102139 0.0 0.4192904846834831
-0.03829241339484485 0.0 0.5214434508810999
-0.04639507344311195 0.0 0.6317806859182006
-0.055074836624285826 0.0 0.7499765702922928
-0.06430126658616736 0.0 0.8756166397501236
-0.0740389427050607 0.0 1.0082185571754119
-0.08424813606983786 0.0 1.1472413177402634
-0.09488523332042222 0.0 1.292091020487108
-0.10590335746285379 0.0 1.442129322221293
-0.1172519121864953 0.0 1.5966672322921507
-0.12887960772854262 0.0 1.7550063170273058
-0.14073454826321538 0.0 1.9164398897470187
-0.1527654904295738 0.0 2.080270148652075
-0.1649230001018885 0.0 2.2458239290389126
-0.17716041140980782 0.0 2.4124657626693806
-0.18943486170490711 0.0 2.5796119713334384
-0.2017038193557506 0.0 2.746683384414735
-0.2139312301297003 0.0 2.9131890366849422
-0.22608780746387458 0.0 3.0787301210420908
-0.23814323463989068 0.0 3.242893802335522
-0.25007199130838453 0.0 3.4053325595327313
-0.26185161814464974 0.0 3.5657405548256236
-0.2734627357189749 0.0 3.7238538905956116
-0.28488570422936416 0.0 3.8794051236282465
-0.29610389231277556 0.0 4.032167777852459
-0.30710530433900984 0.0 4.181978503866838
-0.31787531933187485 0.0 4.32863820186009
-0.32840002526946177 0.0 4.471957426141288
-0.338665520164518 0.0 4.611746867665522
-0.3486515925783071 0.0 4.7477312990071034
-0.35834004300645617 0.0 4.87966289007325
-0.3677114542657628 0.0 5.007277229140652
-0.3767398597466653 0.0 5.130220718269218
-0.3853974225070924 0.0 5.248114290436297
-0.39364724518254307 0.0 5.360455499142231
-0.40145138168507394 0.0 5.46672761699142
-0.4087677237456212 0.0 5.566357238466047
-0.4155394472564502 0.0 5.658570566455835
-0.42169843465058104 0.0 5.742440016198094
-0.4271562526331303 0.0 5.816761355356219
-0.4318123982031604 0.0 5.880165993470988
-0.4355399624541532 0.0 5.930925760069568
-0.438202730405157 0.0 5.967185760058338
-0.43970388580113046 0.0 5.987627606904444
-0.4400759107401141 0.0 5.992693622618762
-0.4382827795052043 0.0 5.968275821385583
-0.4382808244041958 0.0 5.968249197975714
-0.440070426300554 0.0 5.992618938762697
-0.4396941811641971 0.0 5.987495454895118
-0.4381877629021508 0.0 5.966981941449723
-0.4355238933024742 0.0 5.9307069398605154
-0.43179398593479823 0.0 5.879915266083963
-0.4271351358574383 0.0 5.816473799587018
-0.4216742134218142 0.0 5.74211018582197
-0.41551555426768433 0.0 5.6582452058580195
-0.4087428762333585 0.0 5.566018879731473
-0.4014254601137849 0.0 5.466374632355905
-0.3936201337886692 0.0 5.360086312206061
-0.3853703047939499 0.0 5.247745017448063
-0.3767132784689467 0.0 5.129858750141497
-0.36768528599297123 0.0 5.0069208850699
-0.35831426129807625 0.0 4.879311810008158
-0.3486261744895825 0.0 4.74738517049954