# vtk DataFile Version 4.0
[MyVLM domain - lattices] 
ASCII
DATASET UNSTRUCTURED_GRID
POINTS 302 float
1.2444999999999997 -1.2445 0.0
1.2399745454545452 -1.2399745454545454 0.0
1.2346178849721705 -1.2346178849721707 0.0
1.2284300185528754 -1.2284300185528756 0.0
1.2214109461966602 -1.2214109461966605 0.0
1.2135606679035247 -1.213560667903525 0.0
1.2048791836734691 -1.2048791836734694 0.0
1.1953664935064932 -1.1953664935064934 0.0
1.1850225974025972 -1.1850225974025974 0.0
1.1738474953617808 -1.173847495361781 0.0
1.1618411873840442 -1.1618411873840444 0.0
1.1490036734693874 -1.1490036734693876 0.0
1.1353349536178106 -1.1353349536178108 0.0
1.1208350278293133 -1.1208350278293135 0.0
1.1055038961038959 -1.105503896103896 0.0
1.0893415584415582 -1.0893415584415584 0.0
1.0723480148423004 -1.0723480148423006 0.0
1.054523265306122 -1.0545232653061223 0.0
1.0358673098330238 -1.035867309833024 0.0
1.0163801484230053 -1.0163801484230055 0.0
0.9960617810760664 -0.9960617810760668 0.0
0.9749122077922076 -0.9749122077922077 0.0
0.9529314285714284 -0.9529314285714284 0.0
0.9301194434137288 -0.930119443413729 0.0
0.9064762523191091 -0.9064762523191096 0.0
0.8820018552875695 -0.8820018552875695 0.0
0.8566962523191093 -0.8566962523191094 0.0
0.8305594434137288 -0.8305594434137291 0.0
0.8035914285714284 -0.8035914285714285 0.0
0.7757922077922076 -0.7757922077922077 0.0
0.7471617810760666 -0.7471617810760667 0.0
0.7177001484230053 -0.7177001484230054 0.0
0.6874073098330239 -0.687407309833024 0.0
0.6562832653061222 -0.6562832653061225 0.0
0.6243280148423004 -0.6243280148423005 0.0
0.5915415584415582 -0.5915415584415583 0.0
0.5579238961038958 -0.5579238961038959 0.0
0.5234750278293133 -0.5234750278293134 0.0
0.48819495361781057 -0.48819495361781057 0.0
0.4520836734693877 -0.4520836734693877 0.0
0.4151411873840445 -0.4151411873840446 0.0
0.37736749536178105 -0.37736749536178116 0.0
0.3387625974025974 -0.3387625974025974 0.0
0.2993264935064933 -0.29932649350649343 0.0
0.25905918367346925 -0.25905918367346925 0.0
0.21796066790352486 -0.21796066790352486 0.0
0.17603094619666027 -0.1760309461966605 0.0
0.13327001855287546 -0.13327001855287568 0.0
0.08967788497217066 -0.08967788497217066 0.0
0.045254545454545436 -0.045254545454545436 0.0
0.0 0.0 0.0
0.04525454545454545 0.04525454545454546 0.0
0.08967788497217066 0.08967788497217068 0.0
0.13327001855287568 0.1332700185528757 0.0
0.17603094619666046 0.1760309461966605 0.0
0.21796066790352497 0.21796066790352508 0.0
0.2590591836734693 0.25905918367346936 0.0
0.29932649350649343 0.2993264935064935 0.0
0.3387625974025973 0.33876259740259734 0.0
0.37736749536178094 0.377367495361781 0.0
0.41514118738404443 0.4151411873840445 0.0
0.45208367346938766 0.4520836734693878 0.0
0.48819495361781057 0.4881949536178107 0.0
0.5234750278293133 0.5234750278293134 0.0
0.5579238961038959 0.557923896103896 0.0
0.5915415584415582 0.5915415584415583 0.0
0.6243280148423003 0.6243280148423004 0.0
0.6562832653061222 0.6562832653061225 0.0
0.687407309833024 0.6874073098330241 0.0
0.7177001484230054 0.7177001484230056 0.0
0.7471617810760667 0.7471617810760669 0.0
0.7757922077922076 0.7757922077922077 0.0
0.8035914285714284 0.8035914285714285 0.0
0.8305594434137288 0.830559443413729 0.0
0.8566962523191093 0.8566962523191094 0.0
0.8820018552875692 0.8820018552875695 0.0
0.9064762523191091 0.9064762523191093 0.0
0.9301194434137288 0.9301194434137292 0.0
0.9529314285714284 0.9529314285714284 0.0
0.9749122077922076 0.9749122077922077 0.0
0.9960617810760666 0.9960617810760668 0.0
1.0163801484230053 1.0163801484230055 0.0
1.0358673098330238 1.035867309833024 0.0
1.054523265306122 1.0545232653061223 0.0
1.0723480148423001 1.0723480148423004 0.0
1.0893415584415582 1.0893415584415584 0.0
1.1055038961038959 1.105503896103896 0.0
1.120835027829313 1.1208350278293133 0.0
1.1353349536178106 1.1353349536178106 0.0
1.1490036734693874 1.1490036734693876 0.0
1.1618411873840444 1.1618411873840446 0.0
1.1738474953617808 1.173847495361781 0.0
1.1850225974025972 1.1850225974025972 0.0
1.1953664935064932 1.1953664935064934 0.0
1.2048791836734691 1.2048791836734694 0.0
1.2135606679035245 1.2135606679035247 0.0
1.22141094619666 1.2214109461966602 0.0
1.2284300185528754 1.2284300185528756 0.0
1.2346178849721703 1.2346178849721705 0.0
1.2399745454545452 1.2399745454545454 0.0
1.2444999999999997 1.2445 0.0
1.7422999999999997 -1.2445 0.0
1.7377745454545452 -1.2399745454545454 0.0
1.7324178849721703 -1.2346178849721707 0.0
1.7262300185528754 -1.2284300185528756 0.0
1.7192109461966603 -1.2214109461966605 0.0
1.7113606679035245 -1.213560667903525 0.0
1.7026791836734692 -1.2048791836734694 0.0
1.6931664935064934 -1.1953664935064934 0.0
1.6828225974025972 -1.1850225974025974 0.0
1.6716474953617806 -1.173847495361781 0.0
1.6596411873840444 -1.1618411873840444 0.0
1.6468036734693878 -1.1490036734693876 0.0
1.6331349536178106 -1.1353349536178108 0.0
1.6186350278293133 -1.1208350278293135 0.0
1.603303896103896 -1.105503896103896 0.0
1.5871415584415582 -1.0893415584415584 0.0
1.5701480148423004 -1.0723480148423006 0.0
1.552323265306122 -1.0545232653061223 0.0
1.5336673098330238 -1.035867309833024 0.0
1.5141801484230053 -1.0163801484230055 0.0
1.4938617810760666 -0.9960617810760668 0.0
1.4727122077922075 -0.9749122077922077 0.0
1.4507314285714283 -0.9529314285714284 0.0
1.4279194434137288 -0.930119443413729 0.0
1.4042762523191092 -0.9064762523191096 0.0
1.3798018552875693 -0.8820018552875695 0.0
1.3544962523191093 -0.8566962523191094 0.0
1.328359443413729 -0.8305594434137291 0.0
1.3013914285714283 -0.8035914285714285 0.0
1.2735922077922077 -0.7757922077922077 0.0
1.2449617810760665 -0.7471617810760667 0.0
1.2155001484230055 -0.7177001484230054 0.0
1.1852073098330238 -0.687407309833024 0.0
1.1540832653061224 -0.6562832653061225 0.0
1.1221280148423003 -0.6243280148423005 0.0
1.0893415584415582 -0.5915415584415583 0.0
1.055723896103896 -0.5579238961038959 0.0
1.0212750278293132 -0.5234750278293134 0.0
0.9859949536178108 -0.48819495361781057 0.0
0.9498836734693876 -0.4520836734693877 0.0
0.9129411873840445 -0.4151411873840446 0.0
0.875167495361781 -0.37736749536178116 0.0
0.8365625974025973 -0.3387625974025974 0.0
0.7971264935064933 -0.29932649350649343 0.0
0.7568591836734693 -0.25905918367346925 0.0
0.7157606679035249 -0.21796066790352486 0.0
0.6738309461966603 -0.1760309461966605 0.0
0.6310700185528755 -0.13327001855287568 0.0
0.5874778849721707 -0.08967788497217066 0.0
0.5430545454545455 -0.045254545454545436 0.0
0.4978 0.0 0.0
0.5430545454545455 0.04525454545454546 0.0
0.5874778849721707 0.08967788497217068 0.0
0.6310700185528757 0.1332700185528757 0.0
0.6738309461966605 0.1760309461966605 0.0
0.715760667903525 0.21796066790352508 0.0
0.7568591836734693 0.25905918367346936 0.0
0.7971264935064934 0.2993264935064935 0.0
0.8365625974025973 0.33876259740259734 0.0
0.875167495361781 0.377367495361781 0.0
0.9129411873840445 0.4151411873840445 0.0
0.9498836734693876 0.4520836734693878 0.0
0.9859949536178105 0.4881949536178107 0.0
1.0212750278293132 0.5234750278293134 0.0
1.055723896103896 0.557923896103896 0.0
1.0893415584415582 0.5915415584415583 0.0
1.1221280148423003 0.6243280148423004 0.0
1.1540832653061224 0.6562832653061225 0.0
1.185207309833024 0.6874073098330241 0.0
1.2155001484230055 0.7177001484230056 0.0
1.2449617810760667 0.7471617810760669 0.0
1.2735922077922077 0.7757922077922077 0.0
1.3013914285714283 0.8035914285714285 0.0
1.3283594434137287 0.830559443413729 0.0
1.3544962523191093 0.8566962523191094 0.0
1.3798018552875693 0.8820018552875695 0.0
1.4042762523191092 0.9064762523191093 0.0
1.427919443413729 0.9301194434137292 0.0
1.4507314285714283 0.9529314285714284 0.0
1.4727122077922075 0.9749122077922077 0.0
1.4938617810760666 0.9960617810760668 0.0
1.5141801484230053 1.0163801484230055 0.0
1.5336673098330238 1.035867309833024 0.0
1.552323265306122 1.0545232653061223 0.0
1.5701480148423002 1.0723480148423004 0.0
1.5871415584415582 1.0893415584415584 0.0
1.603303896103896 1.105503896103896 0.0
1.6186350278293131 1.1208350278293133 0.0
1.6331349536178106 1.1353349536178106 0.0
1.6468036734693874 1.1490036734693876 0.0
1.6596411873840444 1.1618411873840446 0.0
1.6716474953617806 1.173847495361781 0.0
1.6828225974025972 1.1850225974025972 0.0
1.6931664935064934 1.1953664935064934 0.0
1.7026791836734692 1.2048791836734694 0.0
1.7113606679035245 1.2135606679035247 0.0
1.71921094619666 1.2214109461966602 0.0
1.7262300185528754 1.2284300185528756 0.0
1.7324178849721703 1.2346178849721705 0.0
1.7377745454545452 1.2399745454545454 0.0
1.7422999999999997 1.2445 0.0
1.6155872727272724 -1.2422372727272726 0.0
1.6106462152133578 -1.237296215213358 0.0
1.604873951762523 -1.2315239517625232 0.0
1.598270482374768 -1.224920482374768 0.0
1.5908358070500925 -1.2174858070500927 0.0
1.582569925788497 -1.2092199257884972 0.0
1.5734728385899812 -1.2001228385899814 0.0
1.5635445454545454 -1.1901945454545453 0.0
1.552785046382189 -1.1794350463821892 0.0
1.5411943413729126 -1.1678443413729127 0.0
1.5287724304267158 -1.155422430426716 0.0
1.5155193135435991 -1.142169313543599 0.0
1.501434990723562 -1.1280849907235622 0.0
1.4865194619666047 -1.1131694619666048 0.0
1.4707727272727271 -1.0974227272727273 0.0
1.4541947866419294 -1.0808447866419293 0.0
1.4367856400742112 -1.0634356400742113 0.0
1.418545287569573 -1.0451952875695731 0.0
1.3994737291280146 -1.0261237291280147 0.0
1.379570964749536 -1.0062209647495362 0.0
1.358836994434137 -0.9854869944341371 0.0
1.337271818181818 -0.9639218181818181 0.0
1.3148754359925787 -0.9415254359925787 0.0
1.291647847866419 -0.9182978478664192 0.0
1.2675890538033394 -0.8942390538033393 0.0
1.2426990538033393 -0.8693490538033395 0.0
1.2169778478664193 -0.8436278478664192 0.0
1.1904254359925788 -0.8170754359925788 0.0
1.163041818181818 -0.7896918181818181 0.0
1.1348269944341371 -0.7614769944341371 0.0
1.105780964749536 -0.7324309647495362 0.0
1.0759037291280147 -0.7025537291280148 0.0
1.0451952875695731 -0.6718452875695733 0.0
1.0136556400742114 -0.6403056400742114 0.0
0.9812847866419293 -0.6079347866419293 0.0
0.9480827272727271 -0.5747327272727272 0.0
0.9140494619666047 -0.5406994619666048 0.0
0.8791849907235622 -0.5058349907235622 0.0
0.8434893135435992 -0.47013931354359917 0.0
0.8069624304267162 -0.43361243042671627 0.0
0.7696043413729128 -0.3962543413729128 0.0
0.7314150463821893 -0.3580650463821894 0.0
0.6923945454545455 -0.3190445454545454 0.0
0.6525428385899814 -0.27919283858998134 0.0
0.6118599257884971 -0.23850992578849706 0.0
0.5703458070500929 -0.19699580705009279 0.0
0.5280004823747682 -0.15465048237476808 0.0
0.4848239517625232 -0.11147395176252317 0.0
0.4408162152133581 -0.06746621521335805 0.0
0.39597727272727273 -0.022627272727272718 0.0
0.39597727272727273 0.02262727272727273 0.0
0.4408162152133581 0.06746621521335806 0.0
0.4848239517625232 0.11147395176252319 0.0
0.528000482374768 0.15465048237476808 0.0
0.5703458070500929 0.19699580705009276 0.0
0.6118599257884971 0.23850992578849717 0.0
0.6525428385899814 0.2791928385899814 0.0
0.6923945454545455 0.3190445454545454 0.0
0.7314150463821891 0.3580650463821891 0.0
0.7696043413729128 0.39625434137291277 0.0
0.8069624304267162 0.43361243042671616 0.0
0.8434893135435992 0.4701393135435992 0.0
0.8791849907235619 0.5058349907235621 0.0
0.9140494619666046 0.5406994619666047 0.0
0.9480827272727271 0.5747327272727272 0.0
0.9812847866419294 0.6079347866419295 0.0
1.0136556400742114 0.6403056400742114 0.0
1.0451952875695731 0.6718452875695732 0.0
1.0759037291280147 0.7025537291280147 0.0
1.105780964749536 0.7324309647495362 0.0
1.1348269944341371 0.7614769944341373 0.0
1.163041818181818 0.789691818181818 0.0
1.1904254359925786 0.8170754359925786 0.0
1.216977847866419 0.843627847866419 0.0
1.2426990538033393 0.8693490538033394 0.0
1.2675890538033392 0.8942390538033393 0.0
1.291647847866419 0.9182978478664192 0.0
1.3148754359925787 0.9415254359925787 0.0
1.3372718181818182 0.9639218181818181 0.0
1.3588369944341372 0.9854869944341373 0.0
1.379570964749536 1.0062209647495362 0.0
1.3994737291280148 1.0261237291280147 0.0
1.418545287569573 1.0451952875695731 0.0
1.4367856400742112 1.0634356400742113 0.0
1.4541947866419291 1.0808447866419293 0.0
1.470772727272727 1.097422727272727 0.0
1.4865194619666047 1.1131694619666048 0.0
1.501434990723562 1.128084990723562 0.0
1.5155193135435991 1.1421693135435993 0.0
1.528772430426716 1.1554224304267162 0.0
1.5411943413729128 1.1678443413729127 0.0
1.5527850463821888 1.179435046382189 0.0
1.5635445454545451 1.1901945454545453 0.0
1.573472838589981 1.2001228385899811 0.0
1.5825699257884969 1.209219925788497 0.0
1.5908358070500925 1.2174858070500927 0.0
1.5982704823747678 1.224920482374768 0.0
1.604873951762523 1.2315239517625232 0.0
1.6106462152133578 1.237296215213358 0.0
1.6155872727272724 1.2422372727272726 0.0

CELLS 200 700
4 0 101 102 1
4 1 102 103 2
4 2 103 104 3
4 3 104 105 4
4 4 105 106 5
4 5 106 107 6
4 6 107 108 7
4 7 108 109 8
4 8 109 110 9
4 9 110 111 10
4 10 111 112 11
4 11 112 113 12
4 12 113 114 13
4 13 114 115 14
4 14 115 116 15
4 15 116 117 16
4 16 117 118 17
4 17 118 119 18
4 18 119 120 19
4 19 120 121 20
4 20 121 122 21
4 21 122 123 22
4 22 123 124 23
4 23 124 125 24
4 24 125 126 25
4 25 126 127 26
4 26 127 128 27
4 27 128 129 28
4 28 129 130 29
4 29 130 131 30
4 30 131 132 31
4 31 132 133 32
4 32 133 134 33
4 33 134 135 34
4 34 135 136 35
4 35 136 137 36
4 36 137 138 37
4 37 138 139 38
4 38 139 140 39
4 39 140 141 40
4 40 141 142 41
4 41 142 143 42
4 42 143 144 43
4 43 144 145 44
4 44 145 146 45
4 45 146 147 46
4 46 147 148 47
4 47 148 149 48
4 48 149 150 49
4 49 150 151 50
4 50 151 152 51
4 51 152 153 52
4 52 153 154 53
4 53 154 155 54
4 54 155 156 55
4 55 156 157 56
4 56 157 158 57
4 57 158 159 58
4 58 159 160 59
4 59 160 161 60
4 60 161 162 61
4 61 162 163 62
4 62 163 164 63
4 63 164 165 64
4 64 165 166 65
4 65 166 167 66
4 66 167 168 67
4 67 168 169 68
4 68 169 170 69
4 69 170 171 70
4 70 171 172 71
4 71 172 173 72
4 72 173 174 73
4 73 174 175 74
4 74 175 176 75
4 75 176 177 76
4 76 177 178 77
4 77 178 179 78
4 78 179 180 79
4 79 180 181 80
4 80 181 182 81
4 81 182 183 82
4 82 183 184 83
4 83 184 185 84
4 84 185 186 85
4 85 186 187 86
4 86 187 188 87
4 87 188 189 88
4 88 189 190 89
4 89 190 191 90
4 90 191 192 91
4 91 192 193 92
4 92 193 194 93
4 93 194 195 94
4 94 195 196 95
4 95 196 197 96
4 96 197 198 97
4 97 198 199 98
4 98 199 200 99
4 99 200 201 100
1 202
1 203
1 204
1 205
1 206
1 207
1 208
1 209
1 210
1 211
1 212
1 213
1 214
1 215
1 216
1 217
1 218
1 219
1 220
1 221
1 222
1 223
1 224
1 225
1 226
1 227
1 228
1 229
1 230
1 231
1 232
1 233
1 234
1 235
1 236
1 237
1 238
1 239
1 240
1 241
1 242
1 243
1 244
1 245
1 246
1 247
1 248
1 249
1 250
1 251
1 252
1 253
1 254
1 255
1 256
1 257
1 258
1 259
1 260
1 261
1 262
1 263
1 264
1 265
1 266
1 267
1 268
1 269
1 270
1 271
1 272
1 273
1 274
1 275
1 276
1 277
1 278
1 279
1 280
1 281
1 282
1 283
1 284
1 285
1 286
1 287
1 288
1 289
1 290
1 291
1 292
1 293
1 294
1 295
1 296
1 297
1 298
1 299
1 300
1 301

CELL_TYPES 200
9
9
9
9
9
9
9
9
9
9
9
9
9
9
9
9
9
9
9
9
9
9
9
9
9
9
9
9
9
9
9
9
9
9
9
9
9
9
9
9
9
9
9
9
9
9
9
9
9
9
9
9
9
9
9
9
9
9
9
9
9
9
9
9
9
9
9
9
9
9
9
9
9
9
9
9
9
9
9
9
9
9
9
9
9
9
9
9
9
9
9
9
9
9
9
9
9
9
9
9
1
1
1
1
1
1
1
1
1
1
1
1
1
1
1
1
1
1
1
1
1
1
1
1
1
1
1
1
1
1
1
1
1
1
1
1
1
1
1
1
1
1
1
1
1
1
1
1
1
1
1
1
1
1
1
1
1
1
1
1
1
1
1
1
1
1
1
1
1
1
1
1
1
1
1
1
1
1
1
1
1
1
1
1
1
1
1
1
1
1
1
1
1
1
1
1
1
1
1
1

CELL_DATA 200

VECTORS Vinf float
49.53841352118908 0.02914191131746936 4.233834283535305
49.54081599662803 0.03020109152564187 4.199293342043508
49.543504425955234 0.031376988225975136 4.160348267065371
49.54641796191489 0.03265597655843265 4.117744320174529
49.549487504118645 0.03403456895949959 4.072338592875493
49.55263895089511 0.03552385789585712 4.025063235230857
49.55579729090837 0.03715295820572661 3.9768795035132873
49.558890798220865 0.03897062341184115 3.9287323569137445
49.561854507734495 0.04104457715598031 3.881515736232985
49.56335640667052 0.03230865367849908 3.8316583792785353
49.56597353943798 0.031871532276484545 3.7858623512851852
49.56840560728958 0.0312813009865742 3.741853699704756
49.57064646150859 0.030561251862419245 3.6999195085756553
49.573265746512796 0.03340842666383389 3.6610197482773525
49.575073227048335 0.031354701657763655 3.625173426357441
49.57677639002573 0.02978604437229 3.5911065766118857
49.578370594702314 0.028800856547906453 3.5590744898284115
49.57985041803888 0.02850322713893631 3.5293064940015717
49.58023310833305 0.024407062526992793 3.500703237222878
49.58123531266006 0.02319509733912989 3.4767147868143673
49.582086261386145 0.021969183226865505 3.4552467232833934
49.582943251869835 0.022027410471509468 3.438113656540745
49.58354808625511 0.02060022876136879 3.421760643324776
49.58414225057232 0.019683514683644796 3.4066536934975895
49.58474259147152 0.019361118260182695 3.3928149724837073
49.58453440731901 0.016125034875096724 3.3810392500600424
49.58477456069329 0.015063144558000757 3.3718345688064044
49.58428687300521 0.0161588293058423 3.363434886285437
49.58447889107145 0.014739663486405243 3.358803359905891
49.58462369891978 0.013311673071518726 3.3551072064429386
49.58471706619451 0.011888027228031747 3.352422159727854
49.58475750297353 0.01048130611435011 3.3508257789623563
49.58474388738572 0.00910079940074729 3.350387326680136
49.58467177180063 0.0077526581886713285 3.3511527950138955
49.58487867084715 0.0072285909080902705 3.351546288660352
49.58468032723402 0.006280108262076036 3.3550166430248938
49.582824670523216 0.005706377265578548 3.359307830792112
49.58244341835111 0.004618675237096077 3.3663308373336154
49.582010107696284 0.003500586749649081 3.3745575149119973
49.5815093182885 0.002351036313005246 3.384361571385228
49.58091464578581 0.0011698399174398578 3.396201607398995
49.58018876681259 -3.5125437446194536e-5 3.410623891006237
49.580939413126835 -0.0006433686818557295 3.4243730078377594
49.579383735808264 -0.0009796598025546411 3.446551813758582
49.57785191476537 -0.002139555639263235 3.4723630139730437
49.575961921757326 -0.002895762139267664 3.501723165010961
49.57397315174895 -0.0029724626368259387 3.5304056524888363
49.57245966413011 -0.0022108568436924087 3.5505246673483524
49.57191848367147 -0.0009148439378844963 3.5560140433299385
49.57235635557724 -0.00022936534343303606 3.549825960506009
49.57235825012035 0.00028808525836493626 3.549819263640532
49.571911423281435 0.0011411962064676313 3.556084956086715
49.57246062638258 0.0023717631668585776 3.5505306130544048
49.57398743906634 0.0030729128395694783 3.5303613948549395
49.575985877643 0.002940779141887838 3.501677561431533
49.57787807917047 0.00214235036829707 3.4724088836999014
49.57941133518253 0.0009563491436650136 3.4468263677285584
49.58094789039085 0.0007094769554375997 3.4243346432642667
49.580255965542996 5.415239783899344e-5 3.410558937179086
49.5809924070566 -0.0011090965963779828 3.3960934427920435
49.58159251294617 -0.0022523236542893294 3.3842391911469303
49.58209664202899 -0.003366187978119136 3.374393063356483
49.582534050244746 -0.004450270072389396 3.3660506800398484
49.58292265873143 -0.005505008659492038 3.3588024443694846
49.58472036496686 -0.006231984952731708 3.354894647326427
49.584915489502606 -0.007181795929560541 3.3513906744078006
49.58475040554768 -0.007392612891060057 3.350861206850299
49.58477945436559 -0.008923237520544384 3.3501333825684676
49.58478003443671 -0.010402782781291801 3.350508948992441
49.58474921556588 -0.011832657799828814 3.35201090586295
49.584682400143485 -0.013210031851802178 3.354619911066146
49.584576717350195 -0.01452811042282164 3.3582936664509475
49.58443311602223 -0.015779147608583784 3.3629806550444323
49.58483037617377 -0.014996599478355964 3.3713791167762266
49.584595713923065 -0.016056960182883714 3.380539528422439
49.58474329843822 -0.019280419953552647 3.392114463533926
49.584160271480165 -0.01960175110041037 3.4059069107222357
49.58358291565967 -0.02051774432531404 3.4209680619525153
49.58299441029287 -0.021944535766852975 3.4372752855523743
49.58217630970142 -0.021896547822230862 3.454531027585818
49.581331220929584 -0.02312205007257945 3.475954816000971
49.58033488220479 -0.02433375260445479 3.499898441147608
49.57987436484677 -0.02840532584288584 3.5282538582334904
49.57840958135041 -0.02870316873085336 3.5579748331187964
49.576829964801554 -0.029688539169090263 3.5899597229133042
49.57514091457266 -0.03125735876417695 3.623979353740982
49.57334704957625 -0.03331123631024828 3.6597785799983904
49.570782826788 -0.03048896166497567 3.698841323739728
49.568547566240014 -0.031209567868464634 3.7407298833210425
49.56612101589773 -0.0318004586024188 3.784693240776303
49.563509307093355 -0.032238337361002664 3.830444544356015
49.561911288995766 -0.04100208026212345 3.880043421051197
49.558957270973586 -0.03892923102960218 3.927220015103086
49.55587302267534 -0.037112603251429954 3.9753278151292353
49.552723444227034 -0.03548448606592763 4.023473370082065
49.5495801968754 -0.03399613295531819 4.070712210555149
49.54651822843715 -0.0326184297220659 4.116083565328412
49.543611579735 -0.031340278535611915 4.1586557528208346
49.5409292947101 -0.030165156786643287 4.197572118169135
49.53853217014706 -0.02910667606023729 4.232087790125781
49.53841352118908 0.02914191131746936 4.233834283535305
49.54081599662803 0.03020109152564187 4.199293342043508
49.543504425955234 0.031376988225975136 4.160348267065371
49.54641796191489 0.03265597655843265 4.117744320174529
49.549487504118645 0.03403456895949959 4.072338592875493
49.55263895089511 0.03552385789585712 4.025063235230857
49.55579729090837 0.03715295820572661 3.9768795035132873
49.558890798220865 0.03897062341184115 3.9287323569137445
49.561854507734495 0.04104457715598031 3.881515736232985
49.56335640667052 0.03230865367849908 3.8316583792785353
49.56597353943798 0.031871532276484545 3.7858623512851852
49.56840560728958 0.0312813009865742 3.741853699704756
49.57064646150859 0.030561251862419245 3.6999195085756553
49.573265746512796 0.03340842666383389 3.6610197482773525
49.575073227048335 0.031354701657763655 3.625173426357441
49.57677639002573 0.02978604437229 3.5911065766118857
49.578370594702314 0.028800856547906453 3.5590744898284115
49.57985041803888 0.02850322713893631 3.5293064940015717
49.58023310833305 0.024407062526992793 3.500703237222878
49.58123531266006 0.02319509733912989 3.4767147868143673
49.582086261386145 0.021969183226865505 3.4552467232833934
49.582943251869835 0.022027410471509468 3.438113656540745
49.58354808625511 0.02060022876136879 3.421760643324776
49.58414225057232 0.019683514683644796 3.4066536934975895
49.58474259147152 0.019361118260182695 3.3928149724837073
49.58453440731901 0.016125034875096724 3.3810392500600424
49.58477456069329 0.015063144558000757 3.3718345688064044
49.58428687300521 0.0161588293058423 3.363434886285437
49.58447889107145 0.014739663486405243 3.358803359905891
49.58462369891978 0.013311673071518726 3.3551072064429386
49.58471706619451 0.011888027228031747 3.352422159727854
49.58475750297353 0.01048130611435011 3.3508257789623563
49.58474388738572 0.00910079940074729 3.350387326680136
49.58467177180063 0.0077526581886713285 3.3511527950138955
49.58487867084715 0.0072285909080902705 3.351546288660352
49.58468032723402 0.006280108262076036 3.3550166430248938
49.582824670523216 0.005706377265578548 3.359307830792112
49.58244341835111 0.004618675237096077 3.3663308373336154
49.582010107696284 0.003500586749649081 3.3745575149119973
49.5815093182885 0.002351036313005246 3.384361571385228
49.58091464578581 0.0011698399174398578 3.396201607398995
49.58018876681259 -3.5125437446194536e-5 3.410623891006237
49.580939413126835 -0.0006433686818557295 3.4243730078377594
49.579383735808264 -0.0009796598025546411 3.446551813758582
49.57785191476537 -0.002139555639263235 3.4723630139730437
49.575961921757326 -0.002895762139267664 3.501723165010961
49.57397315174895 -0.0029724626368259387 3.5304056524888363
49.57245966413011 -0.0022108568436924087 3.5505246673483524
49.57191848367147 -0.0009148439378844963 3.5560140433299385
49.57235635557724 -0.00022936534343303606 3.549825960506009
49.57235825012035 0.00028808525836493626 3.549819263640532
49.571911423281435 0.0011411962064676313 3.556084956086715
49.57246062638258 0.0023717631668585776 3.5505306130544048
49.57398743906634 0.0030729128395694783 3.5303613948549395
49.575985877643 0.002940779141887838 3.501677561431533
49.57787807917047 0.00214235036829707 3.4724088836999014
49.57941133518253 0.0009563491436650136 3.4468263677285584
49.58094789039085 0.0007094769554375997 3.4243346432642667
49.580255965542996 5.415239783899344e-5 3.410558937179086
49.5809924070566 -0.0011090965963779828 3.3960934427920435
49.58159251294617 -0.0022523236542893294 3.3842391911469303
49.58209664202899 -0.003366187978119136 3.374393063356483
49.582534050244746 -0.004450270072389396 3.3660506800398484
49.58292265873143 -0.005505008659492038 3.3588024443694846
49.58472036496686 -0.006231984952731708 3.354894647326427
49.584915489502606 -0.007181795929560541 3.3513906744078006
49.58475040554768 -0.007392612891060057 3.350861206850299
49.58477945436559 -0.008923237520544384 3.3501333825684676
49.58478003443671 -0.010402782781291801 3.350508948992441
49.58474921556588 -0.011832657799828814 3.35201090586295
49.584682400143485 -0.013210031851802178 3.354619911066146
49.584576717350195 -0.01452811042282164 3.3582936664509475
49.58443311602223 -0.015779147608583784 3.3629806550444323
49.58483037617377 -0.014996599478355964 3.3713791167762266
49.584595713923065 -0.016056960182883714 3.380539528422439
49.58474329843822 -0.019280419953552647 3.392114463533926
49.584160271480165 -0.01960175110041037 3.4059069107222357
49.58358291565967 -0.02051774432531404 3.4209680619525153
49.58299441029287 -0.021944535766852975 3.4372752855523743
49.58217630970142 -0.021896547822230862 3.454531027585818
49.581331220929584 -0.02312205007257945 3.475954816000971
49.58033488220479 -0.02433375260445479 3.499898441147608
49.57987436484677 -0.02840532584288584 3.5282538582334904
49.57840958135041 -0.02870316873085336 3.5579748331187964
49.576829964801554 -0.029688539169090263 3.5899597229133042
49.57514091457266 -0.03125735876417695 3.623979353740982
49.57334704957625 -0.03331123631024828 3.6597785799983904
49.570782826788 -0.03048896166497567 3.698841323739728
49.568547566240014 -0.031209567868464634 3.7407298833210425
49.56612101589773 -0.0318004586024188 3.784693240776303
49.563509307093355 -0.032238337361002664 3.830444544356015
49.561911288995766 -0.04100208026212345 3.880043421051197
49.558957270973586 -0.03892923102960218 3.927220015103086
49.55587302267534 -0.037112603251429954 3.9753278151292353
49.552723444227034 -0.03548448606592763 4.023473370082065
49.5495801968754 -0.03399613295531819 4.070712210555149
49.54651822843715 -0.0326184297220659 4.116083565328412
49.543611579735 -0.031340278535611915 4.1586557528208346
49.5409292947101 -0.030165156786643287 4.197572118169135
49.53853217014706 -0.02910667606023729 4.232087790125781

VECTORS L float
-0.006543439887595504 0.0 0.089104696547546
-0.011807646314055764 0.0 0.16078954797906866
-0.017448745520579872 0.0 0.2376067025073484
-0.023656300751223137 0.0 0.3221375203386794
-0.030471965575494784 0.0 0.41494921516112143
-0.03789767373735776 0.0 0.5160681195569217
-0.04591903568555044 0.0 0.6252982851226949
-0.054512568657169726 0.0 0.7423199374739395
-0.06364827210093807 0.0 0.8667245468367495
-0.07328990659282056 0.0 0.9980186261558214
-0.08339980338403538 0.0 1.1356892246763244
-0.09393499440484755 0.0 1.2791512286231281
-0.10484901232537709 0.0 1.427771873364868
-0.1160932243978214 0.0 1.5808889068888934
-0.1276167985677381 0.0 1.7378101283247465
-0.13936653482818992 0.0 1.8978110914245965
-0.1512909850789034 0.0 2.0601912063700056
-0.16334098436405503 0.0 2.2242809738540834
-0.17546995066377746 0.0 2.3894460674650095
-0.18763880165870878 0.0 2.5551542872793584
-0.19980875718618338 0.0 2.720877547964991
-0.2119456714062799 0.0 2.886150871657539
-0.224011002448071 0.0 3.050449417940897
-0.2359747849989034 0.0 3.213365136899916
-0.24781210040469837 0.0 3.3745587010328233
-0.2595033817536907 0.0 3.533763659701245
-0.2710321813825274 0.0 3.69075603834789
-0.2823785645182129 0.0 3.8452643770175947
-0.2935347072255836 0.0 3.9971821339860427
-0.3044776332711856 0.0 4.146196432487363
-0.3151908508844165 0.0 4.292082697337814
-0.3256593426059227 0.0 4.434636429652772
-0.3358680528256698 0.0 4.573652611034192
-0.34580051943581985 0.0 4.708907070228326
-0.3554358489037799 0.0 4.8401152914585355
-0.36476245334600726 0.0 4.96711947777636
-0.3737557373539401 0.0 5.089584703446404
-0.38239338780051857 0.0 5.207207121493707
-0.3906322975893457 0.0 5.319399724960232
-0.39842952211960964 0.0 5.425577719656773
-0.40573557203569716 0.0 5.525067188791856
-0.412490445281472 0.0 5.617051059832364
-0.41861033367303474 0.0 5.700388082469158
-0.4240604968375914 0.0 5.774605182840641
-0.42871871385169324 0.0 5.838038028656342
-0.43245745881530817 0.0 5.888950047590467
-0.4351405959971121 0.0 5.925487423723976
-0.43667204936248555 0.0 5.946341850408174
-0.43707671015958477 0.0 5.951852281947183
-0.4353311941207504 0.0 5.928082876308713
-0.4353304411377153 0.0 5.92807262263083
-0.43707590817261216 0.0 5.951841360962647
-0.4366703927610887 0.0 5.946319291789573
-0.43513795488969337 0.0 5.925451458684312
-0.4324539809387014 0.0 5.888902687922617
-0.4287146976062522 0.0 5.837983337799938
-0.4240562851762406 0.0 5.774547830925887
-0.4186031075157906 0.0 5.700289680931205
-0.4124810794620851 0.0 5.61692352164011
-0.40572331566349795 0.0 5.524900288760016
-0.3984143065011602 0.0 5.425370522358714
-0.3906139976536543 0.0 5.319150527253119
-0.3823718353399967 0.0 5.206913632826026
-0.3737310213200612 0.0 5.089248135106743
-0.3647363214821652 0.0 4.966763629501162
-0.35540684386088467 0.0 4.839720317929333
-0.34576950459744993 0.0 4.708484728492343
-0.3358354749586721 0.0 4.573208984898267