# vtk DataFile Version 4.0
[MyVLM domain - lattices] 
ASCII
DATASET UNSTRUCTURED_GRID
POINTS 302 float
1.2444999999999997 -1.2445 0.0
1.2399745454545452 -1.2399745454545454 0.0
1.2346178849721705 -1.2346178849721707 0.0
1.2284300185528754 -1.2284300185528756 0.0
1.2214109461966602 -1.2214109461966605 0.0
1.2135606679035247 -1.213560667903525 0.0
1.2048791836734691 -1.2048791836734694 0.0
1.1953664935064932 -1.1953664935064934 0.0
1.1850225974025972 -1.1850225974025974 0.0
1.1738474953617808 -1.173847495361781 0.0
1.1618411873840442 -1.1618411873840444 0.0
1.1490036734693874 -1.1490036734693876 0.0
1.1353349536178106 -1.1353349536178108 0.0
1.1208350278293133 -1.1208350278293135 0.0
1.1055038961038959 -1.105503896103896 0.0
1.0893415584415582 -1.0893415584415584 0.0
1.0723480148423004 -1.0723480148423006 0.0
1.054523265306122 -1.0545232653061223 0.0
1.0358673098330238 -1.035867309833024 0.0
1.0163801484230053 -1.0163801484230055 0.0
0.9960617810760664 -0.9960617810760668 0.0
0.9749122077922076 -0.9749122077922077 0.0
0.9529314285714284 -0.9529314285714284 0.0
0.9301194434137288 -0.930119443413729 0.0
0.9064762523191091 -0.9064762523191096 0.0
0.8820018552875695 -0.8820018552875695 0.0
0.8566962523191093 -0.8566962523191094 0.0
0.8305594434137288 -0.8305594434137291 0.0
0.8035914285714284 -0.8035914285714285 0.0
0.7757922077922076 -0.7757922077922077 0.0
0.7471617810760666 -0.7471617810760667 0.0
0.7177001484230053 -0.7177001484230054 0.0
0.6874073098330239 -0.687407309833024 0.0
0.6562832653061222 -0.6562832653061225 0.0
0.6243280148423004 -0.6243280148423005 0.0
0.5915415584415582 -0.5915415584415583 0.0
0.5579238961038958 -0.5579238961038959 0.0
0.5234750278293133 -0.5234750278293134 0.0
0.48819495361781057 -0.48819495361781057 0.0
0.4520836734693877 -0.4520836734693877 0.0
0.4151411873840445 -0.4151411873840446 0.0
0.37736749536178105 -0.37736749536178116 0.0
0.3387625974025974 -0.3387625974025974 0.0
0.2993264935064933 -0.29932649350649343 0.0
0.25905918367346925 -0.25905918367346925 0.0
0.21796066790352486 -0.21796066790352486 0.0
0.17603094619666027 -0.1760309461966605 0.0
0.13327001855287546 -0.13327001855287568 0.0
0.08967788497217066 -0.08967788497217066 0.0
0.045254545454545436 -0.045254545454545436 0.0
0.0 0.0 0.0
0.04525454545454545 0.04525454545454546 0.0
0.08967788497217066 0.08967788497217068 0.0
0.13327001855287568 0.1332700185528757 0.0
0.17603094619666046 0.1760309461966605 0.0
0.21796066790352497 0.21796066790352508 0.0
0.2590591836734693 0.25905918367346936 0.0
0.29932649350649343 0.2993264935064935 0.0
0.3387625974025973 0.33876259740259734 0.0
0.37736749536178094 0.377367495361781 0.0
0.41514118738404443 0.4151411873840445 0.0
0.45208367346938766 0.4520836734693878 0.0
0.48819495361781057 0.4881949536178107 0.0
0.5234750278293133 0.5234750278293134 0.0
0.5579238961038959 0.557923896103896 0.0
0.5915415584415582 0.5915415584415583 0.0
0.6243280148423003 0.6243280148423004 0.0
0.6562832653061222 0.6562832653061225 0.0
0.687407309833024 0.6874073098330241 0.0
0.7177001484230054 0.7177001484230056 0.0
0.7471617810760667 0.7471617810760669 0.0
0.7757922077922076 0.7757922077922077 0.0
0.8035914285714284 0.8035914285714285 0.0
0.8305594434137288 0.830559443413729 0.0
0.8566962523191093 0.8566962523191094 0.0
0.8820018552875692 0.8820018552875695 0.0
0.9064762523191091 0.9064762523191093 0.0
0.9301194434137288 0.9301194434137292 0.0
0.9529314285714284 0.9529314285714284 0.0
0.9749122077922076 0.9749122077922077 0.0
0.9960617810760666 0.9960617810760668 0.0
1.0163801484230053 1.0163801484230055 0.0
1.0358673098330238 1.035867309833024 0.0
1.054523265306122 1.0545232653061223 0.0
1.0723480148423001 1.0723480148423004 0.0
1.0893415584415582 1.0893415584415584 0.0
1.1055038961038959 1.105503896103896 0.0
1.120835027829313 1.1208350278293133 0.0
1.1353349536178106 1.1353349536178106 0.0
1.1490036734693874 1.1490036734693876 0.0
1.1618411873840444 1.1618411873840446 0.0
1.1738474953617808 1.173847495361781 0.0
1.1850225974025972 1.1850225974025972 0.0
1.1953664935064932 1.1953664935064934 0.0
1.2048791836734691 1.2048791836734694 0.0
1.2135606679035245 1.2135606679035247 0.0
1.22141094619666 1.2214109461966602 0.0
1.2284300185528754 1.2284300185528756 0.0
1.2346178849721703 1.2346178849721705 0.0
1.2399745454545452 1.2399745454545454 0.0
1.2444999999999997 1.2445 0.0
1.7422999999999997 -1.2445 0.0
1.7377745454545452 -1.2399745454545454 0.0
1.7324178849721703 -1.2346178849721707 0.0
1.7262300185528754 -1.2284300185528756 0.0
1.7192109461966603 -1.2214109461966605 0.0
1.7113606679035245 -1.213560667903525 0.0
1.7026791836734692 -1.2048791836734694 0.0
1.6931664935064934 -1.1953664935064934 0.0
1.6828225974025972 -1.1850225974025974 0.0
1.6716474953617806 -1.173847495361781 0.0
1.6596411873840444 -1.1618411873840444 0.0
1.6468036734693878 -1.1490036734693876 0.0
1.6331349536178106 -1.1353349536178108 0.0
1.6186350278293133 -1.1208350278293135 0.0
1.603303896103896 -1.105503896103896 0.0
1.5871415584415582 -1.0893415584415584 0.0
1.5701480148423004 -1.0723480148423006 0.0
1.552323265306122 -1.0545232653061223 0.0
1.5336673098330238 -1.035867309833024 0.0
1.5141801484230053 -1.0163801484230055 0.0
1.4938617810760666 -0.9960617810760668 0.0
1.4727122077922075 -0.9749122077922077 0.0
1.4507314285714283 -0.9529314285714284 0.0
1.4279194434137288 -0.930119443413729 0.0
1.4042762523191092 -0.9064762523191096 0.0
1.3798018552875693 -0.8820018552875695 0.0
1.3544962523191093 -0.8566962523191094 0.0
1.328359443413729 -0.8305594434137291 0.0
1.3013914285714283 -0.8035914285714285 0.0
1.2735922077922077 -0.7757922077922077 0.0
1.2449617810760665 -0.7471617810760667 0.0
1.2155001484230055 -0.7177001484230054 0.0
1.1852073098330238 -0.687407309833024 0.0
1.1540832653061224 -0.6562832653061225 0.0
1.1221280148423003 -0.6243280148423005 0.0
1.0893415584415582 -0.5915415584415583 0.0
1.055723896103896 -0.5579238961038959 0.0
1.0212750278293132 -0.5234750278293134 0.0
0.9859949536178108 -0.48819495361781057 0.0
0.9498836734693876 -0.4520836734693877 0.0
0.9129411873840445 -0.4151411873840446 0.0
0.875167495361781 -0.37736749536178116 0.0
0.8365625974025973 -0.3387625974025974 0.0
0.7971264935064933 -0.29932649350649343 0.0
0.7568591836734693 -0.25905918367346925 0.0
0.7157606679035249 -0.21796066790352486 0.0
0.6738309461966603 -0.1760309461966605 0.0
0.6310700185528755 -0.13327001855287568 0.0
0.5874778849721707 -0.08967788497217066 0.0
0.5430545454545455 -0.045254545454545436 0.0
0.4978 0.0 0.0
0.5430545454545455 0.04525454545454546 0.0
0.5874778849721707 0.08967788497217068 0.0
0.6310700185528757 0.1332700185528757 0.0
0.6738309461966605 0.1760309461966605 0.0
0.715760667903525 0.21796066790352508 0.0
0.7568591836734693 0.25905918367346936 0.0
0.7971264935064934 0.2993264935064935 0.0
0.8365625974025973 0.33876259740259734 0.0
0.875167495361781 0.377367495361781 0.0
0.9129411873840445 0.4151411873840445 0.0
0.9498836734693876 0.4520836734693878 0.0
0.9859949536178105 0.4881949536178107 0.0
1.0212750278293132 0.5234750278293134 0.0
1.055723896103896 0.557923896103896 0.0
1.0893415584415582 0.5915415584415583 0.0
1.1221280148423003 0.6243280148423004 0.0
1.1540832653061224 0.6562832653061225 0.0
1.185207309833024 0.6874073098330241 0.0
1.2155001484230055 0.7177001484230056 0.0
1.2449617810760667 0.7471617810760669 0.0
1.2735922077922077 0.7757922077922077 0.0
1.3013914285714283 0.8035914285714285 0.0
1.3283594434137287 0.830559443413729 0.0
1.3544962523191093 0.8566962523191094 0.0
1.3798018552875693 0.8820018552875695 0.0
1.4042762523191092 0.9064762523191093 0.0
1.427919443413729 0.9301194434137292 0.0
1.4507314285714283 0.9529314285714284 0.0
1.4727122077922075 0.9749122077922077 0.0
1.4938617810760666 0.9960617810760668 0.0
1.5141801484230053 1.0163801484230055 0.0
1.5336673098330238 1.035867309833024 0.0
1.552323265306122 1.0545232653061223 0.0
1.5701480148423002 1.0723480148423004 0.0
1.5871415584415582 1.0893415584415584 0.0
1.603303896103896 1.105503896103896 0.0
1.6186350278293131 1.1208350278293133 0.0
1.6331349536178106 1.1353349536178106 0.0
1.6468036734693874 1.1490036734693876 0.0
1.6596411873840444 1.1618411873840446 0.0
1.6716474953617806 1.173847495361781 0.0
1.6828225974025972 1.1850225974025972 0.0
1.6931664935064934 1.1953664935064934 0.0
1.7026791836734692 1.2048791836734694 0.0
1.7113606679035245 1.2135606679035247 0.0
1.71921094619666 1.2214109461966602 0.0
1.7262300185528754 1.2284300185528756 0.0
1.7324178849721703 1.2346178849721705 0.0
1.7377745454545452 1.2399745454545454 0.0
1.7422999999999997 1.2445 0.0
1.6155872727272724 -1.2422372727272726 0.0
1.6106462152133578 -1.237296215213358 0.0
1.604873951762523 -1.2315239517625232 0.0
1.598270482374768 -1.224920482374768 0.0
1.5908358070500925 -1.2174858070500927 0.0
1.582569925788497 -1.2092199257884972 0.0
1.5734728385899812 -1.2001228385899814 0.0
1.5635445454545454 -1.1901945454545453 0.0
1.552785046382189 -1.1794350463821892 0.0
1.5411943413729126 -1.1678443413729127 0.0
1.5287724304267158 -1.155422430426716 0.0
1.5155193135435991 -1.142169313543599 0.0
1.501434990723562 -1.1280849907235622 0.0
1.4865194619666047 -1.1131694619666048 0.0
1.4707727272727271 -1.0974227272727273 0.0
1.4541947866419294 -1.0808447866419293 0.0
1.4367856400742112 -1.0634356400742113 0.0
1.418545287569573 -1.0451952875695731 0.0
1.3994737291280146 -1.0261237291280147 0.0
1.379570964749536 -1.0062209647495362 0.0
1.358836994434137 -0.9854869944341371 0.0
1.337271818181818 -0.9639218181818181 0.0
1.3148754359925787 -0.9415254359925787 0.0
1.291647847866419 -0.9182978478664192 0.0
1.2675890538033394 -0.8942390538033393 0.0
1.2426990538033393 -0.8693490538033395 0.0
1.2169778478664193 -0.8436278478664192 0.0
1.1904254359925788 -0.8170754359925788 0.0
1.163041818181818 -0.7896918181818181 0.0
1.1348269944341371 -0.7614769944341371 0.0
1.105780964749536 -0.7324309647495362 0.0
1.0759037291280147 -0.7025537291280148 0.0
1.0451952875695731 -0.6718452875695733 0.0
1.0136556400742114 -0.6403056400742114 0.0
0.9812847866419293 -0.6079347866419293 0.0
0.9480827272727271 -0.5747327272727272 0.0
0.9140494619666047 -0.5406994619666048 0.0
0.8791849907235622 -0.5058349907235622 0.0
0.8434893135435992 -0.47013931354359917 0.0
0.8069624304267162 -0.43361243042671627 0.0
0.7696043413729128 -0.3962543413729128 0.0
0.7314150463821893 -0.3580650463821894 0.0
0.6923945454545455 -0.3190445454545454 0.0
0.6525428385899814 -0.27919283858998134 0.0
0.6118599257884971 -0.23850992578849706 0.0
0.5703458070500929 -0.19699580705009279 0.0
0.5280004823747682 -0.15465048237476808 0.0
0.4848239517625232 -0.11147395176252317 0.0
0.4408162152133581 -0.06746621521335805 0.0
0.39597727272727273 -0.022627272727272718 0.0
0.39597727272727273 0.02262727272727273 0.0
0.4408162152133581 0.06746621521335806 0.0
0.4848239517625232 0.11147395176252319 0.0
0.528000482374768 0.15465048237476808 0.0
0.5703458070500929 0.19699580705009276 0.0
0.6118599257884971 0.23850992578849717 0.0
0.6525428385899814 0.2791928385899814 0.0
0.6923945454545455 0.3190445454545454 0.0
0.7314150463821891 0.3580650463821891 0.0
0.7696043413729128 0.39625434137291277 0.0
0.8069624304267162 0.43361243042671616 0.0
0.8434893135435992 0.4701393135435992 0.0
0.8791849907235619 0.5058349907235621 0.0
0.9140494619666046 0.5406994619666047 0.0
0.9480827272727271 0.5747327272727272 0.0
0.9812847866419294 0.6079347866419295 0.0
1.0136556400742114 0.6403056400742114 0.0
1.0451952875695731 0.6718452875695732 0.0
1.0759037291280147 0.7025537291280147 0.0
1.105780964749536 0.7324309647495362 0.0
1.1348269944341371 0.7614769944341373 0.0
1.163041818181818 0.789691818181818 0.0
1.1904254359925786 0.8170754359925786 0.0
1.216977847866419 0.843627847866419 0.0
1.2426990538033393 0.8693490538033394 0.0
1.2675890538033392 0.8942390538033393 0.0
1.291647847866419 0.9182978478664192 0.0
1.3148754359925787 0.9415254359925787 0.0
1.3372718181818182 0.9639218181818181 0.0
1.3588369944341372 0.9854869944341373 0.0
1.379570964749536 1.0062209647495362 0.0
1.3994737291280148 1.0261237291280147 0.0
1.418545287569573 1.0451952875695731 0.0
1.4367856400742112 1.0634356400742113 0.0
1.4541947866419291 1.0808447866419293 0.0
1.470772727272727 1.097422727272727 0.0
1.4865194619666047 1.1131694619666048 0.0
1.501434990723562 1.128084990723562 0.0
1.5155193135435991 1.1421693135435993 0.0
1.528772430426716 1.1554224304267162 0.0
1.5411943413729128 1.1678443413729127 0.0
1.5527850463821888 1.179435046382189 0.0
1.5635445454545451 1.1901945454545453 0.0
1.573472838589981 1.2001228385899811 0.0
1.5825699257884969 1.209219925788497 0.0
1.5908358070500925 1.2174858070500927 0.0
1.5982704823747678 1.224920482374768 0.0
1.604873951762523 1.2315239517625232 0.0
1.6106462152133578 1.237296215213358 0.0
1.6155872727272724 1.2422372727272726 0.0

CELLS 200 700
4 0 101 102 1
4 1 102 103 2
4 2 103 104 3
4 3 104 105 4
4 4 105 106 5
4 5 106 107 6
4 6 107 108 7
4 7 108 109 8
4 8 109 110 9
4 9 110 111 10
4 10 111 112 11
4 11 112 113 12
4 12 113 114 13
4 13 114 115 14
4 14 115 116 15
4 15 116 117 16
4 16 117 118 17
4 17 118 119 18
4 18 119 120 19
4 19 120 121 20
4 20 121 122 21
4 21 122 123 22
4 22 123 124 23
4 23 124 125 24
4 24 125 126 25
4 25 126 127 26
4 26 127 128 27
4 27 128 129 28
4 28 129 130 29
4 29 130 131 30
4 30 131 132 31
4 31 132 133 32
4 32 133 134 33
4 33 134 135 34
4 34 135 136 35
4 35 136 137 36
4 36 137 138 37
4 37 138 139 38
4 38 139 140 39
4 39 140 141 40
4 40 141 142 41
4 41 142 143 42
4 42 143 144 43
4 43 144 145 44
4 44 145 146 45
4 45 146 147 46
4 46 147 148 47
4 47 148 149 48
4 48 149 150 49
4 49 150 151 50
4 50 151 152 51
4 51 152 153 52
4 52 153 154 53
4 53 154 155 54
4 54 155 156 55
4 55 156 157 56
4 56 157 158 57
4 57 158 159 58
4 58 159 160 59
4 59 160 161 60
4 60 161 162 61
4 61 162 163 62
4 62 163 164 63
4 63 164 165 64
4 64 165 166 65
4 65 166 167 66
4 66 167 168 67
4 67 168 169 68
4 68 169 170 69
4 69 170 171 70
4 70 171 172 71
4 71 172 173 72
4 72 173 174 73
4 73 174 175 74
4 74 175 176 75
4 75 176 177 76
4 76 177 178 77
4 77 178 179 78
4 78 179 180 79
4 79 180 181 80
4 80 181 182 81
4 81 182 183 82
4 82 183 184 83
4 83 184 185 84
4 84 185 186 85
4 85 186 187 86
4 86 187 188 87
4 87 188 189 88
4 88 189 190 89
4 89 190 191 90
4 90 191 192 91
4 91 192 193 92
4 92 193 194 93
4 93 194 195 94
4 94 195 196 95
4 95 196 197 96
4 96 197 198 97
4 97 198 199 98
4 98 199 200 99
4 99 200 201 100
1 202
1 203
1 204
1 205
1 206
1 207
1 208
1 209
1 210
1 211
1 212
1 213
1 214
1 215
1 216
1 217
1 218
1 219
1 220
1 221
1 222
1 223
1 224
1 225
1 226
1 227
1 228
1 229
1 230
1 231
1 232
1 233
1 234
1 235
1 236
1 237
1 238
1 239
1 240
1 241
1 242
1 243
1 244
1 245
1 246
1 247
1 248
1 249
1 250
1 251
1 252
1 253
1 254
1 255
1 256
1 257
1 258
1 259
1 260
1 261
1 262
1 263
1 264
1 265
1 266
1 267
1 268
1 269
1 270
1 271
1 272
1 273
1 274
1 275
1 276
1 277
1 278
1 279
1 280
1 281
1 282
1 283
1 284
1 285
1 286
1 287
1 288
1 289
1 290
1 291
1 292
1 293
1 294
1 295
1 296
1 297
1 298
1 299
1 300
1 301

CELL_TYPES 200
9
9
9
9
9
9
9
9
9
9
9
9
9
9
9
9
9
9
9
9
9
9
9
9
9
9
9
9
9
9
9
9
9
9
9
9
9
9
9
9
9
9
9
9
9
9
9
9
9
9
9
9
9
9
9
9
9
9
9
9
9
9
9
9
9
9
9
9
9
9
9
9
9
9
9
9
9
9
9
9
9
9
9
9
9
9
9
9
9
9
9
9
9
9
9
9
9
9
9
9
1
1
1
1
1
1
1
1
1
1
1
1
1
1
1
1
1
1
1
1
1
1
1
1
1
1
1
1
1
1
1
1
1
1
1
1
1
1
1
1
1
1
1
1
1
1
1
1
1
1
1
1
1
1
1
1
1
1
1
1
1
1
1
1
1
1
1
1
1
1
1
1
1
1
1
1
1
1
1
1
1
1
1
1
1
1
1
1
1
1
1
1
1
1
1
1
1
1
1
1

CELL_DATA 200

VECTORS Vinf float
49.53018751665047 0.029503048057445372 4.315315070646712
49.53266483854033 0.030522172892834317 4.280207249161774
49.53543585611791 0.03154677964632677 4.24062192165634
49.53843910851218 0.032516518482592606 4.19729336069711
49.54160596927664 0.03337570637364215 4.151050056168923
49.54486425812391 0.03407811639900737 4.102771885107897
49.54814258956618 0.03459070823331613 4.053338456778155
49.551374668441966 0.03489548524470113 4.003579024289225
49.5545027050377 0.034989076170716865 3.9542346346684303
49.55756087253943 0.033924964814601256 3.9045958878667073
49.561235048205525 0.02630576308256956 3.842107573101727
49.56353709683645 0.02723850475290344 3.8020560451905503
49.56574106982861 0.02792372979290755 3.762603749043852
49.567825874401294 0.02834076805445959 3.724209073314421
49.56977567941234 0.028466636251583195 3.687288239027131
49.5715790068883 0.028274951828112717 3.65221036944807
49.57322745104185 0.027735396368149475 3.6192946388393556
49.57471424744414 0.026813761987429376 3.5888097445330955
49.576032987535214 0.0254725300824653 3.560975187606297
49.5771766991716 0.023671764520420215 3.535964042666605
49.57813734725987 0.021370003147068863 3.513908059429601
49.578905733817116 0.018524926619777515 3.4949065435487614
49.57947189503844 0.015093769935248483 3.4790390030842056
49.58033351022746 0.015024274665857028 3.4555504825300942
49.58082265758186 0.015099479722667532 3.4440305930603454
49.58123821460558 0.014864005285837019 3.433351808595101
49.58158006848383 0.014321950000907848 3.423751196607153
49.58185487446893 0.013466378127957687 3.415379761447173
49.58206877876412 0.01227853919723023 3.4083449828870953
49.58222228955131 0.01073195658830753 3.402740275249805
49.58231018614639 0.008798944233987093 3.398656509977963
49.582639890700214 0.016040782485956123 3.40203433467109
49.58266322845985 0.013701199632437695 3.3996234523854816
49.582629244565545 0.01156420613177202 3.3987121119525225
49.58254556494448 0.009657033760087773 3.399261102416646
49.58242303534261 0.007999794898017653 3.401236129748339
49.58226622599714 0.006601085970928624 3.404674313339538
49.58206146003793 0.005462620387710474 3.409720596897552
49.581774853466584 0.004593551578084956 3.4166253189101647
49.5812467608192 0.003421939015394851 3.4248154925809287
49.58071555759283 0.00207256573664057 3.4357108447162448
49.58000288751392 0.0007687465675825898 3.4492475433529832
49.57907790718285 -0.000451500217317986 3.4660963891206564
49.57790040162291 -0.001538591172623129 3.486918105748069
49.57669726200589 -0.0014377459636850426 3.5126416179528004
49.57487975746515 -0.002228341042277436 3.541237982993538
49.57301915240921 -0.002457961773125808 3.56919165205042
49.571622604100256 -0.001982250191309051 3.5884685888418972
49.57113377352102 -0.0010572042754110184 3.5929751393985314
49.57137257489174 -0.00027891980141654107 3.5863360153837514
49.57137382181552 0.0003060289942781367 3.58629361561655
49.571135810888975 0.0010859804948166313 3.5929334818504324
49.57162537305149 0.0020123564468273723 3.588434885404855
49.573022702747565 0.0024889268230199866 3.5691724895444374
49.574884065210036 0.0022595205908728802 3.541239691277056
49.57670211365626 0.0014685428500181472 3.512670010991349
49.5779044442654 0.001569465814508853 3.4869513006983763
49.579083949585346 0.0004875631705872778 3.4661211931825946
49.580010232940175 -0.0007245991541302414 3.449277544194898
49.58072352796423 -0.0020178231250416894 3.4357590934110145
49.58125452973576 -0.0033543548889716775 3.4248942830783915
49.581782755840294 -0.004511517548675131 3.4165731110484088
49.58207190689766 -0.00537107526380511 3.409635952917658
49.58227764762231 -0.006499835218338475 3.4045794063594585
49.58243400208475 -0.007888541936692936 3.4011520651300504
49.58255484090859 -0.00953542236962788 3.399207952988802
49.58263580851168 -0.011431899580469538 3.3987087524238486
49.582666235561916 -0.013557944041668088 3.3996872887098815
49.58263861060238 -0.01588643017900598 3.402181017239547
49.58232140768345 -0.008807533324359964 3.398738302425515
49.582234941206686 -0.010723673472494089 3.4027249937113377
49.58208176208088 -0.012268794656408233 3.408293133339622
49.581866718039905 -0.013469615225726352 3.4153588488192206
49.581588683489386 -0.014351666069291877 3.4238414480885244
49.581240495873594 -0.01493271736002045 3.4336545489580077
49.580813877116995 -0.015218501374720889 3.444679947083982
49.58030654003886 -0.015203100136263404 3.456727468250834
49.57950570422429 -0.015212769029734135 3.478627536048028
49.57893418501519 -0.018601839575849793 3.494593793322543
49.578160492287935 -0.021415607489310956 3.513670312268373
49.57719459310667 -0.023695411179638397 3.5357810425743166
49.57604592068642 -0.025482379166388604 3.5608309802294826
49.57472278378381 -0.02681709305299177 3.58869358535509
49.57323224593574 -0.02773883195052709 3.6192024588517584
49.57158049942624 -0.02828452591838471 3.6521469056503584
49.56977378209902 -0.028487731077719024 3.6872694152895016
49.5678197415656 -0.02837797669238082 3.724263937827286
49.56572897845573 -0.027980696111037814 3.7627753045054457
49.56351644883449 -0.02731777884712797 3.8024004892014793
49.561202495656545 -0.02640870372722359 3.8426916739519354
49.55758154160688 -0.03389825355803058 3.904517942169809
49.554636242871695 -0.03397725385149931 3.95122422518565
49.55147340137198 -0.034057385279939775 4.001427336230755
49.54821819594009 -0.033898762647824245 4.051802970203119
49.54492493363934 -0.033508394057764325 4.1016747880409845
49.54165733117077 -0.03290741746838053 4.1502621990345965
49.5384849083166 -0.032131640444536175 4.196721671849971
49.53547852469422 -0.031229748291395187 4.240199827383631
49.53270589343629 -0.030259606868556253 4.279887496250686
49.53022785990758 -0.0292834874149703 4.315064393382155
49.53018751665047 0.029503048057445372 4.315315070646712
49.53266483854033 0.030522172892834317 4.280207249161774
49.53543585611791 0.03154677964632677 4.24062192165634
49.53843910851218 0.032516518482592606 4.19729336069711
49.54160596927664 0.03337570637364215 4.151050056168923
49.54486425812391 0.03407811639900737 4.102771885107897
49.54814258956618 0.03459070823331613 4.053338456778155
49.551374668441966 0.03489548524470113 4.003579024289225
49.5545027050377 0.034989076170716865 3.9542346346684303
49.55756087253943 0.033924964814601256 3.9045958878667073
49.561235048205525 0.02630576308256956 3.842107573101727
49.56353709683645 0.02723850475290344 3.8020560451905503
49.56574106982861 0.02792372979290755 3.762603749043852
49.567825874401294 0.02834076805445959 3.724209073314421
49.56977567941234 0.028466636251583195 3.687288239027131
49.5715790068883 0.028274951828112717 3.65221036944807
49.57322745104185 0.027735396368149475 3.6192946388393556
49.57471424744414 0.026813761987429376 3.5888097445330955
49.576032987535214 0.0254725300824653 3.560975187606297
49.5771766991716 0.023671764520420215 3.535964042666605
49.57813734725987 0.021370003147068863 3.513908059429601
49.578905733817116 0.018524926619777515 3.4949065435487614
49.57947189503844 0.015093769935248483 3.4790390030842056
49.58033351022746 0.015024274665857028 3.4555504825300942
49.58082265758186 0.015099479722667532 3.4440305930603454
49.58123821460558 0.014864005285837019 3.433351808595101
49.58158006848383 0.014321950000907848 3.423751196607153
49.58185487446893 0.013466378127957687 3.415379761447173
49.58206877876412 0.01227853919723023 3.4083449828870953
49.58222228955131 0.01073195658830753 3.402740275249805
49.58231018614639 0.008798944233987093 3.398656509977963
49.582639890700214 0.016040782485956123 3.40203433467109
49.58266322845985 0.013701199632437695 3.3996234523854816
49.582629244565545 0.01156420613177202 3.3987121119525225
49.58254556494448 0.009657033760087773 3.399261102416646
49.58242303534261 0.007999794898017653 3.401236129748339
49.58226622599714 0.006601085970928624 3.404674313339538
49.58206146003793 0.005462620387710474 3.409720596897552
49.581774853466584 0.004593551578084956 3.4166253189101647
49.5812467608192 0.003421939015394851 3.4248154925809287
49.58071555759283 0.00207256573664057 3.4357108447162448
49.58000288751392 0.0007687465675825898 3.4492475433529832
49.57907790718285 -0.000451500217317986 3.4660963891206564
49.57790040162291 -0.001538591172623129 3.486918105748069
49.57669726200589 -0.0014377459636850426 3.5126416179528004
49.57487975746515 -0.002228341042277436 3.541237982993538
49.57301915240921 -0.002457961773125808 3.56919165205042
49.571622604100256 -0.001982250191309051 3.5884685888418972
49.57113377352102 -0.0010572042754110184 3.5929751393985314
49.57137257489174 -0.00027891980141654107 3.5863360153837514
49.57137382181552 0.0003060289942781367 3.58629361561655
49.571135810888975 0.0010859804948166313 3.5929334818504324
49.57162537305149 0.0020123564468273723 3.588434885404855
49.573022702747565 0.0024889268230199866 3.5691724895444374
49.574884065210036 0.0022595205908728802 3.541239691277056
49.57670211365626 0.0014685428500181472 3.512670010991349
49.5779044442654 0.001569465814508853 3.4869513006983763
49.579083949585346 0.0004875631705872778 3.4661211931825946
49.580010232940175 -0.0007245991541302414 3.449277544194898
49.58072352796423 -0.0020178231250416894 3.4357590934110145
49.58125452973576 -0.0033543548889716775 3.4248942830783915
49.581782755840294 -0.004511517548675131 3.4165731110484088
49.58207190689766 -0.00537107526380511 3.409635952917658
49.58227764762231 -0.006499835218338475 3.4045794063594585
49.58243400208475 -0.007888541936692936 3.4011520651300504
49.58255484090859 -0.00953542236962788 3.399207952988802
49.58263580851168 -0.011431899580469538 3.3987087524238486
49.582666235561916 -0.013557944041668088 3.3996872887098815
49.58263861060238 -0.01588643017900598 3.402181017239547
49.58232140768345 -0.008807533324359964 3.398738302425515
49.582234941206686 -0.010723673472494089 3.4027249937113377
49.58208176208088 -0.012268794656408233 3.408293133339622
49.581866718039905 -0.013469615225726352 3.4153588488192206
49.581588683489386 -0.014351666069291877 3.4238414480885244
49.581240495873594 -0.01493271736002045 3.4336545489580077
49.580813877116995 -0.015218501374720889 3.444679947083982
49.58030654003886 -0.015203100136263404 3.456727468250834
49.57950570422429 -0.015212769029734135 3.478627536048028
49.57893418501519 -0.018601839575849793 3.494593793322543
49.578160492287935 -0.021415607489310956 3.513670312268373
49.57719459310667 -0.023695411179638397 3.5357810425743166
49.57604592068642 -0.025482379166388604 3.5608309802294826
49.57472278378381 -0.02681709305299177 3.58869358535509
49.57323224593574 -0.02773883195052709 3.6192024588517584
49.57158049942624 -0.02828452591838471 3.6521469056503584
49.56977378209902 -0.028487731077719024 3.6872694152895016
49.5678197415656 -0.02837797669238082 3.724263937827286
49.56572897845573 -0.027980696111037814 3.7627753045054457
49.56351644883449 -0.02731777884712797 3.8024004892014793
49.561202495656545 -0.02640870372722359 3.8426916739519354
49.55758154160688 -0.03389825355803058 3.904517942169809
49.554636242871695 -0.03397725385149931 3.95122422518565
49.55147340137198 -0.034057385279939775 4.001427336230755
49.54821819594009 -0.033898762647824245 4.051802970203119
49.54492493363934 -0.033508394057764325 4.1016747880409845
49.54165733117077 -0.03290741746838053 4.1502621990345965
49.5384849083166 -0.032131640444536175 4.196721671849971
49.53547852469422 -0.031229748291395187 4.240199827383631
49.53270589343629 -0.030259606868556253 4.279887496250686
49.53022785990758 -0.0292834874149703 4.315064393382155

VECTORS L float
-0.006662134513790887 0.0 0.09072100980641977
-0.012019571930099492 0.0 0.16367542574865374
-0.017759764804291988 0.0 0.24184197926875636
-0.024075520770810602 0.0 0.32784621076354453
-0.031008982617671235 0.0 0.4222619958095239
-0.038561765398169426 0.0 0.5251113272478116
-0.046718763251289354 0.0 0.6361885023922018
-0.05545549926860021 0.0 0.7551602091720386
-0.06474076111390197 0.0 0.8816014164426302
-0.07453707334794286 0.0 1.015001805824061
-0.084799451053196 0.0 1.1547487993001337
-0.09550428920856564 0.0 1.3005209576465464
-0.10659638257202099 0.0 1.4515665285092636
-0.11802215924149718 0.0 1.6071560013924358
-0.12972805256680195 0.0 1.7665599373171088
-0.14166079823607 0.0 1.9290530143689546
-0.1537683884731394 0.0 2.093927021394109
-0.16600107088384047 0.0 2.2605044596975206
-0.17831212122113277 0.0 2.4281490661017977
-0.1906582759256374 0.0 2.596271703028503
-0.20299976093294217 0.0 2.764330750779009
-0.2152997316332318 0.0 2.9318244812357817
-0.2275222427740624 0.0 3.0982634131983575
-0.23965732633101436 0.0 3.26351180800231
-0.25164274044489177 0.0 3.426722092800413
-0.2634789565085654 0.0 3.587900686742136
-0.2751425793690179 0.0 3.7467290084626157
-0.28661540571522043 0.0 3.9029591760322795
-0.29788228074099826 0.0 4.056384820258679
-0.30893015790514083 0.0 4.206828281055447
-0.31974801666204467 0.0 4.354139487146827
-0.33033202080939333 0.0 4.498266199397258
-0.340637368709499 0.0 4.638598335587055
-0.35064892243490425 0.0 4.774929756368166
-0.3603571298024449 0.0 4.907130385756577
-0.369744422106276 0.0 5.0349609835009925
-0.3787888507057972 0.0 5.158122665987607
-0.38746395794571314 0.0 5.276255148505785
-0.3956843842870811 0.0 5.388196055310418
-0.40350080105408137 0.0 5.494635398542261
-0.4108187533003089 0.0 5.594286946573697
-0.41758807902236755 0.0 5.686467622893348
-0.42374004265932386 0.0 5.770241427262164
-0.4291908546549711 0.0 5.844467363031912
-0.43383921045955154 0.0 5.907765924725334
-0.43755735562463344 0.0 5.958397427779621
-0.4402088812755101 0.0 5.994504336770609
-0.44170093508437874 0.0 6.014822243583489
-0.44206184450305724 0.0 6.019736894712701
-0.4402420691416091 0.0 5.994956269513724
-0.4402416910015329 0.0 5.994951120225686
-0.4420610777388165 0.0 6.019726453370506
-0.44170004879135516 0.0 6.014810174568985
-0.44020807470240847 0.0 5.994493353334878
-0.4375567516439026 0.0 5.958389203127045
-0.4338388308293092 0.0 5.907760755145095
-0.4291905286309207 0.0 5.8444629234291074
-0.4237396289373107 0.0 5.7702357934403405
-0.4175875688906636 0.0 5.686460676221344
-0.410818124599916 0.0 5.594278385303373
-0.40349991711145244 0.0 5.494623361534042
-0.395682717190139 0.0 5.388173353769685
-0.3874627067122294 0.0 5.27623810994781
-0.3787871993338359 0.0 5.1581001785803675
-0.3697427076374116 0.0 5.034937636877424
-0.36035564246789636 0.0 4.9071101321138615
-0.35064786826280175 0.0 4.774915401275598
-0.34063683480861295 0.0 4.638591065240379