# vtk DataFile Version 4.0
[MyVLM domain - lattices] 
ASCII
DATASET UNSTRUCTURED_GRID
POINTS 302 float
1.2444999999999997 -1.2445 0.0
1.2399745454545452 -1.2399745454545454 0.0
1.2346178849721705 -1.2346178849721707 0.0
1.2284300185528754 -1.2284300185528756 0.0
1.2214109461966602 -1.2214109461966605 0.0
1.2135606679035247 -1.213560667903525 0.0
1.2048791836734691 -1.2048791836734694 0.0
1.1953664935064932 -1.1953664935064934 0.0
1.1850225974025972 -1.1850225974025974 0.0
1.1738474953617808 -1.173847495361781 0.0
1.1618411873840442 -1.1618411873840444 0.0
1.1490036734693874 -1.1490036734693876 0.0
1.1353349536178106 -1.1353349536178108 0.0
1.1208350278293133 -1.1208350278293135 0.0
1.1055038961038959 -1.105503896103896 0.0
1.0893415584415582 -1.0893415584415584 0.0
1.0723480148423004 -1.0723480148423006 0.0
1.054523265306122 -1.0545232653061223 0.0
1.0358673098330238 -1.035867309833024 0.0
1.0163801484230053 -1.0163801484230055 0.0
0.9960617810760664 -0.9960617810760668 0.0
0.9749122077922076 -0.9749122077922077 0.0
0.9529314285714284 -0.9529314285714284 0.0
0.9301194434137288 -0.930119443413729 0.0
0.9064762523191091 -0.9064762523191096 0.0
0.8820018552875695 -0.8820018552875695 0.0
0.8566962523191093 -0.8566962523191094 0.0
0.8305594434137288 -0.8305594434137291 0.0
0.8035914285714284 -0.8035914285714285 0.0
0.7757922077922076 -0.7757922077922077 0.0
0.7471617810760666 -0.7471617810760667 0.0
0.7177001484230053 -0.7177001484230054 0.0
0.6874073098330239 -0.687407309833024 0.0
0.6562832653061222 -0.6562832653061225 0.0
0.6243280148423004 -0.6243280148423005 0.0
0.5915415584415582 -0.5915415584415583 0.0
0.5579238961038958 -0.5579238961038959 0.0
0.5234750278293133 -0.5234750278293134 0.0
0.48819495361781057 -0.48819495361781057 0.0
0.4520836734693877 -0.4520836734693877 0.0
0.4151411873840445 -0.4151411873840446 0.0
0.37736749536178105 -0.37736749536178116 0.0
0.3387625974025974 -0.3387625974025974 0.0
0.2993264935064933 -0.29932649350649343 0.0
0.25905918367346925 -0.25905918367346925 0.0
0.21796066790352486 -0.21796066790352486 0.0
0.17603094619666027 -0.1760309461966605 0.0
0.13327001855287546 -0.13327001855287568 0.0
0.08967788497217066 -0.08967788497217066 0.0
0.045254545454545436 -0.045254545454545436 0.0
0.0 0.0 0.0
0.04525454545454545 0.04525454545454546 0.0
0.08967788497217066 0.08967788497217068 0.0
0.13327001855287568 0.1332700185528757 0.0
0.17603094619666046 0.1760309461966605 0.0
0.21796066790352497 0.21796066790352508 0.0
0.2590591836734693 0.25905918367346936 0.0
0.29932649350649343 0.2993264935064935 0.0
0.3387625974025973 0.33876259740259734 0.0
0.37736749536178094 0.377367495361781 0.0
0.41514118738404443 0.4151411873840445 0.0
0.45208367346938766 0.4520836734693878 0.0
0.48819495361781057 0.4881949536178107 0.0
0.5234750278293133 0.5234750278293134 0.0
0.5579238961038959 0.557923896103896 0.0
0.5915415584415582 0.5915415584415583 0.0
0.6243280148423003 0.6243280148423004 0.0
0.6562832653061222 0.6562832653061225 0.0
0.687407309833024 0.6874073098330241 0.0
0.7177001484230054 0.7177001484230056 0.0
0.7471617810760667 0.7471617810760669 0.0
0.7757922077922076 0.7757922077922077 0.0
0.8035914285714284 0.8035914285714285 0.0
0.8305594434137288 0.830559443413729 0.0
0.8566962523191093 0.8566962523191094 0.0
0.8820018552875692 0.8820018552875695 0.0
0.9064762523191091 0.9064762523191093 0.0
0.9301194434137288 0.9301194434137292 0.0
0.9529314285714284 0.9529314285714284 0.0
0.9749122077922076 0.9749122077922077 0.0
0.9960617810760666 0.9960617810760668 0.0
1.0163801484230053 1.0163801484230055 0.0
1.0358673098330238 1.035867309833024 0.0
1.054523265306122 1.0545232653061223 0.0
1.0723480148423001 1.0723480148423004 0.0
1.0893415584415582 1.0893415584415584 0.0
1.1055038961038959 1.105503896103896 0.0
1.120835027829313 1.1208350278293133 0.0
1.1353349536178106 1.1353349536178106 0.0
1.1490036734693874 1.1490036734693876 0.0
1.1618411873840444 1.1618411873840446 0.0
1.1738474953617808 1.173847495361781 0.0
1.1850225974025972 1.1850225974025972 0.0
1.1953664935064932 1.1953664935064934 0.0
1.2048791836734691 1.2048791836734694 0.0
1.2135606679035245 1.2135606679035247 0.0
1.22141094619666 1.2214109461966602 0.0
1.2284300185528754 1.2284300185528756 0.0
1.2346178849721703 1.2346178849721705 0.0
1.2399745454545452 1.2399745454545454 0.0
1.2444999999999997 1.2445 0.0
1.7422999999999997 -1.2445 0.0
1.7377745454545452 -1.2399745454545454 0.0
1.7324178849721703 -1.2346178849721707 0.0
1.7262300185528754 -1.2284300185528756 0.0
1.7192109461966603 -1.2214109461966605 0.0
1.7113606679035245 -1.213560667903525 0.0
1.7026791836734692 -1.2048791836734694 0.0
1.6931664935064934 -1.1953664935064934 0.0
1.6828225974025972 -1.1850225974025974 0.0
1.6716474953617806 -1.173847495361781 0.0
1.6596411873840444 -1.1618411873840444 0.0
1.6468036734693878 -1.1490036734693876 0.0
1.6331349536178106 -1.1353349536178108 0.0
1.6186350278293133 -1.1208350278293135 0.0
1.603303896103896 -1.105503896103896 0.0
1.5871415584415582 -1.0893415584415584 0.0
1.5701480148423004 -1.0723480148423006 0.0
1.552323265306122 -1.0545232653061223 0.0
1.5336673098330238 -1.035867309833024 0.0
1.5141801484230053 -1.0163801484230055 0.0
1.4938617810760666 -0.9960617810760668 0.0
1.4727122077922075 -0.9749122077922077 0.0
1.4507314285714283 -0.9529314285714284 0.0
1.4279194434137288 -0.930119443413729 0.0
1.4042762523191092 -0.9064762523191096 0.0
1.3798018552875693 -0.8820018552875695 0.0
1.3544962523191093 -0.8566962523191094 0.0
1.328359443413729 -0.8305594434137291 0.0
1.3013914285714283 -0.8035914285714285 0.0
1.2735922077922077 -0.7757922077922077 0.0
1.2449617810760665 -0.7471617810760667 0.0
1.2155001484230055 -0.7177001484230054 0.0
1.1852073098330238 -0.687407309833024 0.0
1.1540832653061224 -0.6562832653061225 0.0
1.1221280148423003 -0.6243280148423005 0.0
1.0893415584415582 -0.5915415584415583 0.0
1.055723896103896 -0.5579238961038959 0.0
1.0212750278293132 -0.5234750278293134 0.0
0.9859949536178108 -0.48819495361781057 0.0
0.9498836734693876 -0.4520836734693877 0.0
0.9129411873840445 -0.4151411873840446 0.0
0.875167495361781 -0.37736749536178116 0.0
0.8365625974025973 -0.3387625974025974 0.0
0.7971264935064933 -0.29932649350649343 0.0
0.7568591836734693 -0.25905918367346925 0.0
0.7157606679035249 -0.21796066790352486 0.0
0.6738309461966603 -0.1760309461966605 0.0
0.6310700185528755 -0.13327001855287568 0.0
0.5874778849721707 -0.08967788497217066 0.0
0.5430545454545455 -0.045254545454545436 0.0
0.4978 0.0 0.0
0.5430545454545455 0.04525454545454546 0.0
0.5874778849721707 0.08967788497217068 0.0
0.6310700185528757 0.1332700185528757 0.0
0.6738309461966605 0.1760309461966605 0.0
0.715760667903525 0.21796066790352508 0.0
0.7568591836734693 0.25905918367346936 0.0
0.7971264935064934 0.2993264935064935 0.0
0.8365625974025973 0.33876259740259734 0.0
0.875167495361781 0.377367495361781 0.0
0.9129411873840445 0.4151411873840445 0.0
0.9498836734693876 0.4520836734693878 0.0
0.9859949536178105 0.4881949536178107 0.0
1.0212750278293132 0.5234750278293134 0.0
1.055723896103896 0.557923896103896 0.0
1.0893415584415582 0.5915415584415583 0.0
1.1221280148423003 0.6243280148423004 0.0
1.1540832653061224 0.6562832653061225 0.0
1.185207309833024 0.6874073098330241 0.0
1.2155001484230055 0.7177001484230056 0.0
1.2449617810760667 0.7471617810760669 0.0
1.2735922077922077 0.7757922077922077 0.0
1.3013914285714283 0.8035914285714285 0.0
1.3283594434137287 0.830559443413729 0.0
1.3544962523191093 0.8566962523191094 0.0
1.3798018552875693 0.8820018552875695 0.0
1.4042762523191092 0.9064762523191093 0.0
1.427919443413729 0.9301194434137292 0.0
1.4507314285714283 0.9529314285714284 0.0
1.4727122077922075 0.9749122077922077 0.0
1.4938617810760666 0.9960617810760668 0.0
1.5141801484230053 1.0163801484230055 0.0
1.5336673098330238 1.035867309833024 0.0
1.552323265306122 1.0545232653061223 0.0
1.5701480148423002 1.0723480148423004 0.0
1.5871415584415582 1.0893415584415584 0.0
1.603303896103896 1.105503896103896 0.0
1.6186350278293131 1.1208350278293133 0.0
1.6331349536178106 1.1353349536178106 0.0
1.6468036734693874 1.1490036734693876 0.0
1.6596411873840444 1.1618411873840446 0.0
1.6716474953617806 1.173847495361781 0.0
1.6828225974025972 1.1850225974025972 0.0
1.6931664935064934 1.1953664935064934 0.0
1.7026791836734692 1.2048791836734694 0.0
1.7113606679035245 1.2135606679035247 0.0
1.71921094619666 1.2214109461966602 0.0
1.7262300185528754 1.2284300185528756 0.0
1.7324178849721703 1.2346178849721705 0.0
1.7377745454545452 1.2399745454545454 0.0
1.7422999999999997 1.2445 0.0
1.6155872727272724 -1.2422372727272726 0.0
1.6106462152133578 -1.237296215213358 0.0
1.604873951762523 -1.2315239517625232 0.0
1.598270482374768 -1.224920482374768 0.0
1.5908358070500925 -1.2174858070500927 0.0
1.582569925788497 -1.2092199257884972 0.0
1.5734728385899812 -1.2001228385899814 0.0
1.5635445454545454 -1.1901945454545453 0.0
1.552785046382189 -1.1794350463821892 0.0
1.5411943413729126 -1.1678443413729127 0.0
1.5287724304267158 -1.155422430426716 0.0
1.5155193135435991 -1.142169313543599 0.0
1.501434990723562 -1.1280849907235622 0.0
1.4865194619666047 -1.1131694619666048 0.0
1.4707727272727271 -1.0974227272727273 0.0
1.4541947866419294 -1.0808447866419293 0.0
1.4367856400742112 -1.0634356400742113 0.0
1.418545287569573 -1.0451952875695731 0.0
1.3994737291280146 -1.0261237291280147 0.0
1.379570964749536 -1.0062209647495362 0.0
1.358836994434137 -0.9854869944341371 0.0
1.337271818181818 -0.9639218181818181 0.0
1.3148754359925787 -0.9415254359925787 0.0
1.291647847866419 -0.9182978478664192 0.0
1.2675890538033394 -0.8942390538033393 0.0
1.2426990538033393 -0.8693490538033395 0.0
1.2169778478664193 -0.8436278478664192 0.0
1.1904254359925788 -0.8170754359925788 0.0
1.163041818181818 -0.7896918181818181 0.0
1.1348269944341371 -0.7614769944341371 0.0
1.105780964749536 -0.7324309647495362 0.0
1.0759037291280147 -0.7025537291280148 0.0
1.0451952875695731 -0.6718452875695733 0.0
1.0136556400742114 -0.6403056400742114 0.0
0.9812847866419293 -0.6079347866419293 0.0
0.9480827272727271 -0.5747327272727272 0.0
0.9140494619666047 -0.5406994619666048 0.0
0.8791849907235622 -0.5058349907235622 0.0
0.8434893135435992 -0.47013931354359917 0.0
0.8069624304267162 -0.43361243042671627 0.0
0.7696043413729128 -0.3962543413729128 0.0
0.7314150463821893 -0.3580650463821894 0.0
0.6923945454545455 -0.3190445454545454 0.0
0.6525428385899814 -0.27919283858998134 0.0
0.6118599257884971 -0.23850992578849706 0.0
0.5703458070500929 -0.19699580705009279 0.0
0.5280004823747682 -0.15465048237476808 0.0
0.4848239517625232 -0.11147395176252317 0.0
0.4408162152133581 -0.06746621521335805 0.0
0.39597727272727273 -0.022627272727272718 0.0
0.39597727272727273 0.02262727272727273 0.0
0.4408162152133581 0.06746621521335806 0.0
0.4848239517625232 0.11147395176252319 0.0
0.528000482374768 0.15465048237476808 0.0
0.5703458070500929 0.19699580705009276 0.0
0.6118599257884971 0.23850992578849717 0.0
0.6525428385899814 0.2791928385899814 0.0
0.6923945454545455 0.3190445454545454 0.0
0.7314150463821891 0.3580650463821891 0.0
0.7696043413729128 0.39625434137291277 0.0
0.8069624304267162 0.43361243042671616 0.0
0.8434893135435992 0.4701393135435992 0.0
0.8791849907235619 0.5058349907235621 0.0
0.9140494619666046 0.5406994619666047 0.0
0.9480827272727271 0.5747327272727272 0.0
0.9812847866419294 0.6079347866419295 0.0
1.0136556400742114 0.6403056400742114 0.0
1.0451952875695731 0.6718452875695732 0.0
1.0759037291280147 0.7025537291280147 0.0
1.105780964749536 0.7324309647495362 0.0
1.1348269944341371 0.7614769944341373 0.0
1.163041818181818 0.789691818181818 0.0
1.1904254359925786 0.8170754359925786 0.0
1.216977847866419 0.843627847866419 0.0
1.2426990538033393 0.8693490538033394 0.0
1.2675890538033392 0.8942390538033393 0.0
1.291647847866419 0.9182978478664192 0.0
1.3148754359925787 0.9415254359925787 0.0
1.3372718181818182 0.9639218181818181 0.0
1.3588369944341372 0.9854869944341373 0.0
1.379570964749536 1.0062209647495362 0.0
1.3994737291280148 1.0261237291280147 0.0
1.418545287569573 1.0451952875695731 0.0
1.4367856400742112 1.0634356400742113 0.0
1.4541947866419291 1.0808447866419293 0.0
1.470772727272727 1.097422727272727 0.0
1.4865194619666047 1.1131694619666048 0.0
1.501434990723562 1.128084990723562 0.0
1.5155193135435991 1.1421693135435993 0.0
1.528772430426716 1.1554224304267162 0.0
1.5411943413729128 1.1678443413729127 0.0
1.5527850463821888 1.179435046382189 0.0
1.5635445454545451 1.1901945454545453 0.0
1.573472838589981 1.2001228385899811 0.0
1.5825699257884969 1.209219925788497 0.0
1.5908358070500925 1.2174858070500927 0.0
1.5982704823747678 1.224920482374768 0.0
1.604873951762523 1.2315239517625232 0.0
1.6106462152133578 1.237296215213358 0.0
1.6155872727272724 1.2422372727272726 0.0

CELLS 200 700
4 0 101 102 1
4 1 102 103 2
4 2 103 104 3
4 3 104 105 4
4 4 105 106 5
4 5 106 107 6
4 6 107 108 7
4 7 108 109 8
4 8 109 110 9
4 9 110 111 10
4 10 111 112 11
4 11 112 113 12
4 12 113 114 13
4 13 114 115 14
4 14 115 116 15
4 15 116 117 16
4 16 117 118 17
4 17 118 119 18
4 18 119 120 19
4 19 120 121 20
4 20 121 122 21
4 21 122 123 22
4 22 123 124 23
4 23 124 125 24
4 24 125 126 25
4 25 126 127 26
4 26 127 128 27
4 27 128 129 28
4 28 129 130 29
4 29 130 131 30
4 30 131 132 31
4 31 132 133 32
4 32 133 134 33
4 33 134 135 34
4 34 135 136 35
4 35 136 137 36
4 36 137 138 37
4 37 138 139 38
4 38 139 140 39
4 39 140 141 40
4 40 141 142 41
4 41 142 143 42
4 42 143 144 43
4 43 144 145 44
4 44 145 146 45
4 45 146 147 46
4 46 147 148 47
4 47 148 149 48
4 48 149 150 49
4 49 150 151 50
4 50 151 152 51
4 51 152 153 52
4 52 153 154 53
4 53 154 155 54
4 54 155 156 55
4 55 156 157 56
4 56 157 158 57
4 57 158 159 58
4 58 159 160 59
4 59 160 161 60
4 60 161 162 61
4 61 162 163 62
4 62 163 164 63
4 63 164 165 64
4 64 165 166 65
4 65 166 167 66
4 66 167 168 67
4 67 168 169 68
4 68 169 170 69
4 69 170 171 70
4 70 171 172 71
4 71 172 173 72
4 72 173 174 73
4 73 174 175 74
4 74 175 176 75
4 75 176 177 76
4 76 177 178 77
4 77 178 179 78
4 78 179 180 79
4 79 180 181 80
4 80 181 182 81
4 81 182 183 82
4 82 183 184 83
4 83 184 185 84
4 84 185 186 85
4 85 186 187 86
4 86 187 188 87
4 87 188 189 88
4 88 189 190 89
4 89 190 191 90
4 90 191 192 91
4 91 192 193 92
4 92 193 194 93
4 93 194 195 94
4 94 195 196 95
4 95 196 197 96
4 96 197 198 97
4 97 198 199 98
4 98 199 200 99
4 99 200 201 100
1 202
1 203
1 204
1 205
1 206
1 207
1 208
1 209
1 210
1 211
1 212
1 213
1 214
1 215
1 216
1 217
1 218
1 219
1 220
1 221
1 222
1 223
1 224
1 225
1 226
1 227
1 228
1 229
1 230
1 231
1 232
1 233
1 234
1 235
1 236
1 237
1 238
1 239
1 240
1 241
1 242
1 243
1 244
1 245
1 246
1 247
1 248
1 249
1 250
1 251
1 252
1 253
1 254
1 255
1 256
1 257
1 258
1 259
1 260
1 261
1 262
1 263
1 264
1 265
1 266
1 267
1 268
1 269
1 270
1 271
1 272
1 273
1 274
1 275
1 276
1 277
1 278
1 279
1 280
1 281
1 282
1 283
1 284
1 285
1 286
1 287
1 288
1 289
1 290
1 291
1 292
1 293
1 294
1 295
1 296
1 297
1 298
1 299
1 300
1 301

CELL_TYPES 200
9
9
9
9
9
9
9
9
9
9
9
9
9
9
9
9
9
9
9
9
9
9
9
9
9
9
9
9
9
9
9
9
9
9
9
9
9
9
9
9
9
9
9
9
9
9
9
9
9
9
9
9
9
9
9
9
9
9
9
9
9
9
9
9
9
9
9
9
9
9
9
9
9
9
9
9
9
9
9
9
9
9
9
9
9
9
9
9
9
9
9
9
9
9
9
9
9
9
9
9
1
1
1
1
1
1
1
1
1
1
1
1
1
1
1
1
1
1
1
1
1
1
1
1
1
1
1
1
1
1
1
1
1
1
1
1
1
1
1
1
1
1
1
1
1
1
1
1
1
1
1
1
1
1
1
1
1
1
1
1
1
1
1
1
1
1
1
1
1
1
1
1
1
1
1
1
1
1
1
1
1
1
1
1
1
1
1
1
1
1
1
1
1
1
1
1
1
1
1
1

CELL_DATA 200

VECTORS Vinf float
49.530924304951554 0.03284572974266747 4.2846620262737956
49.533436428853776 0.033781140736033305 4.249832354724295
49.53624936874139 0.03470478884448132 4.210560931667391
49.539302402737405 0.03555508181019531 4.167574620462863
49.542460046687744 0.03832658179715214 4.1220254935369525
49.54582641265291 0.038768291324179305 4.073614120790951
49.54922142662428 0.03890860124221101 4.024050124608216
49.55257651679345 0.03870372079505186 3.974180164685511
49.555830681085766 0.03812179038967571 3.924769087418469
49.55887127050162 0.0367482531310697 3.8780201188423646
49.561801871311346 0.036177450102478546 3.8313004848068966
49.56453963244128 0.03542127595399759 3.7863832766667826
49.567069888552176 0.03450514616541489 3.7435604971422984
49.56938549613238 0.0334545888479817 3.7030564972678284
49.57148541869869 0.03229402553486724 3.6650395820604946
49.57337343056693 0.03104614180417262 3.62962826895889
49.57505684993135 0.02973158060526351 3.5968939935380164
49.57652645707748 0.028830677809883534 3.567000949229255
49.577766007857406 0.027171887608030694 3.540806270339973
49.578926057570605 0.024478987197213593 3.515143535575294
49.57995325519844 0.024154147366669047 3.492595688799919
49.58077857488348 0.022756619605128293 3.4728112109901454
49.58147239037987 0.021384872365193985 3.455304334986385
49.582050167315245 0.020048241009895572 3.439938943001503
49.58252638518731 0.018751916273676974 3.4265811278366063
49.582802588137206 0.017396912106641873 3.415195529391208
49.58313372348492 0.016107413826372718 3.405722894855636
49.58345339453724 0.015111454517399252 3.3972866280582656
49.58362249489395 0.01397912881527868 3.3907446671180757
49.58373479540496 0.012885126799620842 3.3856871163263653
49.58379741361118 0.011824756722062362 3.382085732779311
49.58381608442871 0.010791153144072004 3.3799294973099028
49.58367716261585 0.009121202187332922 3.3796310071519566
49.58373846877673 0.008771793211917818 3.3798277491199427
49.58364501495653 0.007768654164681564 3.381724792557472
49.58351044845823 0.006758723253454191 3.384790319323148
49.58332408519718 0.005734340972620622 3.3889972251977976
49.583023758679566 0.004435194328542651 3.394926034894399
49.58270579094539 0.0036205547897773453 3.4013763529393173
49.58220691183315 0.0025399670619247637 3.410153359592055
49.58154186274109 0.0014712535260294713 3.4212119486192054
49.580695333626245 0.0004406035955706189 3.4350531207053585
49.579604974139464 -0.0006802205283917468 3.4526600962731298
49.5783721388244 -0.0014241014219584102 3.4735556842789324
49.576837193848775 -0.002167103749679975 3.499211228884707
49.57508698833145 -0.0026282462094753263 3.5281924052620806
49.57330668901082 -0.0025594356706688036 3.5565351525381588
49.57205547121699 -0.0019918241712526684 3.575572929485393
49.57163049938506 -0.0010026488428319202 3.5801594002573003
49.571888505953616 -0.0002032134880547879 3.5737147722509266
49.571888879083026 0.00023357695883065776 3.5737132144052435
49.5716314549084 0.0010332487843222307 3.580158257546085
49.5720568830674 0.0020229762431490136 3.575575649455769
49.57341290538307 0.002527452593520723 3.556067925854166
49.575133124862624 0.002631932154133241 3.528122350841239
49.576878616281434 0.0021755214433431852 3.4991443407578204
49.5784244199663 0.0013623727148204172 3.473431066008597
49.57972199894125 0.00033566154710485053 3.4521125978889917
49.5807035656617 -0.0004028390312618473 3.4350069558121117
49.5815524407286 -0.0014319630678507134 3.4211456393101294
49.582220521998245 -0.002499337824460364 3.4100645243099605
49.582722929016654 -0.003579125891991762 3.401265017033209
49.58304416913749 -0.0043621506680106325 3.3947016576459093
49.583347933960184 -0.005693420647520871 3.3888511471260747
49.58353675119095 -0.006718771520368659 3.3846330840622105
49.58367310622451 -0.007729733743293268 3.381559241155375
49.58376787187917 -0.00873374248850283 3.379655519887939
49.58370935847777 -0.009087846043510185 3.379413699987617
49.58384749487141 -0.010754033784453072 3.3797458213056326
49.583829812495125 -0.01178770985577967 3.381896284695832
49.583768292158794 -0.012847946460787718 3.385491347494956
49.58365724098892 -0.013941653178575876 3.3905419092241793
49.5834895577367 -0.015073550100621355 3.397076345868535
49.5831765996541 -0.01606646096418311 3.405467553854141
49.58284632995121 -0.017348744791212633 3.414944729744769
49.58256799879858 -0.01871214904439997 3.426346264897397
49.58209412256008 -0.020007855025403812 3.439694843878745
49.58151898563873 -0.021344058825871877 3.455049999368911
49.58082805668252 -0.022715694106332694 3.4725453801887887
49.580005764075615 -0.02411350275468064 3.49231702961841
49.578986977431235 -0.024141434837719414 3.5143533524114243
49.577834277937974 -0.026950374564721834 3.540095248764964
49.57659425642256 -0.028708331808931467 3.566467867313892
49.57512061857567 -0.02969592611806778 3.596556047191127
49.57343941296228 -0.03101248768046832 3.629275335083849
49.57155328318526 -0.03226252721417913 3.6646720419485472
49.5694549035455 -0.033425306730177726 3.7026747573279675
49.56714052023101 -0.03447805285776923 3.743164929202044
49.56461121309714 -0.035396275812943113 3.785974197713003
49.56187418155185 -0.03615440327992755 3.830878160438032
49.55894414868691 -0.03672699728958505 3.877584778081576
49.555899212118916 -0.038075244013006056 3.9243572625348966
49.55264899743137 -0.03865361378868607 3.973700382685248
49.549297520680504 -0.03885630190897767 4.023507928826029
49.5459058098082 -0.03871490417103454 4.0730148992030095
49.542542452758646 -0.038272971053676816 4.121374530836993
49.53937747971333 -0.035541281825014676 4.167067277111077
49.5363247688282 -0.034691772382138955 4.210043470863992
49.53351213996761 -0.03376879970463335 4.24930569212183
49.53100030605655 -0.032833961033224376 4.284127221971447
49.530924304951554 0.03284572974266747 4.2846620262737956
49.533436428853776 0.033781140736033305 4.249832354724295
49.53624936874139 0.03470478884448132 4.210560931667391
49.539302402737405 0.03555508181019531 4.167574620462863
49.542460046687744 0.03832658179715214 4.1220254935369525
49.54582641265291 0.038768291324179305 4.073614120790951
49.54922142662428 0.03890860124221101 4.024050124608216
49.55257651679345 0.03870372079505186 3.974180164685511
49.555830681085766 0.03812179038967571 3.924769087418469
49.55887127050162 0.0367482531310697 3.8780201188423646
49.561801871311346 0.036177450102478546 3.8313004848068966
49.56453963244128 0.03542127595399759 3.7863832766667826
49.567069888552176 0.03450514616541489 3.7435604971422984
49.56938549613238 0.0334545888479817 3.7030564972678284
49.57148541869869 0.03229402553486724 3.6650395820604946
49.57337343056693 0.03104614180417262 3.62962826895889
49.57505684993135 0.02973158060526351 3.5968939935380164
49.57652645707748 0.028830677809883534 3.567000949229255
49.577766007857406 0.027171887608030694 3.540806270339973
49.578926057570605 0.024478987197213593 3.515143535575294
49.57995325519844 0.024154147366669047 3.492595688799919
49.58077857488348 0.022756619605128293 3.4728112109901454
49.58147239037987 0.021384872365193985 3.455304334986385
49.582050167315245 0.020048241009895572 3.439938943001503
49.58252638518731 0.018751916273676974 3.4265811278366063
49.582802588137206 0.017396912106641873 3.415195529391208
49.58313372348492 0.016107413826372718 3.405722894855636
49.58345339453724 0.015111454517399252 3.3972866280582656
49.58362249489395 0.01397912881527868 3.3907446671180757
49.58373479540496 0.012885126799620842 3.3856871163263653
49.58379741361118 0.011824756722062362 3.382085732779311
49.58381608442871 0.010791153144072004 3.3799294973099028
49.58367716261585 0.009121202187332922 3.3796310071519566
49.58373846877673 0.008771793211917818 3.3798277491199427
49.58364501495653 0.007768654164681564 3.381724792557472
49.58351044845823 0.006758723253454191 3.384790319323148
49.58332408519718 0.005734340972620622 3.3889972251977976
49.583023758679566 0.004435194328542651 3.394926034894399
49.58270579094539 0.0036205547897773453 3.4013763529393173
49.58220691183315 0.0025399670619247637 3.410153359592055
49.58154186274109 0.0014712535260294713 3.4212119486192054
49.580695333626245 0.0004406035955706189 3.4350531207053585
49.579604974139464 -0.0006802205283917468 3.4526600962731298
49.5783721388244 -0.0014241014219584102 3.4735556842789324
49.576837193848775 -0.002167103749679975 3.499211228884707
49.57508698833145 -0.0026282462094753263 3.5281924052620806
49.57330668901082 -0.0025594356706688036 3.5565351525381588
49.57205547121699 -0.0019918241712526684 3.575572929485393
49.57163049938506 -0.0010026488428319202 3.5801594002573003
49.571888505953616 -0.0002032134880547879 3.5737147722509266
49.571888879083026 0.00023357695883065776 3.5737132144052435
49.5716314549084 0.0010332487843222307 3.580158257546085
49.5720568830674 0.0020229762431490136 3.575575649455769
49.57341290538307 0.002527452593520723 3.556067925854166
49.575133124862624 0.002631932154133241 3.528122350841239
49.576878616281434 0.0021755214433431852 3.4991443407578204
49.5784244199663 0.0013623727148204172 3.473431066008597
49.57972199894125 0.00033566154710485053 3.4521125978889917
49.5807035656617 -0.0004028390312618473 3.4350069558121117
49.5815524407286 -0.0014319630678507134 3.4211456393101294
49.582220521998245 -0.002499337824460364 3.4100645243099605
49.582722929016654 -0.003579125891991762 3.401265017033209
49.58304416913749 -0.0043621506680106325 3.3947016576459093
49.583347933960184 -0.005693420647520871 3.3888511471260747
49.58353675119095 -0.006718771520368659 3.3846330840622105
49.58367310622451 -0.007729733743293268 3.381559241155375
49.58376787187917 -0.00873374248850283 3.379655519887939
49.58370935847777 -0.009087846043510185 3.379413699987617
49.58384749487141 -0.010754033784453072 3.3797458213056326
49.583829812495125 -0.01178770985577967 3.381896284695832
49.583768292158794 -0.012847946460787718 3.385491347494956
49.58365724098892 -0.013941653178575876 3.3905419092241793
49.5834895577367 -0.015073550100621355 3.397076345868535
49.5831765996541 -0.01606646096418311 3.405467553854141
49.58284632995121 -0.017348744791212633 3.414944729744769
49.58256799879858 -0.01871214904439997 3.426346264897397
49.58209412256008 -0.020007855025403812 3.439694843878745
49.58151898563873 -0.021344058825871877 3.455049999368911
49.58082805668252 -0.022715694106332694 3.4725453801887887
49.580005764075615 -0.02411350275468064 3.49231702961841
49.578986977431235 -0.024141434837719414 3.5143533524114243
49.577834277937974 -0.026950374564721834 3.540095248764964
49.57659425642256 -0.028708331808931467 3.566467867313892
49.57512061857567 -0.02969592611806778 3.596556047191127
49.57343941296228 -0.03101248768046832 3.629275335083849
49.57155328318526 -0.03226252721417913 3.6646720419485472
49.5694549035455 -0.033425306730177726 3.7026747573279675
49.56714052023101 -0.03447805285776923 3.743164929202044
49.56461121309714 -0.035396275812943113 3.785974197713003
49.56187418155185 -0.03615440327992755 3.830878160438032
49.55894414868691 -0.03672699728958505 3.877584778081576
49.555899212118916 -0.038075244013006056 3.9243572625348966
49.55264899743137 -0.03865361378868607 3.973700382685248
49.549297520680504 -0.03885630190897767 4.023507928826029
49.5459058098082 -0.03871490417103454 4.0730148992030095
49.542542452758646 -0.038272971053676816 4.121374530836993
49.53937747971333 -0.035541281825014676 4.167067277111077
49.5363247688282 -0.034691772382138955 4.210043470863992
49.53351213996761 -0.03376879970463335 4.24930569212183
49.53100030605655 -0.032833961033224376 4.284127221971447

VECTORS L float
-0.006619742355193958 0.0 0.0901437384487451
-0.011943966064243045 0.0 0.1626458697582145
-0.017648953098951092 0.0 0.24033301096646717
-0.023926377453533956 0.0 0.3258152652278145
-0.030818255280652216 0.0 0.41966478367334786
-0.03832615524710169 0.0 0.5219029274802504
-0.04643539680285087 0.0 0.6323297855958985
-0.05512214700143676 0.0 0.7506208150430661
-0.06435631479845316 0.0 0.8763662537659123
-0.07410301101058121 0.0 1.009091001489074
-0.08432134389169019 0.0 1.1482382185849438
-0.09496744226393483 0.0 1.2932104932859754
-0.10599406500063595 0.0 1.4433645238533852
-0.11735140792333557 0.0 1.598022106424292
-0.12898799440925676 0.0 1.7564822627776655
-0.1408518493953741 0.0 1.9180372272277986
-0.15289173144483242 0.0 2.0819892241765245
-0.1650583648529823 0.0 2.247667246204905
-0.1773054346753708 0.0 2.4144406037762454
-0.18958557130071974 0.0 2.5816642455244407
-0.2018613246582339 0.0 2.7488281985222214
-0.21409773158155895 0.0 2.915456355036979
-0.22626167959921062 0.0 3.081097809004895
-0.23832417478578696 0.0 3.2453577382882193
-0.2502596223915657 0.0 3.4078876087143453
-0.2620455819461614 0.0 3.5683818392221784
-0.2736621608688439 0.0 3.726569544405882
-0.28508916588328925 0.0 3.8821757441647677
-0.29631337894546605 0.0 4.0350204429884275
-0.30731969921524754 0.0 4.184898006562159
-0.3180941415084108 0.0 4.331617992913887
-0.32862290065974353 0.0 4.474992411464012
-0.33889204964333647 0.0 4.614831612205998
-0.3488802878343549 0.0 4.750845535821693
-0.35857318378494546 0.0 4.882837663384691
-0.36794797815958347 0.0 5.010498071716907
-0.376979583826346 0.0 5.133485139084877
-0.38564067682070424 0.0 5.251426783890903
-0.39389268631033986 0.0 5.363797771339777
-0.4017027897610448 0.0 5.470151143562124
-0.409024452045446 0.0 5.569853212700398
-0.4158011253351828 0.0 5.662133943853527
-0.42196483243215877 0.0 5.746067663719305
-0.42742478196904327 0.0 5.820418029124401
-0.43208273754612714 0.0 5.883847314845329
-0.4358112933301412 0.0 5.934620583554495
-0.43847438375035147 0.0 5.970884974738306
-0.43997352157951125 0.0 5.991299347552132
-0.4403434618028423 0.0 5.996336974840973
-0.4385460574993085 0.0 5.971860985485091
-0.43854436799305796 0.0 5.971837978787644
-0.4403386510425543 0.0 5.996271464751021
-0.43996504334040576 0.0 5.991183895903498
-0.43845979441562066 0.0 5.9706863058017285
-0.43579697066600154 0.0 5.9344255459804005
-0.4320670409727808 0.0 5.883633568187777
-0.4274069359710883 0.0 5.820175012873059
-0.4219436358713688 0.0 5.7457790214838
-0.4157821730146223 0.0 5.661875862354892
-0.40900563739292467 0.0 5.569597005883745
-0.40168363371769245 0.0 5.4698902878869315
-0.3938729174665735 0.0 5.3635285709107725
-0.385620112662646 0.0 5.251146753341985
-0.37695909169960357 0.0 5.1332060894158404
-0.36792734791885556 0.0 5.010217141293255
-0.35855242347553695 0.0 4.882554961762629
-0.3488594302510557 0.0 4.750561509581288