# vtk DataFile Version 4.0
[MyVLM domain - lattices] 
ASCII
DATASET UNSTRUCTURED_GRID
POINTS 302 float
1.2444999999999997 -1.2445 0.0
1.2399745454545452 -1.2399745454545454 0.0
1.2346178849721705 -1.2346178849721707 0.0
1.2284300185528754 -1.2284300185528756 0.0
1.2214109461966602 -1.2214109461966605 0.0
1.2135606679035247 -1.213560667903525 0.0
1.2048791836734691 -1.2048791836734694 0.0
1.1953664935064932 -1.1953664935064934 0.0
1.1850225974025972 -1.1850225974025974 0.0
1.1738474953617808 -1.173847495361781 0.0
1.1618411873840442 -1.1618411873840444 0.0
1.1490036734693874 -1.1490036734693876 0.0
1.1353349536178106 -1.1353349536178108 0.0
1.1208350278293133 -1.1208350278293135 0.0
1.1055038961038959 -1.105503896103896 0.0
1.0893415584415582 -1.0893415584415584 0.0
1.0723480148423004 -1.0723480148423006 0.0
1.054523265306122 -1.0545232653061223 0.0
1.0358673098330238 -1.035867309833024 0.0
1.0163801484230053 -1.0163801484230055 0.0
0.9960617810760664 -0.9960617810760668 0.0
0.9749122077922076 -0.9749122077922077 0.0
0.9529314285714284 -0.9529314285714284 0.0
0.9301194434137288 -0.930119443413729 0.0
0.9064762523191091 -0.9064762523191096 0.0
0.8820018552875695 -0.8820018552875695 0.0
0.8566962523191093 -0.8566962523191094 0.0
0.8305594434137288 -0.8305594434137291 0.0
0.8035914285714284 -0.8035914285714285 0.0
0.7757922077922076 -0.7757922077922077 0.0
0.7471617810760666 -0.7471617810760667 0.0
0.7177001484230053 -0.7177001484230054 0.0
0.6874073098330239 -0.687407309833024 0.0
0.6562832653061222 -0.6562832653061225 0.0
0.6243280148423004 -0.6243280148423005 0.0
0.5915415584415582 -0.5915415584415583 0.0
0.5579238961038958 -0.5579238961038959 0.0
0.5234750278293133 -0.5234750278293134 0.0
0.48819495361781057 -0.48819495361781057 0.0
0.4520836734693877 -0.4520836734693877 0.0
0.4151411873840445 -0.4151411873840446 0.0
0.37736749536178105 -0.37736749536178116 0.0
0.3387625974025974 -0.3387625974025974 0.0
0.2993264935064933 -0.29932649350649343 0.0
0.25905918367346925 -0.25905918367346925 0.0
0.21796066790352486 -0.21796066790352486 0.0
0.17603094619666027 -0.1760309461966605 0.0
0.13327001855287546 -0.13327001855287568 0.0
0.08967788497217066 -0.08967788497217066 0.0
0.045254545454545436 -0.045254545454545436 0.0
0.0 0.0 0.0
0.04525454545454545 0.04525454545454546 0.0
0.08967788497217066 0.08967788497217068 0.0
0.13327001855287568 0.1332700185528757 0.0
0.17603094619666046 0.1760309461966605 0.0
0.21796066790352497 0.21796066790352508 0.0
0.2590591836734693 0.25905918367346936 0.0
0.29932649350649343 0.2993264935064935 0.0
0.3387625974025973 0.33876259740259734 0.0
0.37736749536178094 0.377367495361781 0.0
0.41514118738404443 0.4151411873840445 0.0
0.45208367346938766 0.4520836734693878 0.0
0.48819495361781057 0.4881949536178107 0.0
0.5234750278293133 0.5234750278293134 0.0
0.5579238961038959 0.557923896103896 0.0
0.5915415584415582 0.5915415584415583 0.0
0.6243280148423003 0.6243280148423004 0.0
0.6562832653061222 0.6562832653061225 0.0
0.687407309833024 0.6874073098330241 0.0
0.7177001484230054 0.7177001484230056 0.0
0.7471617810760667 0.7471617810760669 0.0
0.7757922077922076 0.7757922077922077 0.0
0.8035914285714284 0.8035914285714285 0.0
0.8305594434137288 0.830559443413729 0.0
0.8566962523191093 0.8566962523191094 0.0
0.8820018552875692 0.8820018552875695 0.0
0.9064762523191091 0.9064762523191093 0.0
0.9301194434137288 0.9301194434137292 0.0
0.9529314285714284 0.9529314285714284 0.0
0.9749122077922076 0.9749122077922077 0.0
0.9960617810760666 0.9960617810760668 0.0
1.0163801484230053 1.0163801484230055 0.0
1.0358673098330238 1.035867309833024 0.0
1.054523265306122 1.0545232653061223 0.0
1.0723480148423001 1.0723480148423004 0.0
1.0893415584415582 1.0893415584415584 0.0
1.1055038961038959 1.105503896103896 0.0
1.120835027829313 1.1208350278293133 0.0
1.1353349536178106 1.1353349536178106 0.0
1.1490036734693874 1.1490036734693876 0.0
1.1618411873840444 1.1618411873840446 0.0
1.1738474953617808 1.173847495361781 0.0
1.1850225974025972 1.1850225974025972 0.0
1.1953664935064932 1.1953664935064934 0.0
1.2048791836734691 1.2048791836734694 0.0
1.2135606679035245 1.2135606679035247 0.0
1.22141094619666 1.2214109461966602 0.0
1.2284300185528754 1.2284300185528756 0.0
1.2346178849721703 1.2346178849721705 0.0
1.2399745454545452 1.2399745454545454 0.0
1.2444999999999997 1.2445 0.0
1.7422999999999997 -1.2445 0.0
1.7377745454545452 -1.2399745454545454 0.0
1.7324178849721703 -1.2346178849721707 0.0
1.7262300185528754 -1.2284300185528756 0.0
1.7192109461966603 -1.2214109461966605 0.0
1.7113606679035245 -1.213560667903525 0.0
1.7026791836734692 -1.2048791836734694 0.0
1.6931664935064934 -1.1953664935064934 0.0
1.6828225974025972 -1.1850225974025974 0.0
1.6716474953617806 -1.173847495361781 0.0
1.6596411873840444 -1.1618411873840444 0.0
1.6468036734693878 -1.1490036734693876 0.0
1.6331349536178106 -1.1353349536178108 0.0
1.6186350278293133 -1.1208350278293135 0.0
1.603303896103896 -1.105503896103896 0.0
1.5871415584415582 -1.0893415584415584 0.0
1.5701480148423004 -1.0723480148423006 0.0
1.552323265306122 -1.0545232653061223 0.0
1.5336673098330238 -1.035867309833024 0.0
1.5141801484230053 -1.0163801484230055 0.0
1.4938617810760666 -0.9960617810760668 0.0
1.4727122077922075 -0.9749122077922077 0.0
1.4507314285714283 -0.9529314285714284 0.0
1.4279194434137288 -0.930119443413729 0.0
1.4042762523191092 -0.9064762523191096 0.0
1.3798018552875693 -0.8820018552875695 0.0
1.3544962523191093 -0.8566962523191094 0.0
1.328359443413729 -0.8305594434137291 0.0
1.3013914285714283 -0.8035914285714285 0.0
1.2735922077922077 -0.7757922077922077 0.0
1.2449617810760665 -0.7471617810760667 0.0
1.2155001484230055 -0.7177001484230054 0.0
1.1852073098330238 -0.687407309833024 0.0
1.1540832653061224 -0.6562832653061225 0.0
1.1221280148423003 -0.6243280148423005 0.0
1.0893415584415582 -0.5915415584415583 0.0
1.055723896103896 -0.5579238961038959 0.0
1.0212750278293132 -0.5234750278293134 0.0
0.9859949536178108 -0.48819495361781057 0.0
0.9498836734693876 -0.4520836734693877 0.0
0.9129411873840445 -0.4151411873840446 0.0
0.875167495361781 -0.37736749536178116 0.0
0.8365625974025973 -0.3387625974025974 0.0
0.7971264935064933 -0.29932649350649343 0.0
0.7568591836734693 -0.25905918367346925 0.0
0.7157606679035249 -0.21796066790352486 0.0
0.6738309461966603 -0.1760309461966605 0.0
0.6310700185528755 -0.13327001855287568 0.0
0.5874778849721707 -0.08967788497217066 0.0
0.5430545454545455 -0.045254545454545436 0.0
0.4978 0.0 0.0
0.5430545454545455 0.04525454545454546 0.0
0.5874778849721707 0.08967788497217068 0.0
0.6310700185528757 0.1332700185528757 0.0
0.6738309461966605 0.1760309461966605 0.0
0.715760667903525 0.21796066790352508 0.0
0.7568591836734693 0.25905918367346936 0.0
0.7971264935064934 0.2993264935064935 0.0
0.8365625974025973 0.33876259740259734 0.0
0.875167495361781 0.377367495361781 0.0
0.9129411873840445 0.4151411873840445 0.0
0.9498836734693876 0.4520836734693878 0.0
0.9859949536178105 0.4881949536178107 0.0
1.0212750278293132 0.5234750278293134 0.0
1.055723896103896 0.557923896103896 0.0
1.0893415584415582 0.5915415584415583 0.0
1.1221280148423003 0.6243280148423004 0.0
1.1540832653061224 0.6562832653061225 0.0
1.185207309833024 0.6874073098330241 0.0
1.2155001484230055 0.7177001484230056 0.0
1.2449617810760667 0.7471617810760669 0.0
1.2735922077922077 0.7757922077922077 0.0
1.3013914285714283 0.8035914285714285 0.0
1.3283594434137287 0.830559443413729 0.0
1.3544962523191093 0.8566962523191094 0.0
1.3798018552875693 0.8820018552875695 0.0
1.4042762523191092 0.9064762523191093 0.0
1.427919443413729 0.9301194434137292 0.0
1.4507314285714283 0.9529314285714284 0.0
1.4727122077922075 0.9749122077922077 0.0
1.4938617810760666 0.9960617810760668 0.0
1.5141801484230053 1.0163801484230055 0.0
1.5336673098330238 1.035867309833024 0.0
1.552323265306122 1.0545232653061223 0.0
1.5701480148423002 1.0723480148423004 0.0
1.5871415584415582 1.0893415584415584 0.0
1.603303896103896 1.105503896103896 0.0
1.6186350278293131 1.1208350278293133 0.0
1.6331349536178106 1.1353349536178106 0.0
1.6468036734693874 1.1490036734693876 0.0
1.6596411873840444 1.1618411873840446 0.0
1.6716474953617806 1.173847495361781 0.0
1.6828225974025972 1.1850225974025972 0.0
1.6931664935064934 1.1953664935064934 0.0
1.7026791836734692 1.2048791836734694 0.0
1.7113606679035245 1.2135606679035247 0.0
1.71921094619666 1.2214109461966602 0.0
1.7262300185528754 1.2284300185528756 0.0
1.7324178849721703 1.2346178849721705 0.0
1.7377745454545452 1.2399745454545454 0.0
1.7422999999999997 1.2445 0.0
1.6155872727272724 -1.2422372727272726 0.0
1.6106462152133578 -1.237296215213358 0.0
1.604873951762523 -1.2315239517625232 0.0
1.598270482374768 -1.224920482374768 0.0
1.5908358070500925 -1.2174858070500927 0.0
1.582569925788497 -1.2092199257884972 0.0
1.5734728385899812 -1.2001228385899814 0.0
1.5635445454545454 -1.1901945454545453 0.0
1.552785046382189 -1.1794350463821892 0.0
1.5411943413729126 -1.1678443413729127 0.0
1.5287724304267158 -1.155422430426716 0.0
1.5155193135435991 -1.142169313543599 0.0
1.501434990723562 -1.1280849907235622 0.0
1.4865194619666047 -1.1131694619666048 0.0
1.4707727272727271 -1.0974227272727273 0.0
1.4541947866419294 -1.0808447866419293 0.0
1.4367856400742112 -1.0634356400742113 0.0
1.418545287569573 -1.0451952875695731 0.0
1.3994737291280146 -1.0261237291280147 0.0
1.379570964749536 -1.0062209647495362 0.0
1.358836994434137 -0.9854869944341371 0.0
1.337271818181818 -0.9639218181818181 0.0
1.3148754359925787 -0.9415254359925787 0.0
1.291647847866419 -0.9182978478664192 0.0
1.2675890538033394 -0.8942390538033393 0.0
1.2426990538033393 -0.8693490538033395 0.0
1.2169778478664193 -0.8436278478664192 0.0
1.1904254359925788 -0.8170754359925788 0.0
1.163041818181818 -0.7896918181818181 0.0
1.1348269944341371 -0.7614769944341371 0.0
1.105780964749536 -0.7324309647495362 0.0
1.0759037291280147 -0.7025537291280148 0.0
1.0451952875695731 -0.6718452875695733 0.0
1.0136556400742114 -0.6403056400742114 0.0
0.9812847866419293 -0.6079347866419293 0.0
0.9480827272727271 -0.5747327272727272 0.0
0.9140494619666047 -0.5406994619666048 0.0
0.8791849907235622 -0.5058349907235622 0.0
0.8434893135435992 -0.47013931354359917 0.0
0.8069624304267162 -0.43361243042671627 0.0
0.7696043413729128 -0.3962543413729128 0.0
0.7314150463821893 -0.3580650463821894 0.0
0.6923945454545455 -0.3190445454545454 0.0
0.6525428385899814 -0.27919283858998134 0.0
0.6118599257884971 -0.23850992578849706 0.0
0.5703458070500929 -0.19699580705009279 0.0
0.5280004823747682 -0.15465048237476808 0.0
0.4848239517625232 -0.11147395176252317 0.0
0.4408162152133581 -0.06746621521335805 0.0
0.39597727272727273 -0.022627272727272718 0.0
0.39597727272727273 0.02262727272727273 0.0
0.4408162152133581 0.06746621521335806 0.0
0.4848239517625232 0.11147395176252319 0.0
0.528000482374768 0.15465048237476808 0.0
0.5703458070500929 0.19699580705009276 0.0
0.6118599257884971 0.23850992578849717 0.0
0.6525428385899814 0.2791928385899814 0.0
0.6923945454545455 0.3190445454545454 0.0
0.7314150463821891 0.3580650463821891 0.0
0.7696043413729128 0.39625434137291277 0.0
0.8069624304267162 0.43361243042671616 0.0
0.8434893135435992 0.4701393135435992 0.0
0.8791849907235619 0.5058349907235621 0.0
0.9140494619666046 0.5406994619666047 0.0
0.9480827272727271 0.5747327272727272 0.0
0.9812847866419294 0.6079347866419295 0.0
1.0136556400742114 0.6403056400742114 0.0
1.0451952875695731 0.6718452875695732 0.0
1.0759037291280147 0.7025537291280147 0.0
1.105780964749536 0.7324309647495362 0.0
1.1348269944341371 0.7614769944341373 0.0
1.163041818181818 0.789691818181818 0.0
1.1904254359925786 0.8170754359925786 0.0
1.216977847866419 0.843627847866419 0.0
1.2426990538033393 0.8693490538033394 0.0
1.2675890538033392 0.8942390538033393 0.0
1.291647847866419 0.9182978478664192 0.0
1.3148754359925787 0.9415254359925787 0.0
1.3372718181818182 0.9639218181818181 0.0
1.3588369944341372 0.9854869944341373 0.0
1.379570964749536 1.0062209647495362 0.0
1.3994737291280148 1.0261237291280147 0.0
1.418545287569573 1.0451952875695731 0.0
1.4367856400742112 1.0634356400742113 0.0
1.4541947866419291 1.0808447866419293 0.0
1.470772727272727 1.097422727272727 0.0
1.4865194619666047 1.1131694619666048 0.0
1.501434990723562 1.128084990723562 0.0
1.5155193135435991 1.1421693135435993 0.0
1.528772430426716 1.1554224304267162 0.0
1.5411943413729128 1.1678443413729127 0.0
1.5527850463821888 1.179435046382189 0.0
1.5635445454545451 1.1901945454545453 0.0
1.573472838589981 1.2001228385899811 0.0
1.5825699257884969 1.209219925788497 0.0
1.5908358070500925 1.2174858070500927 0.0
1.5982704823747678 1.224920482374768 0.0
1.604873951762523 1.2315239517625232 0.0
1.6106462152133578 1.237296215213358 0.0
1.6155872727272724 1.2422372727272726 0.0

CELLS 200 700
4 0 101 102 1
4 1 102 103 2
4 2 103 104 3
4 3 104 105 4
4 4 105 106 5
4 5 106 107 6
4 6 107 108 7
4 7 108 109 8
4 8 109 110 9
4 9 110 111 10
4 10 111 112 11
4 11 112 113 12
4 12 113 114 13
4 13 114 115 14
4 14 115 116 15
4 15 116 117 16
4 16 117 118 17
4 17 118 119 18
4 18 119 120 19
4 19 120 121 20
4 20 121 122 21
4 21 122 123 22
4 22 123 124 23
4 23 124 125 24
4 24 125 126 25
4 25 126 127 26
4 26 127 128 27
4 27 128 129 28
4 28 129 130 29
4 29 130 131 30
4 30 131 132 31
4 31 132 133 32
4 32 133 134 33
4 33 134 135 34
4 34 135 136 35
4 35 136 137 36
4 36 137 138 37
4 37 138 139 38
4 38 139 140 39
4 39 140 141 40
4 40 141 142 41
4 41 142 143 42
4 42 143 144 43
4 43 144 145 44
4 44 145 146 45
4 45 146 147 46
4 46 147 148 47
4 47 148 149 48
4 48 149 150 49
4 49 150 151 50
4 50 151 152 51
4 51 152 153 52
4 52 153 154 53
4 53 154 155 54
4 54 155 156 55
4 55 156 157 56
4 56 157 158 57
4 57 158 159 58
4 58 159 160 59
4 59 160 161 60
4 60 161 162 61
4 61 162 163 62
4 62 163 164 63
4 63 164 165 64
4 64 165 166 65
4 65 166 167 66
4 66 167 168 67
4 67 168 169 68
4 68 169 170 69
4 69 170 171 70
4 70 171 172 71
4 71 172 173 72
4 72 173 174 73
4 73 174 175 74
4 74 175 176 75
4 75 176 177 76
4 76 177 178 77
4 77 178 179 78
4 78 179 180 79
4 79 180 181 80
4 80 181 182 81
4 81 182 183 82
4 82 183 184 83
4 83 184 185 84
4 84 185 186 85
4 85 186 187 86
4 86 187 188 87
4 87 188 189 88
4 88 189 190 89
4 89 190 191 90
4 90 191 192 91
4 91 192 193 92
4 92 193 194 93
4 93 194 195 94
4 94 195 196 95
4 95 196 197 96
4 96 197 198 97
4 97 198 199 98
4 98 199 200 99
4 99 200 201 100
1 202
1 203
1 204
1 205
1 206
1 207
1 208
1 209
1 210
1 211
1 212
1 213
1 214
1 215
1 216
1 217
1 218
1 219
1 220
1 221
1 222
1 223
1 224
1 225
1 226
1 227
1 228
1 229
1 230
1 231
1 232
1 233
1 234
1 235
1 236
1 237
1 238
1 239
1 240
1 241
1 242
1 243
1 244
1 245
1 246
1 247
1 248
1 249
1 250
1 251
1 252
1 253
1 254
1 255
1 256
1 257
1 258
1 259
1 260
1 261
1 262
1 263
1 264
1 265
1 266
1 267
1 268
1 269
1 270
1 271
1 272
1 273
1 274
1 275
1 276
1 277
1 278
1 279
1 280
1 281
1 282
1 283
1 284
1 285
1 286
1 287
1 288
1 289
1 290
1 291
1 292
1 293
1 294
1 295
1 296
1 297
1 298
1 299
1 300
1 301

CELL_TYPES 200
9
9
9
9
9
9
9
9
9
9
9
9
9
9
9
9
9
9
9
9
9
9
9
9
9
9
9
9
9
9
9
9
9
9
9
9
9
9
9
9
9
9
9
9
9
9
9
9
9
9
9
9
9
9
9
9
9
9
9
9
9
9
9
9
9
9
9
9
9
9
9
9
9
9
9
9
9
9
9
9
9
9
9
9
9
9
9
9
9
9
9
9
9
9
9
9
9
9
9
9
1
1
1
1
1
1
1
1
1
1
1
1
1
1
1
1
1
1
1
1
1
1
1
1
1
1
1
1
1
1
1
1
1
1
1
1
1
1
1
1
1
1
1
1
1
1
1
1
1
1
1
1
1
1
1
1
1
1
1
1
1
1
1
1
1
1
1
1
1
1
1
1
1
1
1
1
1
1
1
1
1
1
1
1
1
1
1
1
1
1
1
1
1
1
1
1
1
1
1
1

CELL_DATA 200

VECTORS Vinf float
49.53073229497861 0.03264117704345461 4.307873843640016
49.53322051845462 0.033462785763252144 4.272665000195968
49.536008998417266 0.03425538945948084 4.232918431977545
49.53903856625975 0.03495797574343359 4.189347090883825
49.54183008754351 0.03513323402882798 4.143828016826767
49.54514800493424 0.03628800659355065 4.095345650933495
49.54849276611807 0.0374415908538422 4.045876611144624
49.552274527063325 0.033950987935811146 3.9854160747784966
49.5552829326876 0.033941232171892106 3.938444216142507
49.5581886323809 0.033745080370216445 3.8919701095882107
49.56096098112443 0.03337888017040347 3.846443922406188
49.56357786646368 0.03286208829577356 3.802244919139999
49.56602415638034 0.0322139539100035 3.7597026321173086
49.56828995962328 0.03145124006075359 3.7191147815265446
49.570368878092566 0.030586958510825355 3.6807582973489037
49.57225625982349 0.02962994105464941 3.6448933082211394
49.57394749678596 0.028585151130604666 3.611761837005672
49.57543659904712 0.02745472993667773 3.581583482358895
49.57671543133475 0.026239666293329102 3.5545505452795716
49.57778740979258 0.025709125667909147 3.5326372114458433
49.57883370717872 0.017385703439224135 3.50408303972446
49.57965362791168 0.018072520882332407 3.4856313527169687
49.580371752028476 0.018326273737609835 3.4684817642113384
49.58097433726688 0.018148605900404863 3.453024376874783
49.581459993125335 0.0175324477927216 3.4394987523826313
49.581831147510776 0.016458052973552156 3.42806626177972
49.582087806223335 0.014895048922278322 3.4188480167509328
49.58222576250676 0.012807901585631746 3.411940045403825
49.58269560183978 0.0118493792675828 3.3989434254874253
49.58270780635359 0.011568270007224395 3.395479642238762
49.58279039553177 0.010612609107957721 3.392147716265068
49.582820982558175 0.009613916624066169 3.3901381637766588
49.58280372334875 0.00856978343890462 3.389516926211577
49.58273740302355 0.007472346054493789 3.390339534564041
49.582778673388034 0.006793645257610741 3.391960020049125
49.58305652731856 0.009890396668738399 3.398999794521448
49.582888576752076 0.008136884602400614 3.4015940480866007
49.5826315327617 0.006562978987605382 3.4057012307684085
49.58228606614934 0.005190917405432427 3.4115538425306755
49.58183704606825 0.0040227145505473795 3.4195297878780773
49.58097943295439 0.0023331399513903386 3.4312622582515893
49.58018847696409 0.0011063390539911729 3.4443640635468307
49.57920679945854 -0.00016056381839362984 3.4607691095017628
49.57795223671068 -0.0012629796197387675 3.4814689308857525
49.57643120814825 -0.0021083441727462677 3.5067067314809157
49.57470721035562 -0.0024141389215026825 3.5354138102097696
49.573178736396976 -0.0020352039045900576 3.5636063338294264
49.57176928962099 -0.001567182452393491 3.583123109563431
49.571241114200134 -0.0006758318929742904 3.5879380043095876
49.57142404545694 6.573828955161433e-5 3.5816373949214038
49.57151987519846 0.0002343285501179181 3.5811838848778437
49.571246623205965 0.0010500343332936156 3.5876826965508757
49.571670872332135 0.002058626477358968 3.583099757372072
49.572971069169746 0.0026850932327786054 3.5637242018412594
49.57481126719112 0.0023376439003484286 3.5353826777256834
49.576532873215356 0.0021479702622667924 3.5064353825532706
49.57805020903198 0.0013814362343184988 3.4809743196142438
49.57930012646402 0.0003231060791596578 3.4600663607910542
49.580276551137764 -0.0009323585024947626 3.4434643414708335
49.58106172719886 -0.0021783282473760604 3.4301747967649687
49.58190940908427 -0.0035714390271434308 3.418791609804933
49.582343116931185 -0.0047021929421197034 3.410886787061555
49.58267099625738 -0.0060570005462279005 3.405137345782318
49.582908148145314 -0.0076325483555516665 3.4011655003263974
49.583053923807604 -0.009405238825770549 3.398738680868822
49.58278774625993 -0.006773593776540314 3.3919549115663226
49.58274800726407 -0.007450231847955871 3.390311965377851
49.58281565775386 -0.008546335013616 3.38946953258121
49.58283393374232 -0.009589259000581952 3.3900753162520685
49.582804098465424 -0.010586768585145815 3.3920738290573715
49.58272209756728 -0.011541274040916904 3.395398415483298
49.58271047862556 -0.011821733299666671 3.398856502840269
49.58224672059481 -0.012778952393768209 3.411838009183316
49.58210856384984 -0.014866808105889409 3.4187468893804853
49.5818511679475 -0.01643026469286078 3.4279637020590763
49.58147897647527 -0.017504521989355225 3.4393900354571736
49.5809924864509 -0.018119816648272665 3.4529045976533963
49.58038976885886 -0.01829611183131995 3.468348616043505
49.579672398300346 -0.018040941412896742 3.485486821093309
49.57885388750273 -0.017353102450013532 3.5039332539071366
49.577849431338706 -0.0257907282224874 3.5322616135355824
49.576773853097386 -0.02630978074376108 3.554209161197576
49.575491684108584 -0.027514269416222294 3.5812801172886517
49.57399891292155 -0.02863536659940494 3.611496470350599
49.572303723611654 -0.02967180974046598 3.644662829180262
49.57041223752068 -0.03062122245296539 3.680557544088109
49.56832922176157 -0.03147845105557111 3.718937822817442
49.566059483303995 -0.03223452728897464 3.7595437850631046
49.56360955196095 -0.0328763619129226 3.8020993214195853
49.560989414844386 -0.03338716815895569 3.846307719191139
49.558214257984254 -0.03374771186221454 3.8918404023166824
49.55530620730545 -0.03393857111871414 3.9383189046887086
49.5522958880674 -0.03394343624611201 3.985293676266513
49.548512925851966 -0.037429214483861516 4.045755440784046
49.545167147690314 -0.036271815315198554 4.095225357972589
49.541848506794324 -0.03511363650507773 4.14370812494246
49.53907278559123 -0.03498150634462448 4.18914812368018
49.536042571287716 -0.03427684463306843 4.232723428963156
49.53325359296495 -0.033482451282862966 4.272473257257715
49.53076498825978 -0.0326593310783847 4.307684746692453
49.53073229497861 0.03264117704345461 4.307873843640016
49.53322051845462 0.033462785763252144 4.272665000195968
49.536008998417266 0.03425538945948084 4.232918431977545
49.53903856625975 0.03495797574343359 4.189347090883825
49.54183008754351 0.03513323402882798 4.143828016826767
49.54514800493424 0.03628800659355065 4.095345650933495
49.54849276611807 0.0374415908538422 4.045876611144624
49.552274527063325 0.033950987935811146 3.9854160747784966
49.5552829326876 0.033941232171892106 3.938444216142507
49.5581886323809 0.033745080370216445 3.8919701095882107
49.56096098112443 0.03337888017040347 3.846443922406188
49.56357786646368 0.03286208829577356 3.802244919139999
49.56602415638034 0.0322139539100035 3.7597026321173086
49.56828995962328 0.03145124006075359 3.7191147815265446
49.570368878092566 0.030586958510825355 3.6807582973489037
49.57225625982349 0.02962994105464941 3.6448933082211394
49.57394749678596 0.028585151130604666 3.611761837005672
49.57543659904712 0.02745472993667773 3.581583482358895
49.57671543133475 0.026239666293329102 3.5545505452795716
49.57778740979258 0.025709125667909147 3.5326372114458433
49.57883370717872 0.017385703439224135 3.50408303972446
49.57965362791168 0.018072520882332407 3.4856313527169687
49.580371752028476 0.018326273737609835 3.4684817642113384
49.58097433726688 0.018148605900404863 3.453024376874783
49.581459993125335 0.0175324477927216 3.4394987523826313
49.581831147510776 0.016458052973552156 3.42806626177972
49.582087806223335 0.014895048922278322 3.4188480167509328
49.58222576250676 0.012807901585631746 3.411940045403825
49.58269560183978 0.0118493792675828 3.3989434254874253
49.58270780635359 0.011568270007224395 3.395479642238762
49.58279039553177 0.010612609107957721 3.392147716265068
49.582820982558175 0.009613916624066169 3.3901381637766588
49.58280372334875 0.00856978343890462 3.389516926211577
49.58273740302355 0.007472346054493789 3.390339534564041
49.582778673388034 0.006793645257610741 3.391960020049125
49.58305652731856 0.009890396668738399 3.398999794521448
49.582888576752076 0.008136884602400614 3.4015940480866007
49.5826315327617 0.006562978987605382 3.4057012307684085
49.58228606614934 0.005190917405432427 3.4115538425306755
49.58183704606825 0.0040227145505473795 3.4195297878780773
49.58097943295439 0.0023331399513903386 3.4312622582515893
49.58018847696409 0.0011063390539911729 3.4443640635468307
49.57920679945854 -0.00016056381839362984 3.4607691095017628
49.57795223671068 -0.0012629796197387675 3.4814689308857525
49.57643120814825 -0.0021083441727462677 3.5067067314809157
49.57470721035562 -0.0024141389215026825 3.5354138102097696
49.573178736396976 -0.0020352039045900576 3.5636063338294264
49.57176928962099 -0.001567182452393491 3.583123109563431
49.571241114200134 -0.0006758318929742904 3.5879380043095876
49.57142404545694 6.573828955161433e-5 3.5816373949214038
49.57151987519846 0.0002343285501179181 3.5811838848778437
49.571246623205965 0.0010500343332936156 3.5876826965508757
49.571670872332135 0.002058626477358968 3.583099757372072
49.572971069169746 0.0026850932327786054 3.5637242018412594
49.57481126719112 0.0023376439003484286 3.5353826777256834
49.576532873215356 0.0021479702622667924 3.5064353825532706
49.57805020903198 0.0013814362343184988 3.4809743196142438
49.57930012646402 0.0003231060791596578 3.4600663607910542
49.580276551137764 -0.0009323585024947626 3.4434643414708335
49.58106172719886 -0.0021783282473760604 3.4301747967649687
49.58190940908427 -0.0035714390271434308 3.418791609804933
49.582343116931185 -0.0047021929421197034 3.410886787061555
49.58267099625738 -0.0060570005462279005 3.405137345782318
49.582908148145314 -0.0076325483555516665 3.4011655003263974
49.583053923807604 -0.009405238825770549 3.398738680868822
49.58278774625993 -0.006773593776540314 3.3919549115663226
49.58274800726407 -0.007450231847955871 3.390311965377851
49.58281565775386 -0.008546335013616 3.38946953258121
49.58283393374232 -0.009589259000581952 3.3900753162520685
49.582804098465424 -0.010586768585145815 3.3920738290573715
49.58272209756728 -0.011541274040916904 3.395398415483298
49.58271047862556 -0.011821733299666671 3.398856502840269
49.58224672059481 -0.012778952393768209 3.411838009183316
49.58210856384984 -0.014866808105889409 3.4187468893804853
49.5818511679475 -0.01643026469286078 3.4279637020590763
49.58147897647527 -0.017504521989355225 3.4393900354571736
49.5809924864509 -0.018119816648272665 3.4529045976533963
49.58038976885886 -0.01829611183131995 3.468348616043505
49.579672398300346 -0.018040941412896742 3.485486821093309
49.57885388750273 -0.017353102450013532 3.5039332539071366
49.577849431338706 -0.0257907282224874 3.5322616135355824
49.576773853097386 -0.02630978074376108 3.554209161197576
49.575491684108584 -0.027514269416222294 3.5812801172886517
49.57399891292155 -0.02863536659940494 3.611496470350599
49.572303723611654 -0.02967180974046598 3.644662829180262
49.57041223752068 -0.03062122245296539 3.680557544088109
49.56832922176157 -0.03147845105557111 3.718937822817442
49.566059483303995 -0.03223452728897464 3.7595437850631046
49.56360955196095 -0.0328763619129226 3.8020993214195853
49.560989414844386 -0.03338716815895569 3.846307719191139
49.558214257984254 -0.03374771186221454 3.8918404023166824
49.55530620730545 -0.03393857111871414 3.9383189046887086
49.5522958880674 -0.03394343624611201 3.985293676266513
49.548512925851966 -0.037429214483861516 4.045755440784046
49.545167147690314 -0.036271815315198554 4.095225357972589
49.541848506794324 -0.03511363650507773 4.14370812494246
49.53907278559123 -0.03498150634462448 4.18914812368018
49.536042571287716 -0.03427684463306843 4.232723428963156
49.53325359296495 -0.033482451282862966 4.272473257257715
49.53076498825978 -0.0326593310783847 4.307684746692453

VECTORS L float
-0.006649364762034278 0.0 0.09054711887522666
-0.011996883155332717 0.0 0.16336646342526454
-0.017726279303180215 0.0 0.24138599350796971
-0.02403010046579819 0.0 0.32722770389792777
-0.03095048665978062 0.0 0.421465432432059
-0.038488698677176754 0.0 0.5241163478312331
-0.04662930518237172 0.0 0.6349703152885431
-0.055346057461456405 0.0 0.7536698953336474
-0.0646142025427744 0.0 0.8798780166300652
-0.07439857063980519 0.0 1.013115757813898
-0.08465740074522725 0.0 1.152814442172465
-0.09534578869082315 0.0 1.2983625912859342
-0.10641564672570865 0.0 1.449105374587539
-0.11781648629691789 0.0 1.6043552688068854
-0.12949640172704352 0.0 1.7634054531106
-0.14140323206611932 0.0 1.9255456305144965
-0.15348574808675838 0.0 2.0900781916817275
-0.1656946747611349 0.0 2.256332138409939
-0.1779833771854085 0.0 2.4236724241446277
-0.19030843446801143 0.0 2.591507768850609
-0.2026153800827318 0.0 2.759096479569212
-0.21489080563999696 0.0 2.926255968776965
-0.22709288064382907 0.0 3.0924166135057405
-0.23919093224045507 0.0 3.2571607289636493
-0.25115950110837004 0.0 3.4201416251594963
-0.2629764802255243 0.0 3.581058261734519
-0.2746218039704687 0.0 3.739637396916657
-0.2860748502557247 0.0 3.8955982113083896
-0.29733088543980674 0.0 4.04887624497803
-0.3083571329515091 0.0 4.199025165953203
-0.31915254079888694 0.0 4.346030648829439
-0.3297029078802974 0.0 4.489699311398867
-0.33999332148583455 0.0 4.629828081192925
-0.3500074170768855 0.0 4.766194115597896
-0.3597259026472073 0.0 4.898534707476313
-0.36913686904467863 0.0 5.026687685034112
-0.378175513699715 0.0 5.149770605183635
-0.38683240695486326 0.0 5.267655060423573
-0.39508164521469485 0.0 5.379988310903056
-0.40288928161063453 0.0 5.486308088231892
-0.4101806682819203 0.0 5.585597881966741
-0.4169381691065175 0.0 5.6776175338224855
-0.4230767564316132 0.0 5.76120918748315
-0.4285167307308857 0.0 5.835287541909852
-0.43315563973894944 0.0 5.898457462712332
-0.4368686633759383 0.0 5.949019223824398
-0.4395209354703797 0.0 5.985136297442623
-0.44101703404648274 0.0 6.00550928350483
-0.4413838135182999 0.0 6.010503869547884
-0.43957397944489107 0.0 5.98585861893311
-0.4395624608728867 0.0 5.985701765828207
-0.44136874513391666 0.0 6.010298677196308
-0.44099999025267 0.0 6.005277191195314
-0.4395004372099819 0.0 5.984857164249093
-0.4368409240861796 0.0 5.948641486573218
-0.433118937539154 0.0 5.89795767385027
-0.42847101681246347 0.0 5.834665036790375
-0.4230229740417155 0.0 5.760476810688412
-0.4168780704692509 0.0 5.676799146104624
-0.41011692768636177 0.0 5.584729900213632
-0.4028370228737814 0.0 5.485596459643681
-0.39503128271503607 0.0 5.379302504152087
-0.38678522355164835 0.0 5.267012544728806
-0.37813248574642677 0.0 5.149184675949673
-0.3690985480159546 0.0 5.026165851916593
-0.3596923003774272 0.0 4.898077131628824
-0.34997685411749285 0.0 4.765777927282721
-0.3399651114908815 0.0 4.629443934156645