# vtk DataFile Version 4.0
[MyVLM domain - lattices] 
ASCII
DATASET UNSTRUCTURED_GRID
POINTS 302 float
1.2444999999999997 -1.2445 0.0
1.2399745454545452 -1.2399745454545454 0.0
1.2346178849721705 -1.2346178849721707 0.0
1.2284300185528754 -1.2284300185528756 0.0
1.2214109461966602 -1.2214109461966605 0.0
1.2135606679035247 -1.213560667903525 0.0
1.2048791836734691 -1.2048791836734694 0.0
1.1953664935064932 -1.1953664935064934 0.0
1.1850225974025972 -1.1850225974025974 0.0
1.1738474953617808 -1.173847495361781 0.0
1.1618411873840442 -1.1618411873840444 0.0
1.1490036734693874 -1.1490036734693876 0.0
1.1353349536178106 -1.1353349536178108 0.0
1.1208350278293133 -1.1208350278293135 0.0
1.1055038961038959 -1.105503896103896 0.0
1.0893415584415582 -1.0893415584415584 0.0
1.0723480148423004 -1.0723480148423006 0.0
1.054523265306122 -1.0545232653061223 0.0
1.0358673098330238 -1.035867309833024 0.0
1.0163801484230053 -1.0163801484230055 0.0
0.9960617810760664 -0.9960617810760668 0.0
0.9749122077922076 -0.9749122077922077 0.0
0.9529314285714284 -0.9529314285714284 0.0
0.9301194434137288 -0.930119443413729 0.0
0.9064762523191091 -0.9064762523191096 0.0
0.8820018552875695 -0.8820018552875695 0.0
0.8566962523191093 -0.8566962523191094 0.0
0.8305594434137288 -0.8305594434137291 0.0
0.8035914285714284 -0.8035914285714285 0.0
0.7757922077922076 -0.7757922077922077 0.0
0.7471617810760666 -0.7471617810760667 0.0
0.7177001484230053 -0.7177001484230054 0.0
0.6874073098330239 -0.687407309833024 0.0
0.6562832653061222 -0.6562832653061225 0.0
0.6243280148423004 -0.6243280148423005 0.0
0.5915415584415582 -0.5915415584415583 0.0
0.5579238961038958 -0.5579238961038959 0.0
0.5234750278293133 -0.5234750278293134 0.0
0.48819495361781057 -0.48819495361781057 0.0
0.4520836734693877 -0.4520836734693877 0.0
0.4151411873840445 -0.4151411873840446 0.0
0.37736749536178105 -0.37736749536178116 0.0
0.3387625974025974 -0.3387625974025974 0.0
0.2993264935064933 -0.29932649350649343 0.0
0.25905918367346925 -0.25905918367346925 0.0
0.21796066790352486 -0.21796066790352486 0.0
0.17603094619666027 -0.1760309461966605 0.0
0.13327001855287546 -0.13327001855287568 0.0
0.08967788497217066 -0.08967788497217066 0.0
0.045254545454545436 -0.045254545454545436 0.0
0.0 0.0 0.0
0.04525454545454545 0.04525454545454546 0.0
0.08967788497217066 0.08967788497217068 0.0
0.13327001855287568 0.1332700185528757 0.0
0.17603094619666046 0.1760309461966605 0.0
0.21796066790352497 0.21796066790352508 0.0
0.2590591836734693 0.25905918367346936 0.0
0.29932649350649343 0.2993264935064935 0.0
0.3387625974025973 0.33876259740259734 0.0
0.37736749536178094 0.377367495361781 0.0
0.41514118738404443 0.4151411873840445 0.0
0.45208367346938766 0.4520836734693878 0.0
0.48819495361781057 0.4881949536178107 0.0
0.5234750278293133 0.5234750278293134 0.0
0.5579238961038959 0.557923896103896 0.0
0.5915415584415582 0.5915415584415583 0.0
0.6243280148423003 0.6243280148423004 0.0
0.6562832653061222 0.6562832653061225 0.0
0.687407309833024 0.6874073098330241 0.0
0.7177001484230054 0.7177001484230056 0.0
0.7471617810760667 0.7471617810760669 0.0
0.7757922077922076 0.7757922077922077 0.0
0.8035914285714284 0.8035914285714285 0.0
0.8305594434137288 0.830559443413729 0.0
0.8566962523191093 0.8566962523191094 0.0
0.8820018552875692 0.8820018552875695 0.0
0.9064762523191091 0.9064762523191093 0.0
0.9301194434137288 0.9301194434137292 0.0
0.9529314285714284 0.9529314285714284 0.0
0.9749122077922076 0.9749122077922077 0.0
0.9960617810760666 0.9960617810760668 0.0
1.0163801484230053 1.0163801484230055 0.0
1.0358673098330238 1.035867309833024 0.0
1.054523265306122 1.0545232653061223 0.0
1.0723480148423001 1.0723480148423004 0.0
1.0893415584415582 1.0893415584415584 0.0
1.1055038961038959 1.105503896103896 0.0
1.120835027829313 1.1208350278293133 0.0
1.1353349536178106 1.1353349536178106 0.0
1.1490036734693874 1.1490036734693876 0.0
1.1618411873840444 1.1618411873840446 0.0
1.1738474953617808 1.173847495361781 0.0
1.1850225974025972 1.1850225974025972 0.0
1.1953664935064932 1.1953664935064934 0.0
1.2048791836734691 1.2048791836734694 0.0
1.2135606679035245 1.2135606679035247 0.0
1.22141094619666 1.2214109461966602 0.0
1.2284300185528754 1.2284300185528756 0.0
1.2346178849721703 1.2346178849721705 0.0
1.2399745454545452 1.2399745454545454 0.0
1.2444999999999997 1.2445 0.0
1.7422999999999997 -1.2445 0.0
1.7377745454545452 -1.2399745454545454 0.0
1.7324178849721703 -1.2346178849721707 0.0
1.7262300185528754 -1.2284300185528756 0.0
1.7192109461966603 -1.2214109461966605 0.0
1.7113606679035245 -1.213560667903525 0.0
1.7026791836734692 -1.2048791836734694 0.0
1.6931664935064934 -1.1953664935064934 0.0
1.6828225974025972 -1.1850225974025974 0.0
1.6716474953617806 -1.173847495361781 0.0
1.6596411873840444 -1.1618411873840444 0.0
1.6468036734693878 -1.1490036734693876 0.0
1.6331349536178106 -1.1353349536178108 0.0
1.6186350278293133 -1.1208350278293135 0.0
1.603303896103896 -1.105503896103896 0.0
1.5871415584415582 -1.0893415584415584 0.0
1.5701480148423004 -1.0723480148423006 0.0
1.552323265306122 -1.0545232653061223 0.0
1.5336673098330238 -1.035867309833024 0.0
1.5141801484230053 -1.0163801484230055 0.0
1.4938617810760666 -0.9960617810760668 0.0
1.4727122077922075 -0.9749122077922077 0.0
1.4507314285714283 -0.9529314285714284 0.0
1.4279194434137288 -0.930119443413729 0.0
1.4042762523191092 -0.9064762523191096 0.0
1.3798018552875693 -0.8820018552875695 0.0
1.3544962523191093 -0.8566962523191094 0.0
1.328359443413729 -0.8305594434137291 0.0
1.3013914285714283 -0.8035914285714285 0.0
1.2735922077922077 -0.7757922077922077 0.0
1.2449617810760665 -0.7471617810760667 0.0
1.2155001484230055 -0.7177001484230054 0.0
1.1852073098330238 -0.687407309833024 0.0
1.1540832653061224 -0.6562832653061225 0.0
1.1221280148423003 -0.6243280148423005 0.0
1.0893415584415582 -0.5915415584415583 0.0
1.055723896103896 -0.5579238961038959 0.0
1.0212750278293132 -0.5234750278293134 0.0
0.9859949536178108 -0.48819495361781057 0.0
0.9498836734693876 -0.4520836734693877 0.0
0.9129411873840445 -0.4151411873840446 0.0
0.875167495361781 -0.37736749536178116 0.0
0.8365625974025973 -0.3387625974025974 0.0
0.7971264935064933 -0.29932649350649343 0.0
0.7568591836734693 -0.25905918367346925 0.0
0.7157606679035249 -0.21796066790352486 0.0
0.6738309461966603 -0.1760309461966605 0.0
0.6310700185528755 -0.13327001855287568 0.0
0.5874778849721707 -0.08967788497217066 0.0
0.5430545454545455 -0.045254545454545436 0.0
0.4978 0.0 0.0
0.5430545454545455 0.04525454545454546 0.0
0.5874778849721707 0.08967788497217068 0.0
0.6310700185528757 0.1332700185528757 0.0
0.6738309461966605 0.1760309461966605 0.0
0.715760667903525 0.21796066790352508 0.0
0.7568591836734693 0.25905918367346936 0.0
0.7971264935064934 0.2993264935064935 0.0
0.8365625974025973 0.33876259740259734 0.0
0.875167495361781 0.377367495361781 0.0
0.9129411873840445 0.4151411873840445 0.0
0.9498836734693876 0.4520836734693878 0.0
0.9859949536178105 0.4881949536178107 0.0
1.0212750278293132 0.5234750278293134 0.0
1.055723896103896 0.557923896103896 0.0
1.0893415584415582 0.5915415584415583 0.0
1.1221280148423003 0.6243280148423004 0.0
1.1540832653061224 0.6562832653061225 0.0
1.185207309833024 0.6874073098330241 0.0
1.2155001484230055 0.7177001484230056 0.0
1.2449617810760667 0.7471617810760669 0.0
1.2735922077922077 0.7757922077922077 0.0
1.3013914285714283 0.8035914285714285 0.0
1.3283594434137287 0.830559443413729 0.0
1.3544962523191093 0.8566962523191094 0.0
1.3798018552875693 0.8820018552875695 0.0
1.4042762523191092 0.9064762523191093 0.0
1.427919443413729 0.9301194434137292 0.0
1.4507314285714283 0.9529314285714284 0.0
1.4727122077922075 0.9749122077922077 0.0
1.4938617810760666 0.9960617810760668 0.0
1.5141801484230053 1.0163801484230055 0.0
1.5336673098330238 1.035867309833024 0.0
1.552323265306122 1.0545232653061223 0.0
1.5701480148423002 1.0723480148423004 0.0
1.5871415584415582 1.0893415584415584 0.0
1.603303896103896 1.105503896103896 0.0
1.6186350278293131 1.1208350278293133 0.0
1.6331349536178106 1.1353349536178106 0.0
1.6468036734693874 1.1490036734693876 0.0
1.6596411873840444 1.1618411873840446 0.0
1.6716474953617806 1.173847495361781 0.0
1.6828225974025972 1.1850225974025972 0.0
1.6931664935064934 1.1953664935064934 0.0
1.7026791836734692 1.2048791836734694 0.0
1.7113606679035245 1.2135606679035247 0.0
1.71921094619666 1.2214109461966602 0.0
1.7262300185528754 1.2284300185528756 0.0
1.7324178849721703 1.2346178849721705 0.0
1.7377745454545452 1.2399745454545454 0.0
1.7422999999999997 1.2445 0.0
1.6155872727272724 -1.2422372727272726 0.0
1.6106462152133578 -1.237296215213358 0.0
1.604873951762523 -1.2315239517625232 0.0
1.598270482374768 -1.224920482374768 0.0
1.5908358070500925 -1.2174858070500927 0.0
1.582569925788497 -1.2092199257884972 0.0
1.5734728385899812 -1.2001228385899814 0.0
1.5635445454545454 -1.1901945454545453 0.0
1.552785046382189 -1.1794350463821892 0.0
1.5411943413729126 -1.1678443413729127 0.0
1.5287724304267158 -1.155422430426716 0.0
1.5155193135435991 -1.142169313543599 0.0
1.501434990723562 -1.1280849907235622 0.0
1.4865194619666047 -1.1131694619666048 0.0
1.4707727272727271 -1.0974227272727273 0.0
1.4541947866419294 -1.0808447866419293 0.0
1.4367856400742112 -1.0634356400742113 0.0
1.418545287569573 -1.0451952875695731 0.0
1.3994737291280146 -1.0261237291280147 0.0
1.379570964749536 -1.0062209647495362 0.0
1.358836994434137 -0.9854869944341371 0.0
1.337271818181818 -0.9639218181818181 0.0
1.3148754359925787 -0.9415254359925787 0.0
1.291647847866419 -0.9182978478664192 0.0
1.2675890538033394 -0.8942390538033393 0.0
1.2426990538033393 -0.8693490538033395 0.0
1.2169778478664193 -0.8436278478664192 0.0
1.1904254359925788 -0.8170754359925788 0.0
1.163041818181818 -0.7896918181818181 0.0
1.1348269944341371 -0.7614769944341371 0.0
1.105780964749536 -0.7324309647495362 0.0
1.0759037291280147 -0.7025537291280148 0.0
1.0451952875695731 -0.6718452875695733 0.0
1.0136556400742114 -0.6403056400742114 0.0
0.9812847866419293 -0.6079347866419293 0.0
0.9480827272727271 -0.5747327272727272 0.0
0.9140494619666047 -0.5406994619666048 0.0
0.8791849907235622 -0.5058349907235622 0.0
0.8434893135435992 -0.47013931354359917 0.0
0.8069624304267162 -0.43361243042671627 0.0
0.7696043413729128 -0.3962543413729128 0.0
0.7314150463821893 -0.3580650463821894 0.0
0.6923945454545455 -0.3190445454545454 0.0
0.6525428385899814 -0.27919283858998134 0.0
0.6118599257884971 -0.23850992578849706 0.0
0.5703458070500929 -0.19699580705009279 0.0
0.5280004823747682 -0.15465048237476808 0.0
0.4848239517625232 -0.11147395176252317 0.0
0.4408162152133581 -0.06746621521335805 0.0
0.39597727272727273 -0.022627272727272718 0.0
0.39597727272727273 0.02262727272727273 0.0
0.4408162152133581 0.06746621521335806 0.0
0.4848239517625232 0.11147395176252319 0.0
0.528000482374768 0.15465048237476808 0.0
0.5703458070500929 0.19699580705009276 0.0
0.6118599257884971 0.23850992578849717 0.0
0.6525428385899814 0.2791928385899814 0.0
0.6923945454545455 0.3190445454545454 0.0
0.7314150463821891 0.3580650463821891 0.0
0.7696043413729128 0.39625434137291277 0.0
0.8069624304267162 0.43361243042671616 0.0
0.8434893135435992 0.4701393135435992 0.0
0.8791849907235619 0.5058349907235621 0.0
0.9140494619666046 0.5406994619666047 0.0
0.9480827272727271 0.5747327272727272 0.0
0.9812847866419294 0.6079347866419295 0.0
1.0136556400742114 0.6403056400742114 0.0
1.0451952875695731 0.6718452875695732 0.0
1.0759037291280147 0.7025537291280147 0.0
1.105780964749536 0.7324309647495362 0.0
1.1348269944341371 0.7614769944341373 0.0
1.163041818181818 0.789691818181818 0.0
1.1904254359925786 0.8170754359925786 0.0
1.216977847866419 0.843627847866419 0.0
1.2426990538033393 0.8693490538033394 0.0
1.2675890538033392 0.8942390538033393 0.0
1.291647847866419 0.9182978478664192 0.0
1.3148754359925787 0.9415254359925787 0.0
1.3372718181818182 0.9639218181818181 0.0
1.3588369944341372 0.9854869944341373 0.0
1.379570964749536 1.0062209647495362 0.0
1.3994737291280148 1.0261237291280147 0.0
1.418545287569573 1.0451952875695731 0.0
1.4367856400742112 1.0634356400742113 0.0
1.4541947866419291 1.0808447866419293 0.0
1.470772727272727 1.097422727272727 0.0
1.4865194619666047 1.1131694619666048 0.0
1.501434990723562 1.128084990723562 0.0
1.5155193135435991 1.1421693135435993 0.0
1.528772430426716 1.1554224304267162 0.0
1.5411943413729128 1.1678443413729127 0.0
1.5527850463821888 1.179435046382189 0.0
1.5635445454545451 1.1901945454545453 0.0
1.573472838589981 1.2001228385899811 0.0
1.5825699257884969 1.209219925788497 0.0
1.5908358070500925 1.2174858070500927 0.0
1.5982704823747678 1.224920482374768 0.0
1.604873951762523 1.2315239517625232 0.0
1.6106462152133578 1.237296215213358 0.0
1.6155872727272724 1.2422372727272726 0.0

CELLS 200 700
4 0 101 102 1
4 1 102 103 2
4 2 103 104 3
4 3 104 105 4
4 4 105 106 5
4 5 106 107 6
4 6 107 108 7
4 7 108 109 8
4 8 109 110 9
4 9 110 111 10
4 10 111 112 11
4 11 112 113 12
4 12 113 114 13
4 13 114 115 14
4 14 115 116 15
4 15 116 117 16
4 16 117 118 17
4 17 118 119 18
4 18 119 120 19
4 19 120 121 20
4 20 121 122 21
4 21 122 123 22
4 22 123 124 23
4 23 124 125 24
4 24 125 126 25
4 25 126 127 26
4 26 127 128 27
4 27 128 129 28
4 28 129 130 29
4 29 130 131 30
4 30 131 132 31
4 31 132 133 32
4 32 133 134 33
4 33 134 135 34
4 34 135 136 35
4 35 136 137 36
4 36 137 138 37
4 37 138 139 38
4 38 139 140 39
4 39 140 141 40
4 40 141 142 41
4 41 142 143 42
4 42 143 144 43
4 43 144 145 44
4 44 145 146 45
4 45 146 147 46
4 46 147 148 47
4 47 148 149 48
4 48 149 150 49
4 49 150 151 50
4 50 151 152 51
4 51 152 153 52
4 52 153 154 53
4 53 154 155 54
4 54 155 156 55
4 55 156 157 56
4 56 157 158 57
4 57 158 159 58
4 58 159 160 59
4 59 160 161 60
4 60 161 162 61
4 61 162 163 62
4 62 163 164 63
4 63 164 165 64
4 64 165 166 65
4 65 166 167 66
4 66 167 168 67
4 67 168 169 68
4 68 169 170 69
4 69 170 171 70
4 70 171 172 71
4 71 172 173 72
4 72 173 174 73
4 73 174 175 74
4 74 175 176 75
4 75 176 177 76
4 76 177 178 77
4 77 178 179 78
4 78 179 180 79
4 79 180 181 80
4 80 181 182 81
4 81 182 183 82
4 82 183 184 83
4 83 184 185 84
4 84 185 186 85
4 85 186 187 86
4 86 187 188 87
4 87 188 189 88
4 88 189 190 89
4 89 190 191 90
4 90 191 192 91
4 91 192 193 92
4 92 193 194 93
4 93 194 195 94
4 94 195 196 95
4 95 196 197 96
4 96 197 198 97
4 97 198 199 98
4 98 199 200 99
4 99 200 201 100
1 202
1 203
1 204
1 205
1 206
1 207
1 208
1 209
1 210
1 211
1 212
1 213
1 214
1 215
1 216
1 217
1 218
1 219
1 220
1 221
1 222
1 223
1 224
1 225
1 226
1 227
1 228
1 229
1 230
1 231
1 232
1 233
1 234
1 235
1 236
1 237
1 238
1 239
1 240
1 241
1 242
1 243
1 244
1 245
1 246
1 247
1 248
1 249
1 250
1 251
1 252
1 253
1 254
1 255
1 256
1 257
1 258
1 259
1 260
1 261
1 262
1 263
1 264
1 265
1 266
1 267
1 268
1 269
1 270
1 271
1 272
1 273
1 274
1 275
1 276
1 277
1 278
1 279
1 280
1 281
1 282
1 283
1 284
1 285
1 286
1 287
1 288
1 289
1 290
1 291
1 292
1 293
1 294
1 295
1 296
1 297
1 298
1 299
1 300
1 301

CELL_TYPES 200
9
9
9
9
9
9
9
9
9
9
9
9
9
9
9
9
9
9
9
9
9
9
9
9
9
9
9
9
9
9
9
9
9
9
9
9
9
9
9
9
9
9
9
9
9
9
9
9
9
9
9
9
9
9
9
9
9
9
9
9
9
9
9
9
9
9
9
9
9
9
9
9
9
9
9
9
9
9
9
9
9
9
9
9
9
9
9
9
9
9
9
9
9
9
9
9
9
9
9
9
1
1
1
1
1
1
1
1
1
1
1
1
1
1
1
1
1
1
1
1
1
1
1
1
1
1
1
1
1
1
1
1
1
1
1
1
1
1
1
1
1
1
1
1
1
1
1
1
1
1
1
1
1
1
1
1
1
1
1
1
1
1
1
1
1
1
1
1
1
1
1
1
1
1
1
1
1
1
1
1
1
1
1
1
1
1
1
1
1
1
1
1
1
1
1
1
1
1
1
1

CELL_DATA 200

VECTORS Vinf float
49.5302589811156 0.02871462977620859 4.316253860035568
49.53273971484025 0.029660044706628322 4.280843912454298
49.535516084000015 0.030593744920634432 4.240860894168828
49.53852778800198 0.03145321078680617 4.1970122373696
49.54170794142041 0.03218027566021035 4.150090927197051
49.54498688182329 0.03272585938019621 4.100930407872988
49.548056653439126 0.033799970873760105 4.055109379605731
49.552722300975496 0.02879638080958619 3.983110433642461
49.55546132638326 0.029594117048266488 3.939092732375102
49.558134855255844 0.03018827834028716 3.895065690239215
49.56071191874745 0.030571028819973433 3.851512944193569
49.56316915672924 0.030736053547128526 3.8088581013167295
49.56548963764841 0.030675501749075542 3.7674750250970406
49.5676613439574 0.030378037984188134 3.727696996358913
49.56967564725562 0.02982807276160309 3.6898217009295036
49.57152598165476 0.02900595507578516 3.654111978804464
49.5732068571227 0.0278887731935134 3.6207938389228094
49.574713265398586 0.026451348871115412 3.590053740772326
49.576040372584124 0.024667024234739484 3.562037462351239
49.57718327868228 0.02250801988168401 3.536853006924091
49.57813675306441 0.019945468806634586 3.514578984156024
49.57916156481988 0.02173876769820911 3.494001984311013
49.57971160675284 0.01619608950816558 3.4723886303878344
49.58028677151708 0.01624166747438698 3.4586423362023755
49.58077711223151 0.015973793136431953 3.4460313504175404
49.58118578341585 0.015391475616031302 3.434715172119576
49.5815201020725 0.014483801712190065 3.4247834293358923
49.58178640775038 0.013230332628916482 3.416288087111839
49.58198685426989 0.01160441019807451 3.4092714077520325
49.582119228828034 0.009577408195347501 3.4037830026296008
49.582179143597195 0.007121678345310871 3.399880562872943
49.58256053492771 0.01577896707621063 3.4017105114666597
49.582560341989925 0.013526119475595543 3.3995720487407284
49.58250772891061 0.011484264882466635 3.398943757533804
49.582410241450795 0.009676330207998346 3.3997929990803386
49.582276263273855 0.008119069937739708 3.4020922577190316
49.58210655173458 0.006820371796098639 3.405878256300056
49.5818844592246 0.005784438715129638 3.411289030825808
49.581477693226255 0.004631795028187216 3.4177453484724105
49.581084837652725 0.003299567067072131 3.426443277532599
49.58054132301689 0.0019580524969740796 3.437245516265468
49.57981721096917 0.0006402342287641392 3.450724302884709
49.57888224753782 -0.0006192485165839297 3.4675626038354745
49.57769864285065 -0.0017726792680489603 3.4884176720151845
49.576485249046264 -0.0011546089494807695 3.514050893796986
49.57468442775379 -0.0019212255217154694 3.5428030420646484
49.57285140995989 -0.0021402654752474405 3.570745097574683
49.57148108084433 -0.0016700931392190255 3.5898682459094164
49.5710078473013 -0.0007604833882942154 3.5941884810080182
49.57125247967375 -8.586739491254244e-7 3.587415456103365
49.57125282441411 -8.809707036535244e-6 3.5874251955704266
49.57100838714911 0.0007516818004062565 3.5941917934458387
49.57148174156539 0.0016621444984908425 3.58986634978781
49.57285215359424 0.002133198104909267 3.5707389604471906
49.574685273747775 0.001915072292448542 3.542793470461289
49.57648625622669 0.0011493674839463694 3.5140386038983795
49.577699996564654 0.001728919106790069 3.4883820452707206
49.57888422863443 0.0005773892499335281 3.4675182850609962
49.57981981004667 -0.0006800284922179018 3.450672386960495
49.58054452696182 -0.001995628010538444 3.437186985583633
49.58108863911649 -0.0033347836259061394 3.426378979415935
49.58148209024707 -0.004664532905033637 3.4176759995788477
49.58188827023655 -0.0057984898870484846 3.411254910815253
49.58211095355451 -0.006835874542285507 3.405838255359391
49.582281228477775 -0.008135757915965686 3.4020467464237556
49.58241573082948 -0.009693946113688534 3.399742414514542
49.582513699696065 -0.011502555636151102 3.398888594863471
49.58256675620447 -0.01354483957495637 3.3995128122857277
49.5825673623129 -0.015797885039705237 3.4016476501616473
49.582184104949306 -0.007138931768248635 3.399867310394374
49.58212468738986 -0.009593678307789793 3.4037572720704063
49.581992834712075 -0.011619718561717056 3.4092339265674756
49.5817929316082 -0.013244704822816313 3.416239591275057
49.581527187468126 -0.014497268197158752 3.4247246402239724
49.58119344455007 -0.01540407187672695 3.434646763616778
49.58078535837679 -0.015985558372278694 3.4459539345066057
49.58029560576479 -0.016252642549117645 3.45855647901838
49.579721025198296 -0.01620631531373134 3.472294888089039
49.57917290747415 -0.021746799004800265 3.4939173578829936
49.5781485883679 -0.019959448514569683 3.514494018728238
49.57719554061668 -0.022520694184290046 3.5367644421331494
49.576053035617285 -0.024678546690368126 3.561945427936848
49.574726302370436 -0.02646183983290263 3.58995840212895
49.57322024322118 -0.027898323897121727 3.6206953666639037
49.57153969810512 -0.029014634908136015 3.654010539551064
49.56968968371343 -0.029835937781913086 3.6897174628682974
49.56767569904446 -0.03038513887546121 3.727590137700761
49.56550431777382 -0.030681890046468072 3.7673657362408757
49.56318417380054 -0.03074178566160696 3.808746577924476
49.560727287453254 -0.030576167848618666 3.851399373739224
49.55815059042816 -0.030192893945228515 3.89495023701956
49.55547744071414 -0.029598283844986025 3.938975525918265
49.55273880318233 -0.02880017576683739 3.9829915639581643
49.548073386606475 -0.033805970348687965 4.055001957319552
49.5450023282728 -0.032777213399271414 4.100806993285903
49.54172369821052 -0.03223059471450641 4.149970473076455
49.53854385833238 -0.03150265903306014 4.1968940934544445
49.53553246103931 -0.03064247129268448 4.240744490932937
49.53275638214414 -0.02970818236925778 4.28072877014268
49.53027591342732 -0.028762296412259636 4.316139591409647
49.5302589811156 0.02871462977620859 4.316253860035568
49.53273971484025 0.029660044706628322 4.280843912454298
49.535516084000015 0.030593744920634432 4.240860894168828
49.53852778800198 0.03145321078680617 4.1970122373696
49.54170794142041 0.03218027566021035 4.150090927197051
49.54498688182329 0.03272585938019621 4.100930407872988
49.548056653439126 0.033799970873760105 4.055109379605731
49.552722300975496 0.02879638080958619 3.983110433642461
49.55546132638326 0.029594117048266488 3.939092732375102
49.558134855255844 0.03018827834028716 3.895065690239215
49.56071191874745 0.030571028819973433 3.851512944193569
49.56316915672924 0.030736053547128526 3.8088581013167295
49.56548963764841 0.030675501749075542 3.7674750250970406
49.5676613439574 0.030378037984188134 3.727696996358913
49.56967564725562 0.02982807276160309 3.6898217009295036
49.57152598165476 0.02900595507578516 3.654111978804464
49.5732068571227 0.0278887731935134 3.6207938389228094
49.574713265398586 0.026451348871115412 3.590053740772326
49.576040372584124 0.024667024234739484 3.562037462351239
49.57718327868228 0.02250801988168401 3.536853006924091
49.57813675306441 0.019945468806634586 3.514578984156024
49.57916156481988 0.02173876769820911 3.494001984311013
49.57971160675284 0.01619608950816558 3.4723886303878344
49.58028677151708 0.01624166747438698 3.4586423362023755
49.58077711223151 0.015973793136431953 3.4460313504175404
49.58118578341585 0.015391475616031302 3.434715172119576
49.5815201020725 0.014483801712190065 3.4247834293358923
49.58178640775038 0.013230332628916482 3.416288087111839
49.58198685426989 0.01160441019807451 3.4092714077520325
49.582119228828034 0.009577408195347501 3.4037830026296008
49.582179143597195 0.007121678345310871 3.399880562872943
49.58256053492771 0.01577896707621063 3.4017105114666597
49.582560341989925 0.013526119475595543 3.3995720487407284
49.58250772891061 0.011484264882466635 3.398943757533804
49.582410241450795 0.009676330207998346 3.3997929990803386
49.582276263273855 0.008119069937739708 3.4020922577190316
49.58210655173458 0.006820371796098639 3.405878256300056
49.5818844592246 0.005784438715129638 3.411289030825808
49.581477693226255 0.004631795028187216 3.4177453484724105
49.581084837652725 0.003299567067072131 3.426443277532599
49.58054132301689 0.0019580524969740796 3.437245516265468
49.57981721096917 0.0006402342287641392 3.450724302884709
49.57888224753782 -0.0006192485165839297 3.4675626038354745
49.57769864285065 -0.0017726792680489603 3.4884176720151845
49.576485249046264 -0.0011546089494807695 3.514050893796986
49.57468442775379 -0.0019212255217154694 3.5428030420646484
49.57285140995989 -0.0021402654752474405 3.570745097574683
49.57148108084433 -0.0016700931392190255 3.5898682459094164
49.5710078473013 -0.0007604833882942154 3.5941884810080182
49.57125247967375 -8.586739491254244e-7 3.587415456103365
49.57125282441411 -8.809707036535244e-6 3.5874251955704266
49.57100838714911 0.0007516818004062565 3.5941917934458387
49.57148174156539 0.0016621444984908425 3.58986634978781
49.57285215359424 0.002133198104909267 3.5707389604471906
49.574685273747775 0.001915072292448542 3.542793470461289
49.57648625622669 0.0011493674839463694 3.5140386038983795
49.577699996564654 0.001728919106790069 3.4883820452707206
49.57888422863443 0.0005773892499335281 3.4675182850609962
49.57981981004667 -0.0006800284922179018 3.450672386960495
49.58054452696182 -0.001995628010538444 3.437186985583633
49.58108863911649 -0.0033347836259061394 3.426378979415935
49.58148209024707 -0.004664532905033637 3.4176759995788477
49.58188827023655 -0.0057984898870484846 3.411254910815253
49.58211095355451 -0.006835874542285507 3.405838255359391
49.582281228477775 -0.008135757915965686 3.4020467464237556
49.58241573082948 -0.009693946113688534 3.399742414514542
49.582513699696065 -0.011502555636151102 3.398888594863471
49.58256675620447 -0.01354483957495637 3.3995128122857277
49.5825673623129 -0.015797885039705237 3.4016476501616473
49.582184104949306 -0.007138931768248635 3.399867310394374
49.58212468738986 -0.009593678307789793 3.4037572720704063
49.581992834712075 -0.011619718561717056 3.4092339265674756
49.5817929316082 -0.013244704822816313 3.416239591275057
49.581527187468126 -0.014497268197158752 3.4247246402239724
49.58119344455007 -0.01540407187672695 3.434646763616778
49.58078535837679 -0.015985558372278694 3.4459539345066057
49.58029560576479 -0.016252642549117645 3.45855647901838
49.579721025198296 -0.01620631531373134 3.472294888089039
49.57917290747415 -0.021746799004800265 3.4939173578829936
49.5781485883679 -0.019959448514569683 3.514494018728238
49.57719554061668 -0.022520694184290046 3.5367644421331494
49.576053035617285 -0.024678546690368126 3.561945427936848
49.574726302370436 -0.02646183983290263 3.58995840212895
49.57322024322118 -0.027898323897121727 3.6206953666639037
49.57153969810512 -0.029014634908136015 3.654010539551064
49.56968968371343 -0.029835937781913086 3.6897174628682974
49.56767569904446 -0.03038513887546121 3.727590137700761
49.56550431777382 -0.030681890046468072 3.7673657362408757
49.56318417380054 -0.03074178566160696 3.808746577924476
49.560727287453254 -0.030576167848618666 3.851399373739224
49.55815059042816 -0.030192893945228515 3.89495023701956
49.55547744071414 -0.029598283844986025 3.938975525918265
49.55273880318233 -0.02880017576683739 3.9829915639581643
49.548073386606475 -0.033805970348687965 4.055001957319552
49.5450023282728 -0.032777213399271414 4.100806993285903
49.54172369821052 -0.03223059471450641 4.149970473076455
49.53854385833238 -0.03150265903306014 4.1968940934544445
49.53553246103931 -0.03064247129268448 4.240744490932937
49.53275638214414 -0.02970818236925778 4.28072877014268
49.53027591342732 -0.028762296412259636 4.316139591409647

VECTORS L float
-0.006662207019710491 0.0 0.09072199714917452
-0.012019533385332798 0.0 0.1636749008688048
-0.017759422356869857 0.0 0.24183731602218317
-0.02407460867834612 0.0 0.32783379042750305
-0.031007144831463107 0.0 0.422236969923261
-0.0385585523412378 0.0 0.5250675737377617
-0.046713799952633354 0.0 0.6361209151249213
-0.055443014383925154 0.0 0.7549901973923765
-0.06472801601530839 0.0 0.8814278612236387
-0.07453349629390382 0.0 1.014953095616562
-0.0848163026451524 0.0 1.1549782743183827
-0.09553056549953501 0.0 1.3008787726449935
-0.10662751282784287 0.0 1.4519904419318832
-0.11805603556759252 0.0 1.607617309176831
-0.12976363470620983 0.0 1.7670444738588844
-0.1416975844996112 0.0 1.9295539479614165
-0.1538061447200827 0.0 2.0944411636471822
-0.16603964784716266 0.0 2.2610297779811144
-0.17835131110268224 0.0 2.4286827307435126
-0.19069766101556684 0.0 2.5968080259025488
-0.20303839379162567 0.0 2.7648568302125933
-0.21533473674514575 0.0 2.9323011601582274
-0.22758579273032023 0.0 3.0991287989381573
-0.23970718862919155 0.0 3.264190803305173
-0.25170125254300085 0.0 3.4275188759658324
-0.2635425682088399 0.0 3.5887669132754576
-0.2752105463261539 0.0 3.7476545423094754
-0.2866878451961104 0.0 3.903945614063902
-0.29795954548226006 0.0 4.057436965833823
-0.3090125308690905 0.0 4.207949987387673
-0.31983551363338 0.0 4.355330969182818
-0.33042427699879645 0.0 4.499522489651713
-0.34072811111981727 0.0 4.639834012092731
-0.35074580910292535 0.0 4.776249101743354
-0.36046316877028994 0.0 4.908574361740824
-0.36986135724605995 0.0 5.036553337113952
-0.3789174086661122 0.0 5.159873292300283
-0.3876034791454882 0.0 5.278155065733033
-0.3958307377923481 0.0 5.3901890108352655
-0.4036476092905058 0.0 5.4966345463272175
-0.41097103274533836 0.0 5.596360598043392
-0.417744578552484 0.0 5.688598740987256
-0.4239001094018489 0.0 5.772421121546065
-0.429353995773579 0.0 5.8466889223520395
-0.43400492999770124 0.0 5.910022595438671
-0.437723246822447 0.0 5.960656436052796
-0.44037387148757057 0.0 5.99675107595237
-0.44186296332711317 0.0 6.017028648417795
-0.44222007593513 0.0 6.02189159682372
-0.4403961600701631 0.0 5.997054588695286
-0.44039627929308295 0.0 5.997056212202535
-0.4422197631595621 0.0 6.021887337630917
-0.4418621671466849 0.0 6.017017806503347
-0.44037257130126045 0.0 5.996733370783742
-0.4377214318009621 0.0 5.960631720163078
-0.43400258208433695 0.0 5.909990622942335
-0.42935103024852667 0.0 5.846648539584805
-0.4238966205316932 0.0 5.7723736121745635
-0.4177406414198064 0.0 5.6885451274417
-0.4109667276784431 0.0 5.596301974187148
-0.40364302374453065 0.0 5.496572103072654
-0.3958259742526404 0.0 5.390124143767264
-0.387598794455357 0.0 5.278091272391958
-0.37891265251302186 0.0 5.159808525818871
-0.36985651727913715 0.0 5.036487429305312
-0.36045825558811634 0.0 4.9085074569301765
-0.35074084586923426 0.0 4.776181515360728
-0.3407231320425678 0.0 4.639766209961891