# vtk DataFile Version 4.0
[MyVLM domain - lattices] 
ASCII
DATASET UNSTRUCTURED_GRID
POINTS 302 float
1.2444999999999997 -1.2445 0.0
1.2399745454545452 -1.2399745454545454 0.0
1.2346178849721705 -1.2346178849721707 0.0
1.2284300185528754 -1.2284300185528756 0.0
1.2214109461966602 -1.2214109461966605 0.0
1.2135606679035247 -1.213560667903525 0.0
1.2048791836734691 -1.2048791836734694 0.0
1.1953664935064932 -1.1953664935064934 0.0
1.1850225974025972 -1.1850225974025974 0.0
1.1738474953617808 -1.173847495361781 0.0
1.1618411873840442 -1.1618411873840444 0.0
1.1490036734693874 -1.1490036734693876 0.0
1.1353349536178106 -1.1353349536178108 0.0
1.1208350278293133 -1.1208350278293135 0.0
1.1055038961038959 -1.105503896103896 0.0
1.0893415584415582 -1.0893415584415584 0.0
1.0723480148423004 -1.0723480148423006 0.0
1.054523265306122 -1.0545232653061223 0.0
1.0358673098330238 -1.035867309833024 0.0
1.0163801484230053 -1.0163801484230055 0.0
0.9960617810760664 -0.9960617810760668 0.0
0.9749122077922076 -0.9749122077922077 0.0
0.9529314285714284 -0.9529314285714284 0.0
0.9301194434137288 -0.930119443413729 0.0
0.9064762523191091 -0.9064762523191096 0.0
0.8820018552875695 -0.8820018552875695 0.0
0.8566962523191093 -0.8566962523191094 0.0
0.8305594434137288 -0.8305594434137291 0.0
0.8035914285714284 -0.8035914285714285 0.0
0.7757922077922076 -0.7757922077922077 0.0
0.7471617810760666 -0.7471617810760667 0.0
0.7177001484230053 -0.7177001484230054 0.0
0.6874073098330239 -0.687407309833024 0.0
0.6562832653061222 -0.6562832653061225 0.0
0.6243280148423004 -0.6243280148423005 0.0
0.5915415584415582 -0.5915415584415583 0.0
0.5579238961038958 -0.5579238961038959 0.0
0.5234750278293133 -0.5234750278293134 0.0
0.48819495361781057 -0.48819495361781057 0.0
0.4520836734693877 -0.4520836734693877 0.0
0.4151411873840445 -0.4151411873840446 0.0
0.37736749536178105 -0.37736749536178116 0.0
0.3387625974025974 -0.3387625974025974 0.0
0.2993264935064933 -0.29932649350649343 0.0
0.25905918367346925 -0.25905918367346925 0.0
0.21796066790352486 -0.21796066790352486 0.0
0.17603094619666027 -0.1760309461966605 0.0
0.13327001855287546 -0.13327001855287568 0.0
0.08967788497217066 -0.08967788497217066 0.0
0.045254545454545436 -0.045254545454545436 0.0
0.0 0.0 0.0
0.04525454545454545 0.04525454545454546 0.0
0.08967788497217066 0.08967788497217068 0.0
0.13327001855287568 0.1332700185528757 0.0
0.17603094619666046 0.1760309461966605 0.0
0.21796066790352497 0.21796066790352508 0.0
0.2590591836734693 0.25905918367346936 0.0
0.29932649350649343 0.2993264935064935 0.0
0.3387625974025973 0.33876259740259734 0.0
0.37736749536178094 0.377367495361781 0.0
0.41514118738404443 0.4151411873840445 0.0
0.45208367346938766 0.4520836734693878 0.0
0.48819495361781057 0.4881949536178107 0.0
0.5234750278293133 0.5234750278293134 0.0
0.5579238961038959 0.557923896103896 0.0
0.5915415584415582 0.5915415584415583 0.0
0.6243280148423003 0.6243280148423004 0.0
0.6562832653061222 0.6562832653061225 0.0
0.687407309833024 0.6874073098330241 0.0
0.7177001484230054 0.7177001484230056 0.0
0.7471617810760667 0.7471617810760669 0.0
0.7757922077922076 0.7757922077922077 0.0
0.8035914285714284 0.8035914285714285 0.0
0.8305594434137288 0.830559443413729 0.0
0.8566962523191093 0.8566962523191094 0.0
0.8820018552875692 0.8820018552875695 0.0
0.9064762523191091 0.9064762523191093 0.0
0.9301194434137288 0.9301194434137292 0.0
0.9529314285714284 0.9529314285714284 0.0
0.9749122077922076 0.9749122077922077 0.0
0.9960617810760666 0.9960617810760668 0.0
1.0163801484230053 1.0163801484230055 0.0
1.0358673098330238 1.035867309833024 0.0
1.054523265306122 1.0545232653061223 0.0
1.0723480148423001 1.0723480148423004 0.0
1.0893415584415582 1.0893415584415584 0.0
1.1055038961038959 1.105503896103896 0.0
1.120835027829313 1.1208350278293133 0.0
1.1353349536178106 1.1353349536178106 0.0
1.1490036734693874 1.1490036734693876 0.0
1.1618411873840444 1.1618411873840446 0.0
1.1738474953617808 1.173847495361781 0.0
1.1850225974025972 1.1850225974025972 0.0
1.1953664935064932 1.1953664935064934 0.0
1.2048791836734691 1.2048791836734694 0.0
1.2135606679035245 1.2135606679035247 0.0
1.22141094619666 1.2214109461966602 0.0
1.2284300185528754 1.2284300185528756 0.0
1.2346178849721703 1.2346178849721705 0.0
1.2399745454545452 1.2399745454545454 0.0
1.2444999999999997 1.2445 0.0
1.7422999999999997 -1.2445 0.0
1.7377745454545452 -1.2399745454545454 0.0
1.7324178849721703 -1.2346178849721707 0.0
1.7262300185528754 -1.2284300185528756 0.0
1.7192109461966603 -1.2214109461966605 0.0
1.7113606679035245 -1.213560667903525 0.0
1.7026791836734692 -1.2048791836734694 0.0
1.6931664935064934 -1.1953664935064934 0.0
1.6828225974025972 -1.1850225974025974 0.0
1.6716474953617806 -1.173847495361781 0.0
1.6596411873840444 -1.1618411873840444 0.0
1.6468036734693878 -1.1490036734693876 0.0
1.6331349536178106 -1.1353349536178108 0.0
1.6186350278293133 -1.1208350278293135 0.0
1.603303896103896 -1.105503896103896 0.0
1.5871415584415582 -1.0893415584415584 0.0
1.5701480148423004 -1.0723480148423006 0.0
1.552323265306122 -1.0545232653061223 0.0
1.5336673098330238 -1.035867309833024 0.0
1.5141801484230053 -1.0163801484230055 0.0
1.4938617810760666 -0.9960617810760668 0.0
1.4727122077922075 -0.9749122077922077 0.0
1.4507314285714283 -0.9529314285714284 0.0
1.4279194434137288 -0.930119443413729 0.0
1.4042762523191092 -0.9064762523191096 0.0
1.3798018552875693 -0.8820018552875695 0.0
1.3544962523191093 -0.8566962523191094 0.0
1.328359443413729 -0.8305594434137291 0.0
1.3013914285714283 -0.8035914285714285 0.0
1.2735922077922077 -0.7757922077922077 0.0
1.2449617810760665 -0.7471617810760667 0.0
1.2155001484230055 -0.7177001484230054 0.0
1.1852073098330238 -0.687407309833024 0.0
1.1540832653061224 -0.6562832653061225 0.0
1.1221280148423003 -0.6243280148423005 0.0
1.0893415584415582 -0.5915415584415583 0.0
1.055723896103896 -0.5579238961038959 0.0
1.0212750278293132 -0.5234750278293134 0.0
0.9859949536178108 -0.48819495361781057 0.0
0.9498836734693876 -0.4520836734693877 0.0
0.9129411873840445 -0.4151411873840446 0.0
0.875167495361781 -0.37736749536178116 0.0
0.8365625974025973 -0.3387625974025974 0.0
0.7971264935064933 -0.29932649350649343 0.0
0.7568591836734693 -0.25905918367346925 0.0
0.7157606679035249 -0.21796066790352486 0.0
0.6738309461966603 -0.1760309461966605 0.0
0.6310700185528755 -0.13327001855287568 0.0
0.5874778849721707 -0.08967788497217066 0.0
0.5430545454545455 -0.045254545454545436 0.0
0.4978 0.0 0.0
0.5430545454545455 0.04525454545454546 0.0
0.5874778849721707 0.08967788497217068 0.0
0.6310700185528757 0.1332700185528757 0.0
0.6738309461966605 0.1760309461966605 0.0
0.715760667903525 0.21796066790352508 0.0
0.7568591836734693 0.25905918367346936 0.0
0.7971264935064934 0.2993264935064935 0.0
0.8365625974025973 0.33876259740259734 0.0
0.875167495361781 0.377367495361781 0.0
0.9129411873840445 0.4151411873840445 0.0
0.9498836734693876 0.4520836734693878 0.0
0.9859949536178105 0.4881949536178107 0.0
1.0212750278293132 0.5234750278293134 0.0
1.055723896103896 0.557923896103896 0.0
1.0893415584415582 0.5915415584415583 0.0
1.1221280148423003 0.6243280148423004 0.0
1.1540832653061224 0.6562832653061225 0.0
1.185207309833024 0.6874073098330241 0.0
1.2155001484230055 0.7177001484230056 0.0
1.2449617810760667 0.7471617810760669 0.0
1.2735922077922077 0.7757922077922077 0.0
1.3013914285714283 0.8035914285714285 0.0
1.3283594434137287 0.830559443413729 0.0
1.3544962523191093 0.8566962523191094 0.0
1.3798018552875693 0.8820018552875695 0.0
1.4042762523191092 0.9064762523191093 0.0
1.427919443413729 0.9301194434137292 0.0
1.4507314285714283 0.9529314285714284 0.0
1.4727122077922075 0.9749122077922077 0.0
1.4938617810760666 0.9960617810760668 0.0
1.5141801484230053 1.0163801484230055 0.0
1.5336673098330238 1.035867309833024 0.0
1.552323265306122 1.0545232653061223 0.0
1.5701480148423002 1.0723480148423004 0.0
1.5871415584415582 1.0893415584415584 0.0
1.603303896103896 1.105503896103896 0.0
1.6186350278293131 1.1208350278293133 0.0
1.6331349536178106 1.1353349536178106 0.0
1.6468036734693874 1.1490036734693876 0.0
1.6596411873840444 1.1618411873840446 0.0
1.6716474953617806 1.173847495361781 0.0
1.6828225974025972 1.1850225974025972 0.0
1.6931664935064934 1.1953664935064934 0.0
1.7026791836734692 1.2048791836734694 0.0
1.7113606679035245 1.2135606679035247 0.0
1.71921094619666 1.2214109461966602 0.0
1.7262300185528754 1.2284300185528756 0.0
1.7324178849721703 1.2346178849721705 0.0
1.7377745454545452 1.2399745454545454 0.0
1.7422999999999997 1.2445 0.0
1.6155872727272724 -1.2422372727272726 0.0
1.6106462152133578 -1.237296215213358 0.0
1.604873951762523 -1.2315239517625232 0.0
1.598270482374768 -1.224920482374768 0.0
1.5908358070500925 -1.2174858070500927 0.0
1.582569925788497 -1.2092199257884972 0.0
1.5734728385899812 -1.2001228385899814 0.0
1.5635445454545454 -1.1901945454545453 0.0
1.552785046382189 -1.1794350463821892 0.0
1.5411943413729126 -1.1678443413729127 0.0
1.5287724304267158 -1.155422430426716 0.0
1.5155193135435991 -1.142169313543599 0.0
1.501434990723562 -1.1280849907235622 0.0
1.4865194619666047 -1.1131694619666048 0.0
1.4707727272727271 -1.0974227272727273 0.0
1.4541947866419294 -1.0808447866419293 0.0
1.4367856400742112 -1.0634356400742113 0.0
1.418545287569573 -1.0451952875695731 0.0
1.3994737291280146 -1.0261237291280147 0.0
1.379570964749536 -1.0062209647495362 0.0
1.358836994434137 -0.9854869944341371 0.0
1.337271818181818 -0.9639218181818181 0.0
1.3148754359925787 -0.9415254359925787 0.0
1.291647847866419 -0.9182978478664192 0.0
1.2675890538033394 -0.8942390538033393 0.0
1.2426990538033393 -0.8693490538033395 0.0
1.2169778478664193 -0.8436278478664192 0.0
1.1904254359925788 -0.8170754359925788 0.0
1.163041818181818 -0.7896918181818181 0.0
1.1348269944341371 -0.7614769944341371 0.0
1.105780964749536 -0.7324309647495362 0.0
1.0759037291280147 -0.7025537291280148 0.0
1.0451952875695731 -0.6718452875695733 0.0
1.0136556400742114 -0.6403056400742114 0.0
0.9812847866419293 -0.6079347866419293 0.0
0.9480827272727271 -0.5747327272727272 0.0
0.9140494619666047 -0.5406994619666048 0.0
0.8791849907235622 -0.5058349907235622 0.0
0.8434893135435992 -0.47013931354359917 0.0
0.8069624304267162 -0.43361243042671627 0.0
0.7696043413729128 -0.3962543413729128 0.0
0.7314150463821893 -0.3580650463821894 0.0
0.6923945454545455 -0.3190445454545454 0.0
0.6525428385899814 -0.27919283858998134 0.0
0.6118599257884971 -0.23850992578849706 0.0
0.5703458070500929 -0.19699580705009279 0.0
0.5280004823747682 -0.15465048237476808 0.0
0.4848239517625232 -0.11147395176252317 0.0
0.4408162152133581 -0.06746621521335805 0.0
0.39597727272727273 -0.022627272727272718 0.0
0.39597727272727273 0.02262727272727273 0.0
0.4408162152133581 0.06746621521335806 0.0
0.4848239517625232 0.11147395176252319 0.0
0.528000482374768 0.15465048237476808 0.0
0.5703458070500929 0.19699580705009276 0.0
0.6118599257884971 0.23850992578849717 0.0
0.6525428385899814 0.2791928385899814 0.0
0.6923945454545455 0.3190445454545454 0.0
0.7314150463821891 0.3580650463821891 0.0
0.7696043413729128 0.39625434137291277 0.0
0.8069624304267162 0.43361243042671616 0.0
0.8434893135435992 0.4701393135435992 0.0
0.8791849907235619 0.5058349907235621 0.0
0.9140494619666046 0.5406994619666047 0.0
0.9480827272727271 0.5747327272727272 0.0
0.9812847866419294 0.6079347866419295 0.0
1.0136556400742114 0.6403056400742114 0.0
1.0451952875695731 0.6718452875695732 0.0
1.0759037291280147 0.7025537291280147 0.0
1.105780964749536 0.7324309647495362 0.0
1.1348269944341371 0.7614769944341373 0.0
1.163041818181818 0.789691818181818 0.0
1.1904254359925786 0.8170754359925786 0.0
1.216977847866419 0.843627847866419 0.0
1.2426990538033393 0.8693490538033394 0.0
1.2675890538033392 0.8942390538033393 0.0
1.291647847866419 0.9182978478664192 0.0
1.3148754359925787 0.9415254359925787 0.0
1.3372718181818182 0.9639218181818181 0.0
1.3588369944341372 0.9854869944341373 0.0
1.379570964749536 1.0062209647495362 0.0
1.3994737291280148 1.0261237291280147 0.0
1.418545287569573 1.0451952875695731 0.0
1.4367856400742112 1.0634356400742113 0.0
1.4541947866419291 1.0808447866419293 0.0
1.470772727272727 1.097422727272727 0.0
1.4865194619666047 1.1131694619666048 0.0
1.501434990723562 1.128084990723562 0.0
1.5155193135435991 1.1421693135435993 0.0
1.528772430426716 1.1554224304267162 0.0
1.5411943413729128 1.1678443413729127 0.0
1.5527850463821888 1.179435046382189 0.0
1.5635445454545451 1.1901945454545453 0.0
1.573472838589981 1.2001228385899811 0.0
1.5825699257884969 1.209219925788497 0.0
1.5908358070500925 1.2174858070500927 0.0
1.5982704823747678 1.224920482374768 0.0
1.604873951762523 1.2315239517625232 0.0
1.6106462152133578 1.237296215213358 0.0
1.6155872727272724 1.2422372727272726 0.0

CELLS 200 700
4 0 101 102 1
4 1 102 103 2
4 2 103 104 3
4 3 104 105 4
4 4 105 106 5
4 5 106 107 6
4 6 107 108 7
4 7 108 109 8
4 8 109 110 9
4 9 110 111 10
4 10 111 112 11
4 11 112 113 12
4 12 113 114 13
4 13 114 115 14
4 14 115 116 15
4 15 116 117 16
4 16 117 118 17
4 17 118 119 18
4 18 119 120 19
4 19 120 121 20
4 20 121 122 21
4 21 122 123 22
4 22 123 124 23
4 23 124 125 24
4 24 125 126 25
4 25 126 127 26
4 26 127 128 27
4 27 128 129 28
4 28 129 130 29
4 29 130 131 30
4 30 131 132 31
4 31 132 133 32
4 32 133 134 33
4 33 134 135 34
4 34 135 136 35
4 35 136 137 36
4 36 137 138 37
4 37 138 139 38
4 38 139 140 39
4 39 140 141 40
4 40 141 142 41
4 41 142 143 42
4 42 143 144 43
4 43 144 145 44
4 44 145 146 45
4 45 146 147 46
4 46 147 148 47
4 47 148 149 48
4 48 149 150 49
4 49 150 151 50
4 50 151 152 51
4 51 152 153 52
4 52 153 154 53
4 53 154 155 54
4 54 155 156 55
4 55 156 157 56
4 56 157 158 57
4 57 158 159 58
4 58 159 160 59
4 59 160 161 60
4 60 161 162 61
4 61 162 163 62
4 62 163 164 63
4 63 164 165 64
4 64 165 166 65
4 65 166 167 66
4 66 167 168 67
4 67 168 169 68
4 68 169 170 69
4 69 170 171 70
4 70 171 172 71
4 71 172 173 72
4 72 173 174 73
4 73 174 175 74
4 74 175 176 75
4 75 176 177 76
4 76 177 178 77
4 77 178 179 78
4 78 179 180 79
4 79 180 181 80
4 80 181 182 81
4 81 182 183 82
4 82 183 184 83
4 83 184 185 84
4 84 185 186 85
4 85 186 187 86
4 86 187 188 87
4 87 188 189 88
4 88 189 190 89
4 89 190 191 90
4 90 191 192 91
4 91 192 193 92
4 92 193 194 93
4 93 194 195 94
4 94 195 196 95
4 95 196 197 96
4 96 197 198 97
4 97 198 199 98
4 98 199 200 99
4 99 200 201 100
1 202
1 203
1 204
1 205
1 206
1 207
1 208
1 209
1 210
1 211
1 212
1 213
1 214
1 215
1 216
1 217
1 218
1 219
1 220
1 221
1 222
1 223
1 224
1 225
1 226
1 227
1 228
1 229
1 230
1 231
1 232
1 233
1 234
1 235
1 236
1 237
1 238
1 239
1 240
1 241
1 242
1 243
1 244
1 245
1 246
1 247
1 248
1 249
1 250
1 251
1 252
1 253
1 254
1 255
1 256
1 257
1 258
1 259
1 260
1 261
1 262
1 263
1 264
1 265
1 266
1 267
1 268
1 269
1 270
1 271
1 272
1 273
1 274
1 275
1 276
1 277
1 278
1 279
1 280
1 281
1 282
1 283
1 284
1 285
1 286
1 287
1 288
1 289
1 290
1 291
1 292
1 293
1 294
1 295
1 296
1 297
1 298
1 299
1 300
1 301

CELL_TYPES 200
9
9
9
9
9
9
9
9
9
9
9
9
9
9
9
9
9
9
9
9
9
9
9
9
9
9
9
9
9
9
9
9
9
9
9
9
9
9
9
9
9
9
9
9
9
9
9
9
9
9
9
9
9
9
9
9
9
9
9
9
9
9
9
9
9
9
9
9
9
9
9
9
9
9
9
9
9
9
9
9
9
9
9
9
9
9
9
9
9
9
9
9
9
9
9
9
9
9
9
9
1
1
1
1
1
1
1
1
1
1
1
1
1
1
1
1
1
1
1
1
1
1
1
1
1
1
1
1
1
1
1
1
1
1
1
1
1
1
1
1
1
1
1
1
1
1
1
1
1
1
1
1
1
1
1
1
1
1
1
1
1
1
1
1
1
1
1
1
1
1
1
1
1
1
1
1
1
1
1
1
1
1
1
1
1
1
1
1
1
1
1
1
1
1
1
1
1
1
1
1

CELL_DATA 200

VECTORS Vinf float
49.545889171273515 0.036438538089483226 4.054795035353957
49.54796333173319 0.037174767315040574 4.022815162111385
49.55028840368886 0.03789036398276921 3.9867153309296186
49.552814528787636 0.03853281352966278 3.947152334415438
49.55548588947813 0.03905371455376876 3.904870439677625
49.55824384925661 0.03941292041554412 3.86066250807406
49.56103071058892 0.03958168208826059 3.815322862172511
49.56379334916099 0.03954407156004658 3.76960163820964
49.566485958486346 0.039296367079292766 3.7241706533681036
49.56907140480872 0.03884467416196001 3.6796072440747882
49.57152115534671 0.03820158444628091 3.6363963325715987
49.573814185226276 0.037382871567885056 3.5949450245143773
49.57593547460607 0.03640499219409747 3.555601174618714
49.577874610336245 0.03528365888734467 3.5186685416561705
49.579624726179176 0.03403328486944347 3.484414974394165
49.58118175273502 0.032666897382800306 3.4530740391828543
49.58124420924228 0.0329568334346013 3.4254137732841103
49.58760358875658 0.02648299290695243 3.3947610696065156
49.58858903646251 0.026974703732442613 3.3724021076774835
49.589469809635645 0.027020220143600258 3.351486803838886
49.59022756758122 0.026608651855065075 3.332397661970998
49.59085110254205 0.0257271781461758 3.3153921398094663
49.59133447595358 0.024359523695834197 3.3006463828889916
49.59167626330218 0.02248527481162393 3.288286268995182
49.59187924418048 0.020079016428821102 3.278405368923326
49.59194946086827 0.017108934742097764 3.27107590399924
49.59027943450859 0.023622144550298995 3.258069233087025
49.589999595044866 0.021725310388106146 3.252632501418814
49.589642263056135 0.02003473965279367 3.248575683416725
49.58920684624679 0.018574244143138557 3.2459088169938823
49.58868948071908 0.017370258537448273 3.244661899447092
49.58808724632502 0.01645310281187251 3.244897647595389
49.58740136187122 0.01585387756369278 3.2467114310640923
49.58613410291167 0.014179010143025153 3.2499328776306333
49.59062945151331 0.010968913364518813 3.2597678303275974
49.58991066533712 0.009517310856140836 3.264395872955299
49.589114040090855 0.008008418557856872 3.2704606035288966
49.58820229923559 0.006451503600708121 3.277976500904827
49.58714815670128 0.004878062532269808 3.2871117560569765
49.58594762793245 0.0033209601956353274 3.298204824383871
49.58270267236433 0.002885840044427 3.3117367197450642
49.581326602190444 0.0015941089662955647 3.328615501673187
49.579845066793375 0.00047852863943277917 3.3487118132917146
49.5781931306871 -0.0004141224818581841 3.3727236434607866
49.57633397214452 -0.0009714178851043439 3.4009348101105776
49.579591544060165 -0.0017116175634676975 3.429372618690291
49.577404770470594 -0.0020459190789382325 3.459185173165628
49.575627700420235 -0.0017339293007392464 3.4811103090248685
49.574642258287795 -0.0009781730707338083 3.4893934398894153
49.57430153415367 -0.0002851904743067118 3.487342235659858
49.574319146897956 0.0004696520293401116 3.487275021053991
49.57466830053702 0.0011627385992630337 3.48927095817471
49.575663266282895 0.0019179427042286677 3.480930511459065
49.57745107923537 0.002227692262281639 3.4589443309174066
49.57964869860245 0.001888722192597633 3.429075836993616
49.57647825885732 0.001251031024653466 3.400503205756458
49.5783390708872 0.000702041834731634 3.372229800381599
49.57999294286865 -0.00018598836645206097 3.3481674562106822
49.581476537516416 -0.0012999176236291583 3.328025982872816
49.58285451083263 -0.002591994150766652 3.311102964164344
49.58613660965353 -0.003091367845022739 3.2974847187535477
49.587343404476734 -0.004659872916079973 3.2863251001335727
49.588403575356324 -0.006239572349643107 3.2771154526840194
49.589324630862166 -0.0077977969857036915 3.2695189558652817
49.59013636199042 -0.009305963045099756 3.2633707349640257
49.590875728656066 -0.010758709204882548 3.258661309591783
49.58596019056794 -0.013440492044574568 3.250205982081091
49.58720947499308 -0.015095763923785269 3.246578586414503
49.587863473662196 -0.015694917223212135 3.2444222605454742
49.58842729779466 -0.01661083010975456 3.24386388061777
49.58890036753155 -0.017812668629724016 3.2447939934064562
49.58928666339999 -0.019270359395708935 3.247133791242207
49.589591248715 -0.020957629789828087 3.2508381422783184
49.58981594727733 -0.022850572317897482 3.2558848713590125
49.59196491143116 -0.017118982143133586 3.2679979064291995
49.59195461698234 -0.020155325012661676 3.275292667979747
49.59179958819247 -0.022610512371018885 3.285113229975115
49.59149699090811 -0.024518126045586168 3.2973837416223972
49.59104688440429 -0.02590610831970082 3.312008911429139
49.59045267072403 -0.02679789086255235 3.3288623821954486
49.589721213706866 -0.02721272478580476 3.3477684426137135
49.5888637901251 -0.027165893962277102 3.3684709521482463
49.587898359359876 -0.026670038336271212 3.3905897020955473
49.58013081740134 -0.031422021608361696 3.4235621730025163
49.580094501423815 -0.03126865664737024 3.450806435579092
49.57861588871054 -0.03272900323286073 3.4817682461871198
49.57692836906568 -0.03405872687017475 3.5156763353524774
49.575037658779365 -0.03524625866449691 3.552294907331068
49.5729523066352 -0.03627856331233178 3.591353774166046
49.57068439895978 -0.03714125541139899 3.63254669114089
49.56825057987894 -0.037819163039615106 3.675523286597491
49.56567341771435 -0.038297749770488075 3.719874081944355
49.5629828847529 -0.03856560192577368 3.7651120809108685
49.560217436006695 -0.038617719394817646 3.8106582655474903
49.55742407442658 -0.03845884503323184 3.8558395539976997
49.55465699571036 -0.038105835231072686 3.8999049284292218
49.551974847927994 -0.0375882702822753 3.942059495127996
49.54943710417771 -0.036947030467105874 3.981510041811648
49.54710031243047 -0.03623115567824654 4.017512082374382
49.54501496237118 -0.03549370801899295 4.049408665644592
49.545889171273515 0.036438538089483226 4.054795035353957
49.54796333173319 0.037174767315040574 4.022815162111385
49.55028840368886 0.03789036398276921 3.9867153309296186
49.552814528787636 0.03853281352966278 3.947152334415438
49.55548588947813 0.03905371455376876 3.904870439677625
49.55824384925661 0.03941292041554412 3.86066250807406
49.56103071058892 0.03958168208826059 3.815322862172511
49.56379334916099 0.03954407156004658 3.76960163820964
49.566485958486346 0.039296367079292766 3.7241706533681036
49.56907140480872 0.03884467416196001 3.6796072440747882
49.57152115534671 0.03820158444628091 3.6363963325715987
49.573814185226276 0.037382871567885056 3.5949450245143773
49.57593547460607 0.03640499219409747 3.555601174618714
49.577874610336245 0.03528365888734467 3.5186685416561705
49.579624726179176 0.03403328486944347 3.484414974394165
49.58118175273502 0.032666897382800306 3.4530740391828543
49.58124420924228 0.0329568334346013 3.4254137732841103
49.58760358875658 0.02648299290695243 3.3947610696065156
49.58858903646251 0.026974703732442613 3.3724021076774835
49.589469809635645 0.027020220143600258 3.351486803838886
49.59022756758122 0.026608651855065075 3.332397661970998
49.59085110254205 0.0257271781461758 3.3153921398094663
49.59133447595358 0.024359523695834197 3.3006463828889916
49.59167626330218 0.02248527481162393 3.288286268995182
49.59187924418048 0.020079016428821102 3.278405368923326
49.59194946086827 0.017108934742097764 3.27107590399924
49.59027943450859 0.023622144550298995 3.258069233087025
49.589999595044866 0.021725310388106146 3.252632501418814
49.589642263056135 0.02003473965279367 3.248575683416725
49.58920684624679 0.018574244143138557 3.2459088169938823
49.58868948071908 0.017370258537448273 3.244661899447092
49.58808724632502 0.01645310281187251 3.244897647595389
49.58740136187122 0.01585387756369278 3.2467114310640923
49.58613410291167 0.014179010143025153 3.2499328776306333
49.59062945151331 0.010968913364518813 3.2597678303275974
49.58991066533712 0.009517310856140836 3.264395872955299
49.589114040090855 0.008008418557856872 3.2704606035288966
49.58820229923559 0.006451503600708121 3.277976500904827
49.58714815670128 0.004878062532269808 3.2871117560569765
49.58594762793245 0.0033209601956353274 3.298204824383871
49.58270267236433 0.002885840044427 3.3117367197450642
49.581326602190444 0.0015941089662955647 3.328615501673187
49.579845066793375 0.00047852863943277917 3.3487118132917146
49.5781931306871 -0.0004141224818581841 3.3727236434607866
49.57633397214452 -0.0009714178851043439 3.4009348101105776
49.579591544060165 -0.0017116175634676975 3.429372618690291
49.577404770470594 -0.0020459190789382325 3.459185173165628
49.575627700420235 -0.0017339293007392464 3.4811103090248685
49.574642258287795 -0.0009781730707338083 3.4893934398894153
49.57430153415367 -0.0002851904743067118 3.487342235659858
49.574319146897956 0.0004696520293401116 3.487275021053991
49.57466830053702 0.0011627385992630337 3.48927095817471
49.575663266282895 0.0019179427042286677 3.480930511459065
49.57745107923537 0.002227692262281639 3.4589443309174066
49.57964869860245 0.001888722192597633 3.429075836993616
49.57647825885732 0.001251031024653466 3.400503205756458
49.5783390708872 0.000702041834731634 3.372229800381599
49.57999294286865 -0.00018598836645206097 3.3481674562106822
49.581476537516416 -0.0012999176236291583 3.328025982872816
49.58285451083263 -0.002591994150766652 3.311102964164344
49.58613660965353 -0.003091367845022739 3.2974847187535477
49.587343404476734 -0.004659872916079973 3.2863251001335727
49.588403575356324 -0.006239572349643107 3.2771154526840194
49.589324630862166 -0.0077977969857036915 3.2695189558652817
49.59013636199042 -0.009305963045099756 3.2633707349640257
49.590875728656066 -0.010758709204882548 3.258661309591783
49.58596019056794 -0.013440492044574568 3.250205982081091
49.58720947499308 -0.015095763923785269 3.246578586414503
49.587863473662196 -0.015694917223212135 3.2444222605454742
49.58842729779466 -0.01661083010975456 3.24386388061777
49.58890036753155 -0.017812668629724016 3.2447939934064562
49.58928666339999 -0.019270359395708935 3.247133791242207
49.589591248715 -0.020957629789828087 3.2508381422783184
49.58981594727733 -0.022850572317897482 3.2558848713590125
49.59196491143116 -0.017118982143133586 3.2679979064291995
49.59195461698234 -0.020155325012661676 3.275292667979747
49.59179958819247 -0.022610512371018885 3.285113229975115
49.59149699090811 -0.024518126045586168 3.2973837416223972
49.59104688440429 -0.02590610831970082 3.312008911429139
49.59045267072403 -0.02679789086255235 3.3288623821954486
49.589721213706866 -0.02721272478580476 3.3477684426137135
49.5888637901251 -0.027165893962277102 3.3684709521482463
49.587898359359876 -0.026670038336271212 3.3905897020955473
49.58013081740134 -0.031422021608361696 3.4235621730025163
49.580094501423815 -0.03126865664737024 3.450806435579092
49.57861588871054 -0.03272900323286073 3.4817682461871198
49.57692836906568 -0.03405872687017475 3.5156763353524774
49.575037658779365 -0.03524625866449691 3.552294907331068
49.5729523066352 -0.03627856331233178 3.591353774166046
49.57068439895978 -0.03714125541139899 3.63254669114089
49.56825057987894 -0.037819163039615106 3.675523286597491
49.56567341771435 -0.038297749770488075 3.719874081944355
49.5629828847529 -0.03856560192577368 3.7651120809108685
49.560217436006695 -0.038617719394817646 3.8106582655474903
49.55742407442658 -0.03845884503323184 3.8558395539976997
49.55465699571036 -0.038105835231072686 3.8999049284292218
49.551974847927994 -0.0375882702822753 3.942059495127996
49.54943710417771 -0.036947030467105874 3.981510041811648
49.54710031243047 -0.03623115567824654 4.017512082374382
49.54501496237118 -0.03549370801899295 4.049408665644592

VECTORS L float
-0.00628258949910035 0.0 0.08555259014625816
-0.011341726613196107 0.0 0.15444492889892322
-0.0167650221346619 0.0 0.22829616158831678
-0.022734765950017805 0.0 0.3095886041371158
-0.02929132222997461 0.0 0.39887191196270955
-0.03643687696989032 0.0 0.4961758526577367
-0.04415793449284494 0.0 0.6013166500712253
-0.052432283258382555 0.0 0.7139918405745369
-0.0612316932025582 0.0 0.8338170038437221
-0.07052309480033153 0.0 0.9603418186342504
-0.08026923966675953 0.0 1.0930590584575701
-0.09042921511115237 0.0 1.2314115984754492
-0.10095900520741487 0.0 1.374800055824234
-0.11181218906811366 0.0 1.5225922982983462
-0.12294079675309624 0.0 1.6741350996079252
-0.13429623254363754 0.0 1.82876671198041
-0.1458300526373175 0.0 1.9858274563496827
-0.1574907228270114 0.0 2.144615570345103
-0.16924455387312312 0.0 2.3046722938156328
-0.18104488507156807 0.0 2.4653622288742945
-0.19285273029148575 0.0 2.626154485435817
-0.20463419644318787 0.0 2.786587527439105
-0.21635941311036042 0.0 2.946254597211264
-0.22800187245291292 0.0 3.104794726654784
-0.2395373860031508 0.0 3.2618785315144563
-0.25094183884717425 0.0 3.4171776291471745
-0.26217067408983236 0.0 3.5700852700924486
-0.2732542513733999 0.0 3.7210148740131266
-0.2841653116487242 0.0 3.8695952432907332
-0.29488785697287373 0.0 4.015608527394843
-0.3054088671881858 0.0 4.158877425514652
-0.31571598461429246 0.0 4.299233658063561
-0.3257963805115498 0.0 4.436502530848194
-0.3356360617312481 0.0 4.570493493440805
-0.34522820180483865 0.0 4.701113587027836
-0.35450344670846773 0.0 4.827418389507766
-0.3634550663001347 0.0 4.94931625378503
-0.3720594035864951 0.0 5.0664850329079645
-0.38028554287802807 0.0 5.178503735291008
-0.38813222066781594 0.0 5.285355155243814
-0.3954793797642859 0.0 5.385404424897618
-0.4023106782160037 0.0 5.4784290092175505
-0.4085496620468544 0.0 5.563387803148991
-0.41410684368517947 0.0 5.639062217837397
-0.41887174181229225 0.0 5.703947783990641
-0.42270242999911656 0.0 5.756111831390589
-0.4254917957480514 0.0 5.794095765359347
-0.4271440027125732 0.0 5.816594543179028
-0.42767966175931865 0.0 5.823888831448366
-0.4261251762827797 0.0 5.802720767088647
-0.4261186263406965 0.0 5.802631573849044
-0.4276626681085918 0.0 5.823657421957751
-0.4271165606693437 0.0 5.816220853655381
-0.4254541673060453 0.0 5.793583363478362
-0.42265499757076036 0.0 5.755465924618648
-0.41881472515045737 0.0 5.703171364792447
-0.41404142029065133 0.0 5.638171320722624
-0.40847671905852784 0.0 5.562394508650722
-0.4022309207365927 0.0 5.477342919007753
-0.3953933387048114 0.0 5.384232768608754
-0.38804014096660444 0.0 5.28410126830123
-0.3801879226060826 0.0 5.177174400131211
-0.3719571000374203 0.0 5.0650919236485175
-0.36334878094623035 0.0 4.947868922661067
-0.35439413914437684 0.0 4.825929903711918
-0.3451175247671939 0.0 4.699606452550631
-0.33552871272438345 0.0 4.569031678119556
-0.3256843807682825 0.0 4.4349773845476745