# vtk DataFile Version 4.0
[MyVLM domain - lattices] 
ASCII
DATASET UNSTRUCTURED_GRID
POINTS 302 float
1.2444999999999997 -1.2445 0.0
1.2399745454545452 -1.2399745454545454 0.0
1.2346178849721705 -1.2346178849721707 0.0
1.2284300185528754 -1.2284300185528756 0.0
1.2214109461966602 -1.2214109461966605 0.0
1.2135606679035247 -1.213560667903525 0.0
1.2048791836734691 -1.2048791836734694 0.0
1.1953664935064932 -1.1953664935064934 0.0
1.1850225974025972 -1.1850225974025974 0.0
1.1738474953617808 -1.173847495361781 0.0
1.1618411873840442 -1.1618411873840444 0.0
1.1490036734693874 -1.1490036734693876 0.0
1.1353349536178106 -1.1353349536178108 0.0
1.1208350278293133 -1.1208350278293135 0.0
1.1055038961038959 -1.105503896103896 0.0
1.0893415584415582 -1.0893415584415584 0.0
1.0723480148423004 -1.0723480148423006 0.0
1.054523265306122 -1.0545232653061223 0.0
1.0358673098330238 -1.035867309833024 0.0
1.0163801484230053 -1.0163801484230055 0.0
0.9960617810760664 -0.9960617810760668 0.0
0.9749122077922076 -0.9749122077922077 0.0
0.9529314285714284 -0.9529314285714284 0.0
0.9301194434137288 -0.930119443413729 0.0
0.9064762523191091 -0.9064762523191096 0.0
0.8820018552875695 -0.8820018552875695 0.0
0.8566962523191093 -0.8566962523191094 0.0
0.8305594434137288 -0.8305594434137291 0.0
0.8035914285714284 -0.8035914285714285 0.0
0.7757922077922076 -0.7757922077922077 0.0
0.7471617810760666 -0.7471617810760667 0.0
0.7177001484230053 -0.7177001484230054 0.0
0.6874073098330239 -0.687407309833024 0.0
0.6562832653061222 -0.6562832653061225 0.0
0.6243280148423004 -0.6243280148423005 0.0
0.5915415584415582 -0.5915415584415583 0.0
0.5579238961038958 -0.5579238961038959 0.0
0.5234750278293133 -0.5234750278293134 0.0
0.48819495361781057 -0.48819495361781057 0.0
0.4520836734693877 -0.4520836734693877 0.0
0.4151411873840445 -0.4151411873840446 0.0
0.37736749536178105 -0.37736749536178116 0.0
0.3387625974025974 -0.3387625974025974 0.0
0.2993264935064933 -0.29932649350649343 0.0
0.25905918367346925 -0.25905918367346925 0.0
0.21796066790352486 -0.21796066790352486 0.0
0.17603094619666027 -0.1760309461966605 0.0
0.13327001855287546 -0.13327001855287568 0.0
0.08967788497217066 -0.08967788497217066 0.0
0.045254545454545436 -0.045254545454545436 0.0
0.0 0.0 0.0
0.04525454545454545 0.04525454545454546 0.0
0.08967788497217066 0.08967788497217068 0.0
0.13327001855287568 0.1332700185528757 0.0
0.17603094619666046 0.1760309461966605 0.0
0.21796066790352497 0.21796066790352508 0.0
0.2590591836734693 0.25905918367346936 0.0
0.29932649350649343 0.2993264935064935 0.0
0.3387625974025973 0.33876259740259734 0.0
0.37736749536178094 0.377367495361781 0.0
0.41514118738404443 0.4151411873840445 0.0
0.45208367346938766 0.4520836734693878 0.0
0.48819495361781057 0.4881949536178107 0.0
0.5234750278293133 0.5234750278293134 0.0
0.5579238961038959 0.557923896103896 0.0
0.5915415584415582 0.5915415584415583 0.0
0.6243280148423003 0.6243280148423004 0.0
0.6562832653061222 0.6562832653061225 0.0
0.687407309833024 0.6874073098330241 0.0
0.7177001484230054 0.7177001484230056 0.0
0.7471617810760667 0.7471617810760669 0.0
0.7757922077922076 0.7757922077922077 0.0
0.8035914285714284 0.8035914285714285 0.0
0.8305594434137288 0.830559443413729 0.0
0.8566962523191093 0.8566962523191094 0.0
0.8820018552875692 0.8820018552875695 0.0
0.9064762523191091 0.9064762523191093 0.0
0.9301194434137288 0.9301194434137292 0.0
0.9529314285714284 0.9529314285714284 0.0
0.9749122077922076 0.9749122077922077 0.0
0.9960617810760666 0.9960617810760668 0.0
1.0163801484230053 1.0163801484230055 0.0
1.0358673098330238 1.035867309833024 0.0
1.054523265306122 1.0545232653061223 0.0
1.0723480148423001 1.0723480148423004 0.0
1.0893415584415582 1.0893415584415584 0.0
1.1055038961038959 1.105503896103896 0.0
1.120835027829313 1.1208350278293133 0.0
1.1353349536178106 1.1353349536178106 0.0
1.1490036734693874 1.1490036734693876 0.0
1.1618411873840444 1.1618411873840446 0.0
1.1738474953617808 1.173847495361781 0.0
1.1850225974025972 1.1850225974025972 0.0
1.1953664935064932 1.1953664935064934 0.0
1.2048791836734691 1.2048791836734694 0.0
1.2135606679035245 1.2135606679035247 0.0
1.22141094619666 1.2214109461966602 0.0
1.2284300185528754 1.2284300185528756 0.0
1.2346178849721703 1.2346178849721705 0.0
1.2399745454545452 1.2399745454545454 0.0
1.2444999999999997 1.2445 0.0
1.7422999999999997 -1.2445 0.0
1.7377745454545452 -1.2399745454545454 0.0
1.7324178849721703 -1.2346178849721707 0.0
1.7262300185528754 -1.2284300185528756 0.0
1.7192109461966603 -1.2214109461966605 0.0
1.7113606679035245 -1.213560667903525 0.0
1.7026791836734692 -1.2048791836734694 0.0
1.6931664935064934 -1.1953664935064934 0.0
1.6828225974025972 -1.1850225974025974 0.0
1.6716474953617806 -1.173847495361781 0.0
1.6596411873840444 -1.1618411873840444 0.0
1.6468036734693878 -1.1490036734693876 0.0
1.6331349536178106 -1.1353349536178108 0.0
1.6186350278293133 -1.1208350278293135 0.0
1.603303896103896 -1.105503896103896 0.0
1.5871415584415582 -1.0893415584415584 0.0
1.5701480148423004 -1.0723480148423006 0.0
1.552323265306122 -1.0545232653061223 0.0
1.5336673098330238 -1.035867309833024 0.0
1.5141801484230053 -1.0163801484230055 0.0
1.4938617810760666 -0.9960617810760668 0.0
1.4727122077922075 -0.9749122077922077 0.0
1.4507314285714283 -0.9529314285714284 0.0
1.4279194434137288 -0.930119443413729 0.0
1.4042762523191092 -0.9064762523191096 0.0
1.3798018552875693 -0.8820018552875695 0.0
1.3544962523191093 -0.8566962523191094 0.0
1.328359443413729 -0.8305594434137291 0.0
1.3013914285714283 -0.8035914285714285 0.0
1.2735922077922077 -0.7757922077922077 0.0
1.2449617810760665 -0.7471617810760667 0.0
1.2155001484230055 -0.7177001484230054 0.0
1.1852073098330238 -0.687407309833024 0.0
1.1540832653061224 -0.6562832653061225 0.0
1.1221280148423003 -0.6243280148423005 0.0
1.0893415584415582 -0.5915415584415583 0.0
1.055723896103896 -0.5579238961038959 0.0
1.0212750278293132 -0.5234750278293134 0.0
0.9859949536178108 -0.48819495361781057 0.0
0.9498836734693876 -0.4520836734693877 0.0
0.9129411873840445 -0.4151411873840446 0.0
0.875167495361781 -0.37736749536178116 0.0
0.8365625974025973 -0.3387625974025974 0.0
0.7971264935064933 -0.29932649350649343 0.0
0.7568591836734693 -0.25905918367346925 0.0
0.7157606679035249 -0.21796066790352486 0.0
0.6738309461966603 -0.1760309461966605 0.0
0.6310700185528755 -0.13327001855287568 0.0
0.5874778849721707 -0.08967788497217066 0.0
0.5430545454545455 -0.045254545454545436 0.0
0.4978 0.0 0.0
0.5430545454545455 0.04525454545454546 0.0
0.5874778849721707 0.08967788497217068 0.0
0.6310700185528757 0.1332700185528757 0.0
0.6738309461966605 0.1760309461966605 0.0
0.715760667903525 0.21796066790352508 0.0
0.7568591836734693 0.25905918367346936 0.0
0.7971264935064934 0.2993264935064935 0.0
0.8365625974025973 0.33876259740259734 0.0
0.875167495361781 0.377367495361781 0.0
0.9129411873840445 0.4151411873840445 0.0
0.9498836734693876 0.4520836734693878 0.0
0.9859949536178105 0.4881949536178107 0.0
1.0212750278293132 0.5234750278293134 0.0
1.055723896103896 0.557923896103896 0.0
1.0893415584415582 0.5915415584415583 0.0
1.1221280148423003 0.6243280148423004 0.0
1.1540832653061224 0.6562832653061225 0.0
1.185207309833024 0.6874073098330241 0.0
1.2155001484230055 0.7177001484230056 0.0
1.2449617810760667 0.7471617810760669 0.0
1.2735922077922077 0.7757922077922077 0.0
1.3013914285714283 0.8035914285714285 0.0
1.3283594434137287 0.830559443413729 0.0
1.3544962523191093 0.8566962523191094 0.0
1.3798018552875693 0.8820018552875695 0.0
1.4042762523191092 0.9064762523191093 0.0
1.427919443413729 0.9301194434137292 0.0
1.4507314285714283 0.9529314285714284 0.0
1.4727122077922075 0.9749122077922077 0.0
1.4938617810760666 0.9960617810760668 0.0
1.5141801484230053 1.0163801484230055 0.0
1.5336673098330238 1.035867309833024 0.0
1.552323265306122 1.0545232653061223 0.0
1.5701480148423002 1.0723480148423004 0.0
1.5871415584415582 1.0893415584415584 0.0
1.603303896103896 1.105503896103896 0.0
1.6186350278293131 1.1208350278293133 0.0
1.6331349536178106 1.1353349536178106 0.0
1.6468036734693874 1.1490036734693876 0.0
1.6596411873840444 1.1618411873840446 0.0
1.6716474953617806 1.173847495361781 0.0
1.6828225974025972 1.1850225974025972 0.0
1.6931664935064934 1.1953664935064934 0.0
1.7026791836734692 1.2048791836734694 0.0
1.7113606679035245 1.2135606679035247 0.0
1.71921094619666 1.2214109461966602 0.0
1.7262300185528754 1.2284300185528756 0.0
1.7324178849721703 1.2346178849721705 0.0
1.7377745454545452 1.2399745454545454 0.0
1.7422999999999997 1.2445 0.0
1.6155872727272724 -1.2422372727272726 0.0
1.6106462152133578 -1.237296215213358 0.0
1.604873951762523 -1.2315239517625232 0.0
1.598270482374768 -1.224920482374768 0.0
1.5908358070500925 -1.2174858070500927 0.0
1.582569925788497 -1.2092199257884972 0.0
1.5734728385899812 -1.2001228385899814 0.0
1.5635445454545454 -1.1901945454545453 0.0
1.552785046382189 -1.1794350463821892 0.0
1.5411943413729126 -1.1678443413729127 0.0
1.5287724304267158 -1.155422430426716 0.0
1.5155193135435991 -1.142169313543599 0.0
1.501434990723562 -1.1280849907235622 0.0
1.4865194619666047 -1.1131694619666048 0.0
1.4707727272727271 -1.0974227272727273 0.0
1.4541947866419294 -1.0808447866419293 0.0
1.4367856400742112 -1.0634356400742113 0.0
1.418545287569573 -1.0451952875695731 0.0
1.3994737291280146 -1.0261237291280147 0.0
1.379570964749536 -1.0062209647495362 0.0
1.358836994434137 -0.9854869944341371 0.0
1.337271818181818 -0.9639218181818181 0.0
1.3148754359925787 -0.9415254359925787 0.0
1.291647847866419 -0.9182978478664192 0.0
1.2675890538033394 -0.8942390538033393 0.0
1.2426990538033393 -0.8693490538033395 0.0
1.2169778478664193 -0.8436278478664192 0.0
1.1904254359925788 -0.8170754359925788 0.0
1.163041818181818 -0.7896918181818181 0.0
1.1348269944341371 -0.7614769944341371 0.0
1.105780964749536 -0.7324309647495362 0.0
1.0759037291280147 -0.7025537291280148 0.0
1.0451952875695731 -0.6718452875695733 0.0
1.0136556400742114 -0.6403056400742114 0.0
0.9812847866419293 -0.6079347866419293 0.0
0.9480827272727271 -0.5747327272727272 0.0
0.9140494619666047 -0.5406994619666048 0.0
0.8791849907235622 -0.5058349907235622 0.0
0.8434893135435992 -0.47013931354359917 0.0
0.8069624304267162 -0.43361243042671627 0.0
0.7696043413729128 -0.3962543413729128 0.0
0.7314150463821893 -0.3580650463821894 0.0
0.6923945454545455 -0.3190445454545454 0.0
0.6525428385899814 -0.27919283858998134 0.0
0.6118599257884971 -0.23850992578849706 0.0
0.5703458070500929 -0.19699580705009279 0.0
0.5280004823747682 -0.15465048237476808 0.0
0.4848239517625232 -0.11147395176252317 0.0
0.4408162152133581 -0.06746621521335805 0.0
0.39597727272727273 -0.022627272727272718 0.0
0.39597727272727273 0.02262727272727273 0.0
0.4408162152133581 0.06746621521335806 0.0
0.4848239517625232 0.11147395176252319 0.0
0.528000482374768 0.15465048237476808 0.0
0.5703458070500929 0.19699580705009276 0.0
0.6118599257884971 0.23850992578849717 0.0
0.6525428385899814 0.2791928385899814 0.0
0.6923945454545455 0.3190445454545454 0.0
0.7314150463821891 0.3580650463821891 0.0
0.7696043413729128 0.39625434137291277 0.0
0.8069624304267162 0.43361243042671616 0.0
0.8434893135435992 0.4701393135435992 0.0
0.8791849907235619 0.5058349907235621 0.0
0.9140494619666046 0.5406994619666047 0.0
0.9480827272727271 0.5747327272727272 0.0
0.9812847866419294 0.6079347866419295 0.0
1.0136556400742114 0.6403056400742114 0.0
1.0451952875695731 0.6718452875695732 0.0
1.0759037291280147 0.7025537291280147 0.0
1.105780964749536 0.7324309647495362 0.0
1.1348269944341371 0.7614769944341373 0.0
1.163041818181818 0.789691818181818 0.0
1.1904254359925786 0.8170754359925786 0.0
1.216977847866419 0.843627847866419 0.0
1.2426990538033393 0.8693490538033394 0.0
1.2675890538033392 0.8942390538033393 0.0
1.291647847866419 0.9182978478664192 0.0
1.3148754359925787 0.9415254359925787 0.0
1.3372718181818182 0.9639218181818181 0.0
1.3588369944341372 0.9854869944341373 0.0
1.379570964749536 1.0062209647495362 0.0
1.3994737291280148 1.0261237291280147 0.0
1.418545287569573 1.0451952875695731 0.0
1.4367856400742112 1.0634356400742113 0.0
1.4541947866419291 1.0808447866419293 0.0
1.470772727272727 1.097422727272727 0.0
1.4865194619666047 1.1131694619666048 0.0
1.501434990723562 1.128084990723562 0.0
1.5155193135435991 1.1421693135435993 0.0
1.528772430426716 1.1554224304267162 0.0
1.5411943413729128 1.1678443413729127 0.0
1.5527850463821888 1.179435046382189 0.0
1.5635445454545451 1.1901945454545453 0.0
1.573472838589981 1.2001228385899811 0.0
1.5825699257884969 1.209219925788497 0.0
1.5908358070500925 1.2174858070500927 0.0
1.5982704823747678 1.224920482374768 0.0
1.604873951762523 1.2315239517625232 0.0
1.6106462152133578 1.237296215213358 0.0
1.6155872727272724 1.2422372727272726 0.0

CELLS 200 700
4 0 101 102 1
4 1 102 103 2
4 2 103 104 3
4 3 104 105 4
4 4 105 106 5
4 5 106 107 6
4 6 107 108 7
4 7 108 109 8
4 8 109 110 9
4 9 110 111 10
4 10 111 112 11
4 11 112 113 12
4 12 113 114 13
4 13 114 115 14
4 14 115 116 15
4 15 116 117 16
4 16 117 118 17
4 17 118 119 18
4 18 119 120 19
4 19 120 121 20
4 20 121 122 21
4 21 122 123 22
4 22 123 124 23
4 23 124 125 24
4 24 125 126 25
4 25 126 127 26
4 26 127 128 27
4 27 128 129 28
4 28 129 130 29
4 29 130 131 30
4 30 131 132 31
4 31 132 133 32
4 32 133 134 33
4 33 134 135 34
4 34 135 136 35
4 35 136 137 36
4 36 137 138 37
4 37 138 139 38
4 38 139 140 39
4 39 140 141 40
4 40 141 142 41
4 41 142 143 42
4 42 143 144 43
4 43 144 145 44
4 44 145 146 45
4 45 146 147 46
4 46 147 148 47
4 47 148 149 48
4 48 149 150 49
4 49 150 151 50
4 50 151 152 51
4 51 152 153 52
4 52 153 154 53
4 53 154 155 54
4 54 155 156 55
4 55 156 157 56
4 56 157 158 57
4 57 158 159 58
4 58 159 160 59
4 59 160 161 60
4 60 161 162 61
4 61 162 163 62
4 62 163 164 63
4 63 164 165 64
4 64 165 166 65
4 65 166 167 66
4 66 167 168 67
4 67 168 169 68
4 68 169 170 69
4 69 170 171 70
4 70 171 172 71
4 71 172 173 72
4 72 173 174 73
4 73 174 175 74
4 74 175 176 75
4 75 176 177 76
4 76 177 178 77
4 77 178 179 78
4 78 179 180 79
4 79 180 181 80
4 80 181 182 81
4 81 182 183 82
4 82 183 184 83
4 83 184 185 84
4 84 185 186 85
4 85 186 187 86
4 86 187 188 87
4 87 188 189 88
4 88 189 190 89
4 89 190 191 90
4 90 191 192 91
4 91 192 193 92
4 92 193 194 93
4 93 194 195 94
4 94 195 196 95
4 95 196 197 96
4 96 197 198 97
4 97 198 199 98
4 98 199 200 99
4 99 200 201 100
1 202
1 203
1 204
1 205
1 206
1 207
1 208
1 209
1 210
1 211
1 212
1 213
1 214
1 215
1 216
1 217
1 218
1 219
1 220
1 221
1 222
1 223
1 224
1 225
1 226
1 227
1 228
1 229
1 230
1 231
1 232
1 233
1 234
1 235
1 236
1 237
1 238
1 239
1 240
1 241
1 242
1 243
1 244
1 245
1 246
1 247
1 248
1 249
1 250
1 251
1 252
1 253
1 254
1 255
1 256
1 257
1 258
1 259
1 260
1 261
1 262
1 263
1 264
1 265
1 266
1 267
1 268
1 269
1 270
1 271
1 272
1 273
1 274
1 275
1 276
1 277
1 278
1 279
1 280
1 281
1 282
1 283
1 284
1 285
1 286
1 287
1 288
1 289
1 290
1 291
1 292
1 293
1 294
1 295
1 296
1 297
1 298
1 299
1 300
1 301

CELL_TYPES 200
9
9
9
9
9
9
9
9
9
9
9
9
9
9
9
9
9
9
9
9
9
9
9
9
9
9
9
9
9
9
9
9
9
9
9
9
9
9
9
9
9
9
9
9
9
9
9
9
9
9
9
9
9
9
9
9
9
9
9
9
9
9
9
9
9
9
9
9
9
9
9
9
9
9
9
9
9
9
9
9
9
9
9
9
9
9
9
9
9
9
9
9
9
9
9
9
9
9
9
9
1
1
1
1
1
1
1
1
1
1
1
1
1
1
1
1
1
1
1
1
1
1
1
1
1
1
1
1
1
1
1
1
1
1
1
1
1
1
1
1
1
1
1
1
1
1
1
1
1
1
1
1
1
1
1
1
1
1
1
1
1
1
1
1
1
1
1
1
1
1
1
1
1
1
1
1
1
1
1
1
1
1
1
1
1
1
1
1
1
1
1
1
1
1
1
1
1
1
1
1

CELL_DATA 200

VECTORS Vinf float
49.5473787997102 0.038100641578154834 4.030957369316297
49.549393782342136 0.03880414265780454 3.999592362165725
49.55165351466342 0.03948426354524631 3.9641561900711584
49.55410960987699 0.04008951162037942 3.9252834562887755
49.55670775225884 0.04057250835254708 3.8836955677370284
49.55939081731623 0.04089410542467671 3.840162770345863
49.56210264746229 0.04102649784310774 3.795457772044315
49.564791737237435 0.040954587483023004 3.750310560067299
49.56741403310128 0.04067524615823767 3.7053744018747
49.569934296412164 0.04019473365657894 3.6612096094806206
49.57232593921402 0.03952509486743808 3.6182856371633583
49.5745697177131 0.03868061246187063 3.5769962485037827
49.57665193718029 0.03767519492243521 3.5376795682319226
49.57856278260365 0.03652105013906241 3.5006357446670773
49.580295114550445 0.03522842914558181 3.4661383635775005
49.581843741783864 0.03380590566972949 3.434439384437453
49.58320497018767 0.03226068412045078 3.4057696480663546
49.58319944781313 0.03286354263782961 3.3814870297543633
49.589544135794284 0.02645698863587238 3.3547588362284873
49.5904094839009 0.026760202886607923 3.3349255855999043
49.591178050912106 0.026630243470412204 3.316439392610353
49.59182766204609 0.02606316102453586 3.299755264033778
49.59234486357397 0.025053526579097766 3.2851871515341142
49.59272276302955 0.023592297599834087 3.2729593212688823
49.59296008807969 0.021665764751724822 3.263238834652035
49.59306037584631 0.01925433333453864 3.2561524386539196
49.59303020303986 0.016331089308077827 3.251797429697878
49.59088937651855 0.0230295688725848 3.238276497170263
49.59052148156457 0.021178234193668453 3.2344369550206387
49.590070867772596 0.019561863411915754 3.2320050404449714
49.58953426463075 0.018205696433502883 3.231016710879164
49.58890642903593 0.017138700490298295 3.231532025241063
49.58818479964109 0.016393377884502475 3.233640349289149
49.58737129963385 0.01600112476725639 3.2374463751366713
49.59162286946953 0.01165891613447864 3.247572422551864
49.590804610486266 0.010091567013180449 3.2524797007832094
49.58991827898678 0.008481932751569781 3.258844821230299
49.588927069800064 0.006831295699218876 3.2666705848612336
49.58779472193881 0.00516551688619663 3.276105184396907
49.586507011298785 0.0035226263344414897 3.287479300721977
49.583202634940946 0.0031327675007176816 3.3006374632558337
49.58174951355522 0.001758535593979483 3.318002081627512
49.580197534368665 0.0005827876297176951 3.3385728643368004
49.5784820700934 -0.0003495731622702022 3.3630470216592303
49.57656539417162 -0.000925322030494027 3.3917031867467413
49.57448989326413 -0.0010814961447326303 3.42338452378394
49.577870491520045 -0.001960969977542036 3.4505719841251903
49.576035729884865 -0.0016888871617163424 3.4727259429200648
49.57498698400497 -0.0009670050942153918 3.4813695971311778
49.574579041280025 -0.00029498752569741954 3.47977977644836
49.574598595076424 0.00046870571259166935 3.4796949936451176
49.57501741695827 0.0011409534529126459 3.4812017059021017
49.57607894345659 0.0018604023074284446 3.4724643765467125
49.577926561244034 0.0021265414213051674 3.4502248219624905
49.57461541763349 0.0013398989213675447 3.422890612351294
49.57673031451871 0.0011966426186130182 3.3911767092442804
49.578644617005544 0.0006278054255522488 3.362497017263374
49.58035900091852 -0.00030141313417215927 3.33801015215305
49.58191112713824 -0.0014775405706750693 3.3174247674484327
49.58336497119103 -0.0028547384633752664 3.3000392531075984
49.58670871129096 -0.0033187070007185257 3.2867848205473553
49.58800030380883 -0.00497440753773196 3.2753470918153647
49.589137563662845 -0.0066465721816269556 3.265837459479236
49.59013903259657 -0.008298865814202604 3.257929581226479
49.59104259868103 -0.009909961213209405 3.2514819959566923
49.591882978608304 -0.011482641464965625 3.2464994852395077
49.587027715878975 -0.01505689548817578 3.2378148739535573
49.587836534090144 -0.015478943823746231 3.2335386208322636
49.58854478434048 -0.016250046156242398 3.230989260568453
49.58915150124972 -0.017339690600634023 3.230044106717562
49.58966060663736 -0.01871622815996922 3.23059453170045
49.590078794452026 -0.020351467493178794 3.232561925957245
49.59041071352435 -0.022220663491353494 3.235894337923414
49.59286647401987 -0.016389881117039193 3.2487649524014235
49.59299046510675 -0.0194072776860819 3.2530282563918047
49.59296666340153 -0.021891352342082185 3.2600026212323296
49.59279240326003 -0.023870697924271565 3.2695829523297064
49.59246800604863 -0.02536762888538656 3.281637040342173
49.59199772883389 -0.026399455089104826 3.2959939482309384
49.5913900730056 -0.026978954561634953 3.312427021496808
49.59065887088668 -0.027114681569348126 3.33062169774735
49.58982600833249 -0.026812785085585166 3.350124370592975
49.58162734517499 -0.030989443944896073 3.3793289736001286
49.581671699430224 -0.0305639540681814 3.4031063958230376
49.58040383101811 -0.032231339814794945 3.4313457620443732
49.57892837742136 -0.033755909887094135 3.462653915513805
49.57725117102227 -0.03513254409298539 3.4967967968354134
49.57537954301361 -0.03635463476727373 3.5335193303786525
49.573322731566265 -0.037413801657739804 3.57254488305712
49.571092576594026 -0.038299620228400416 3.6135704140098306
49.5687046995894 -0.038999877997779264 3.656255170044859
49.566180155268164 -0.03950189703769637 3.700203102250804
49.56354721414692 -0.03979513961629074 3.7449428503861957
49.56084266096539 -0.039874747684057285 3.789912575473733
49.55811195508373 -0.03974513770161683 3.8344578329009154
49.55540786794409 -0.039422576044212704 3.8778477552704684
49.552787687470506 -0.03893591232806632 3.919308981096622
49.55030953958194 -0.03832521585080531 3.958070759676013
49.54802862011522 -0.037638665669642385 3.9934112561725454
49.54599408146252 -0.03692843973620653 4.024695462832868
49.5473787997102 0.038100641578154834 4.030957369316297
49.549393782342136 0.03880414265780454 3.999592362165725
49.55165351466342 0.03948426354524631 3.9641561900711584
49.55410960987699 0.04008951162037942 3.9252834562887755
49.55670775225884 0.04057250835254708 3.8836955677370284
49.55939081731623 0.04089410542467671 3.840162770345863
49.56210264746229 0.04102649784310774 3.795457772044315
49.564791737237435 0.040954587483023004 3.750310560067299
49.56741403310128 0.04067524615823767 3.7053744018747
49.569934296412164 0.04019473365657894 3.6612096094806206
49.57232593921402 0.03952509486743808 3.6182856371633583
49.5745697177131 0.03868061246187063 3.5769962485037827
49.57665193718029 0.03767519492243521 3.5376795682319226
49.57856278260365 0.03652105013906241 3.5006357446670773
49.580295114550445 0.03522842914558181 3.4661383635775005
49.581843741783864 0.03380590566972949 3.434439384437453
49.58320497018767 0.03226068412045078 3.4057696480663546
49.58319944781313 0.03286354263782961 3.3814870297543633
49.589544135794284 0.02645698863587238 3.3547588362284873
49.5904094839009 0.026760202886607923 3.3349255855999043
49.591178050912106 0.026630243470412204 3.316439392610353
49.59182766204609 0.02606316102453586 3.299755264033778
49.59234486357397 0.025053526579097766 3.2851871515341142
49.59272276302955 0.023592297599834087 3.2729593212688823
49.59296008807969 0.021665764751724822 3.263238834652035
49.59306037584631 0.01925433333453864 3.2561524386539196
49.59303020303986 0.016331089308077827 3.251797429697878
49.59088937651855 0.0230295688725848 3.238276497170263
49.59052148156457 0.021178234193668453 3.2344369550206387
49.590070867772596 0.019561863411915754 3.2320050404449714
49.58953426463075 0.018205696433502883 3.231016710879164
49.58890642903593 0.017138700490298295 3.231532025241063
49.58818479964109 0.016393377884502475 3.233640349289149
49.58737129963385 0.01600112476725639 3.2374463751366713
49.59162286946953 0.01165891613447864 3.247572422551864
49.590804610486266 0.010091567013180449 3.2524797007832094
49.58991827898678 0.008481932751569781 3.258844821230299
49.588927069800064 0.006831295699218876 3.2666705848612336
49.58779472193881 0.00516551688619663 3.276105184396907
49.586507011298785 0.0035226263344414897 3.287479300721977
49.583202634940946 0.0031327675007176816 3.3006374632558337
49.58174951355522 0.001758535593979483 3.318002081627512
49.580197534368665 0.0005827876297176951 3.3385728643368004
49.5784820700934 -0.0003495731622702022 3.3630470216592303
49.57656539417162 -0.000925322030494027 3.3917031867467413
49.57448989326413 -0.0010814961447326303 3.42338452378394
49.577870491520045 -0.001960969977542036 3.4505719841251903
49.576035729884865 -0.0016888871617163424 3.4727259429200648
49.57498698400497 -0.0009670050942153918 3.4813695971311778
49.574579041280025 -0.00029498752569741954 3.47977977644836
49.574598595076424 0.00046870571259166935 3.4796949936451176
49.57501741695827 0.0011409534529126459 3.4812017059021017
49.57607894345659 0.0018604023074284446 3.4724643765467125
49.577926561244034 0.0021265414213051674 3.4502248219624905
49.57461541763349 0.0013398989213675447 3.422890612351294
49.57673031451871 0.0011966426186130182 3.3911767092442804
49.578644617005544 0.0006278054255522488 3.362497017263374
49.58035900091852 -0.00030141313417215927 3.33801015215305
49.58191112713824 -0.0014775405706750693 3.3174247674484327
49.58336497119103 -0.0028547384633752664 3.3000392531075984
49.58670871129096 -0.0033187070007185257 3.2867848205473553
49.58800030380883 -0.00497440753773196 3.2753470918153647
49.589137563662845 -0.0066465721816269556 3.265837459479236
49.59013903259657 -0.008298865814202604 3.257929581226479
49.59104259868103 -0.009909961213209405 3.2514819959566923
49.591882978608304 -0.011482641464965625 3.2464994852395077
49.587027715878975 -0.01505689548817578 3.2378148739535573
49.587836534090144 -0.015478943823746231 3.2335386208322636
49.58854478434048 -0.016250046156242398 3.230989260568453
49.58915150124972 -0.017339690600634023 3.230044106717562
49.58966060663736 -0.01871622815996922 3.23059453170045
49.590078794452026 -0.020351467493178794 3.232561925957245
49.59041071352435 -0.022220663491353494 3.235894337923414
49.59286647401987 -0.016389881117039193 3.2487649524014235
49.59299046510675 -0.0194072776860819 3.2530282563918047
49.59296666340153 -0.021891352342082185 3.2600026212323296
49.59279240326003 -0.023870697924271565 3.2695829523297064
49.59246800604863 -0.02536762888538656 3.281637040342173
49.59199772883389 -0.026399455089104826 3.2959939482309384
49.5913900730056 -0.026978954561634953 3.312427021496808
49.59065887088668 -0.027114681569348126 3.33062169774735
49.58982600833249 -0.026812785085585166 3.350124370592975
49.58162734517499 -0.030989443944896073 3.3793289736001286
49.581671699430224 -0.0305639540681814 3.4031063958230376
49.58040383101811 -0.032231339814794945 3.4313457620443732
49.57892837742136 -0.033755909887094135 3.462653915513805
49.57725117102227 -0.03513254409298539 3.4967967968354134
49.57537954301361 -0.03635463476727373 3.5335193303786525
49.573322731566265 -0.037413801657739804 3.57254488305712
49.571092576594026 -0.038299620228400416 3.6135704140098306
49.5687046995894 -0.038999877997779264 3.656255170044859
49.566180155268164 -0.03950189703769637 3.700203102250804
49.56354721414692 -0.03979513961629074 3.7449428503861957
49.56084266096539 -0.039874747684057285 3.789912575473733
49.55811195508373 -0.03974513770161683 3.8344578329009154
49.55540786794409 -0.039422576044212704 3.8778477552704684
49.552787687470506 -0.03893591232806632 3.919308981096622
49.55030953958194 -0.03832521585080531 3.958070759676013
49.54802862011522 -0.037638665669642385 3.9934112561725454
49.54599408146252 -0.03692843973620653 4.024695462832868

VECTORS L float
-0.006250218054224712 0.0 0.08511177494477408
-0.011283795315266432 0.0 0.15365605472703472
-0.016679769443314833 0.0 0.22713524083060604
-0.02261961333621533 0.0 0.30802052390931733
-0.029143692304503543 0.0 0.39686157490201873
-0.036254168857834716 0.0 0.493687841586931
-0.04393772583676218 0.0 0.5983179787585118
-0.05217220564106974 0.0 0.7104502573144234
-0.06092955055582829 0.0 0.8297026038777381
-0.07017683156420865 0.0 0.9556266105616904
-0.07987693295379719 0.0 1.0877168575338112
-0.08998909632126163 0.0 1.2254183209499032
-0.10046952439810017 0.0 1.368134595496171
-0.11127209163504775 0.0 1.5152375707076366
-0.12234926298549446 0.0 1.666079942417637
-0.13365312339364213 0.0 1.8200092317190077
-0.14513638465118983 0.0 1.9763814957432713
-0.1567533010185439 0.0 2.1345737960490476
-0.16845450343483984 0.0 2.2939138539476454
-0.18020744122113735 0.0 2.4539584135340338
-0.19197008698203552 0.0 2.614135170580128
-0.20370785083288556 0.0 2.773973100482939
-0.21539069752669315 0.0 2.933063201002798
-0.2269927430937105 0.0 3.091052999539752
-0.23849079688866848 0.0 3.247626699594567
-0.24986309405701776 0.0 3.4024879202432436
-0.26108612148474464 0.0 3.555316473797798
-0.27210711947722793 0.0 3.705393909923248
-0.2829805164882149 0.0 3.8534614031299457
-0.2936710841829267 0.0 3.999039234778421
-0.3041643733977999 0.0 4.141930644700198
-0.3144476199372534 0.0 4.281961817624797
-0.3245078178276575 0.0 4.418955645891189
-0.33433089991448955 0.0 4.552720571304211
-0.3439049134900448 0.0 4.683093828955611
-0.35318029195419853 0.0 4.8094004501838175
-0.362130106654324 0.0 4.931273736514944
-0.37073467383348324 0.0 5.048445646182124
-0.3789635316791857 0.0 5.1605013682289025
-0.3868172872668824 0.0 5.2674491694499315
-0.39416933202793514 0.0 5.367564969196096
-0.4010145169500691 0.0 5.460778651261832
-0.4072728739998838 0.0 5.546001258237572
-0.4128539841291144 0.0 5.622001516970946
-0.417647197812907 0.0 5.687272667637667
-0.4215181562991289 0.0 5.739985092170951
-0.4243102849136519 0.0 5.778006649210151
-0.42597661802139675 0.0 5.80069778849825
-0.4265288018816198 0.0 5.808217101909671
-0.42499778895840185 0.0 5.787368672906401
-0.4249913165691293 0.0 5.78728053573513
-0.42651092037454763 0.0 5.80797360211616
-0.4259470345351067 0.0 5.800294938068816
-0.42426932642478493 0.0 5.7774489007194125
-0.4214660651930359 0.0 5.739275746279343
-0.4175859413414488 0.0 5.686438513218184
-0.4127847916662963 0.0 5.621059294912104
-0.407196631363128 0.0 5.5449630310774225
-0.40093175831982253 0.0 5.459651693153943
-0.3940803086173898 0.0 5.3663527010132235
-0.38672192778908115 0.0 5.266150620448431
-0.37886215133386414 0.0 5.159120830612459
-0.3706280128803881 0.0 5.046993200370398
-0.36201878834878537 0.0 4.929757869630615
-0.35306533885540003 0.0 4.80783508683341
-0.34378877662928975 0.0 4.681512345834603
-0.33421465026001906 0.0 4.551137552225058