# vtk DataFile Version 4.0
[MyVLM domain - lattices] 
ASCII
DATASET UNSTRUCTURED_GRID
POINTS 302 float
1.2444999999999997 -1.2445 0.0
1.2399745454545452 -1.2399745454545454 0.0
1.2346178849721705 -1.2346178849721707 0.0
1.2284300185528754 -1.2284300185528756 0.0
1.2214109461966602 -1.2214109461966605 0.0
1.2135606679035247 -1.213560667903525 0.0
1.2048791836734691 -1.2048791836734694 0.0
1.1953664935064932 -1.1953664935064934 0.0
1.1850225974025972 -1.1850225974025974 0.0
1.1738474953617808 -1.173847495361781 0.0
1.1618411873840442 -1.1618411873840444 0.0
1.1490036734693874 -1.1490036734693876 0.0
1.1353349536178106 -1.1353349536178108 0.0
1.1208350278293133 -1.1208350278293135 0.0
1.1055038961038959 -1.105503896103896 0.0
1.0893415584415582 -1.0893415584415584 0.0
1.0723480148423004 -1.0723480148423006 0.0
1.054523265306122 -1.0545232653061223 0.0
1.0358673098330238 -1.035867309833024 0.0
1.0163801484230053 -1.0163801484230055 0.0
0.9960617810760664 -0.9960617810760668 0.0
0.9749122077922076 -0.9749122077922077 0.0
0.9529314285714284 -0.9529314285714284 0.0
0.9301194434137288 -0.930119443413729 0.0
0.9064762523191091 -0.9064762523191096 0.0
0.8820018552875695 -0.8820018552875695 0.0
0.8566962523191093 -0.8566962523191094 0.0
0.8305594434137288 -0.8305594434137291 0.0
0.8035914285714284 -0.8035914285714285 0.0
0.7757922077922076 -0.7757922077922077 0.0
0.7471617810760666 -0.7471617810760667 0.0
0.7177001484230053 -0.7177001484230054 0.0
0.6874073098330239 -0.687407309833024 0.0
0.6562832653061222 -0.6562832653061225 0.0
0.6243280148423004 -0.6243280148423005 0.0
0.5915415584415582 -0.5915415584415583 0.0
0.5579238961038958 -0.5579238961038959 0.0
0.5234750278293133 -0.5234750278293134 0.0
0.48819495361781057 -0.48819495361781057 0.0
0.4520836734693877 -0.4520836734693877 0.0
0.4151411873840445 -0.4151411873840446 0.0
0.37736749536178105 -0.37736749536178116 0.0
0.3387625974025974 -0.3387625974025974 0.0
0.2993264935064933 -0.29932649350649343 0.0
0.25905918367346925 -0.25905918367346925 0.0
0.21796066790352486 -0.21796066790352486 0.0
0.17603094619666027 -0.1760309461966605 0.0
0.13327001855287546 -0.13327001855287568 0.0
0.08967788497217066 -0.08967788497217066 0.0
0.045254545454545436 -0.045254545454545436 0.0
0.0 0.0 0.0
0.04525454545454545 0.04525454545454546 0.0
0.08967788497217066 0.08967788497217068 0.0
0.13327001855287568 0.1332700185528757 0.0
0.17603094619666046 0.1760309461966605 0.0
0.21796066790352497 0.21796066790352508 0.0
0.2590591836734693 0.25905918367346936 0.0
0.29932649350649343 0.2993264935064935 0.0
0.3387625974025973 0.33876259740259734 0.0
0.37736749536178094 0.377367495361781 0.0
0.41514118738404443 0.4151411873840445 0.0
0.45208367346938766 0.4520836734693878 0.0
0.48819495361781057 0.4881949536178107 0.0
0.5234750278293133 0.5234750278293134 0.0
0.5579238961038959 0.557923896103896 0.0
0.5915415584415582 0.5915415584415583 0.0
0.6243280148423003 0.6243280148423004 0.0
0.6562832653061222 0.6562832653061225 0.0
0.687407309833024 0.6874073098330241 0.0
0.7177001484230054 0.7177001484230056 0.0
0.7471617810760667 0.7471617810760669 0.0
0.7757922077922076 0.7757922077922077 0.0
0.8035914285714284 0.8035914285714285 0.0
0.8305594434137288 0.830559443413729 0.0
0.8566962523191093 0.8566962523191094 0.0
0.8820018552875692 0.8820018552875695 0.0
0.9064762523191091 0.9064762523191093 0.0
0.9301194434137288 0.9301194434137292 0.0
0.9529314285714284 0.9529314285714284 0.0
0.9749122077922076 0.9749122077922077 0.0
0.9960617810760666 0.9960617810760668 0.0
1.0163801484230053 1.0163801484230055 0.0
1.0358673098330238 1.035867309833024 0.0
1.054523265306122 1.0545232653061223 0.0
1.0723480148423001 1.0723480148423004 0.0
1.0893415584415582 1.0893415584415584 0.0
1.1055038961038959 1.105503896103896 0.0
1.120835027829313 1.1208350278293133 0.0
1.1353349536178106 1.1353349536178106 0.0
1.1490036734693874 1.1490036734693876 0.0
1.1618411873840444 1.1618411873840446 0.0
1.1738474953617808 1.173847495361781 0.0
1.1850225974025972 1.1850225974025972 0.0
1.1953664935064932 1.1953664935064934 0.0
1.2048791836734691 1.2048791836734694 0.0
1.2135606679035245 1.2135606679035247 0.0
1.22141094619666 1.2214109461966602 0.0
1.2284300185528754 1.2284300185528756 0.0
1.2346178849721703 1.2346178849721705 0.0
1.2399745454545452 1.2399745454545454 0.0
1.2444999999999997 1.2445 0.0
1.7422999999999997 -1.2445 0.0
1.7377745454545452 -1.2399745454545454 0.0
1.7324178849721703 -1.2346178849721707 0.0
1.7262300185528754 -1.2284300185528756 0.0
1.7192109461966603 -1.2214109461966605 0.0
1.7113606679035245 -1.213560667903525 0.0
1.7026791836734692 -1.2048791836734694 0.0
1.6931664935064934 -1.1953664935064934 0.0
1.6828225974025972 -1.1850225974025974 0.0
1.6716474953617806 -1.173847495361781 0.0
1.6596411873840444 -1.1618411873840444 0.0
1.6468036734693878 -1.1490036734693876 0.0
1.6331349536178106 -1.1353349536178108 0.0
1.6186350278293133 -1.1208350278293135 0.0
1.603303896103896 -1.105503896103896 0.0
1.5871415584415582 -1.0893415584415584 0.0
1.5701480148423004 -1.0723480148423006 0.0
1.552323265306122 -1.0545232653061223 0.0
1.5336673098330238 -1.035867309833024 0.0
1.5141801484230053 -1.0163801484230055 0.0
1.4938617810760666 -0.9960617810760668 0.0
1.4727122077922075 -0.9749122077922077 0.0
1.4507314285714283 -0.9529314285714284 0.0
1.4279194434137288 -0.930119443413729 0.0
1.4042762523191092 -0.9064762523191096 0.0
1.3798018552875693 -0.8820018552875695 0.0
1.3544962523191093 -0.8566962523191094 0.0
1.328359443413729 -0.8305594434137291 0.0
1.3013914285714283 -0.8035914285714285 0.0
1.2735922077922077 -0.7757922077922077 0.0
1.2449617810760665 -0.7471617810760667 0.0
1.2155001484230055 -0.7177001484230054 0.0
1.1852073098330238 -0.687407309833024 0.0
1.1540832653061224 -0.6562832653061225 0.0
1.1221280148423003 -0.6243280148423005 0.0
1.0893415584415582 -0.5915415584415583 0.0
1.055723896103896 -0.5579238961038959 0.0
1.0212750278293132 -0.5234750278293134 0.0
0.9859949536178108 -0.48819495361781057 0.0
0.9498836734693876 -0.4520836734693877 0.0
0.9129411873840445 -0.4151411873840446 0.0
0.875167495361781 -0.37736749536178116 0.0
0.8365625974025973 -0.3387625974025974 0.0
0.7971264935064933 -0.29932649350649343 0.0
0.7568591836734693 -0.25905918367346925 0.0
0.7157606679035249 -0.21796066790352486 0.0
0.6738309461966603 -0.1760309461966605 0.0
0.6310700185528755 -0.13327001855287568 0.0
0.5874778849721707 -0.08967788497217066 0.0
0.5430545454545455 -0.045254545454545436 0.0
0.4978 0.0 0.0
0.5430545454545455 0.04525454545454546 0.0
0.5874778849721707 0.08967788497217068 0.0
0.6310700185528757 0.1332700185528757 0.0
0.6738309461966605 0.1760309461966605 0.0
0.715760667903525 0.21796066790352508 0.0
0.7568591836734693 0.25905918367346936 0.0
0.7971264935064934 0.2993264935064935 0.0
0.8365625974025973 0.33876259740259734 0.0
0.875167495361781 0.377367495361781 0.0
0.9129411873840445 0.4151411873840445 0.0
0.9498836734693876 0.4520836734693878 0.0
0.9859949536178105 0.4881949536178107 0.0
1.0212750278293132 0.5234750278293134 0.0
1.055723896103896 0.557923896103896 0.0
1.0893415584415582 0.5915415584415583 0.0
1.1221280148423003 0.6243280148423004 0.0
1.1540832653061224 0.6562832653061225 0.0
1.185207309833024 0.6874073098330241 0.0
1.2155001484230055 0.7177001484230056 0.0
1.2449617810760667 0.7471617810760669 0.0
1.2735922077922077 0.7757922077922077 0.0
1.3013914285714283 0.8035914285714285 0.0
1.3283594434137287 0.830559443413729 0.0
1.3544962523191093 0.8566962523191094 0.0
1.3798018552875693 0.8820018552875695 0.0
1.4042762523191092 0.9064762523191093 0.0
1.427919443413729 0.9301194434137292 0.0
1.4507314285714283 0.9529314285714284 0.0
1.4727122077922075 0.9749122077922077 0.0
1.4938617810760666 0.9960617810760668 0.0
1.5141801484230053 1.0163801484230055 0.0
1.5336673098330238 1.035867309833024 0.0
1.552323265306122 1.0545232653061223 0.0
1.5701480148423002 1.0723480148423004 0.0
1.5871415584415582 1.0893415584415584 0.0
1.603303896103896 1.105503896103896 0.0
1.6186350278293131 1.1208350278293133 0.0
1.6331349536178106 1.1353349536178106 0.0
1.6468036734693874 1.1490036734693876 0.0
1.6596411873840444 1.1618411873840446 0.0
1.6716474953617806 1.173847495361781 0.0
1.6828225974025972 1.1850225974025972 0.0
1.6931664935064934 1.1953664935064934 0.0
1.7026791836734692 1.2048791836734694 0.0
1.7113606679035245 1.2135606679035247 0.0
1.71921094619666 1.2214109461966602 0.0
1.7262300185528754 1.2284300185528756 0.0
1.7324178849721703 1.2346178849721705 0.0
1.7377745454545452 1.2399745454545454 0.0
1.7422999999999997 1.2445 0.0
1.6155872727272724 -1.2422372727272726 0.0
1.6106462152133578 -1.237296215213358 0.0
1.604873951762523 -1.2315239517625232 0.0
1.598270482374768 -1.224920482374768 0.0
1.5908358070500925 -1.2174858070500927 0.0
1.582569925788497 -1.2092199257884972 0.0
1.5734728385899812 -1.2001228385899814 0.0
1.5635445454545454 -1.1901945454545453 0.0
1.552785046382189 -1.1794350463821892 0.0
1.5411943413729126 -1.1678443413729127 0.0
1.5287724304267158 -1.155422430426716 0.0
1.5155193135435991 -1.142169313543599 0.0
1.501434990723562 -1.1280849907235622 0.0
1.4865194619666047 -1.1131694619666048 0.0
1.4707727272727271 -1.0974227272727273 0.0
1.4541947866419294 -1.0808447866419293 0.0
1.4367856400742112 -1.0634356400742113 0.0
1.418545287569573 -1.0451952875695731 0.0
1.3994737291280146 -1.0261237291280147 0.0
1.379570964749536 -1.0062209647495362 0.0
1.358836994434137 -0.9854869944341371 0.0
1.337271818181818 -0.9639218181818181 0.0
1.3148754359925787 -0.9415254359925787 0.0
1.291647847866419 -0.9182978478664192 0.0
1.2675890538033394 -0.8942390538033393 0.0
1.2426990538033393 -0.8693490538033395 0.0
1.2169778478664193 -0.8436278478664192 0.0
1.1904254359925788 -0.8170754359925788 0.0
1.163041818181818 -0.7896918181818181 0.0
1.1348269944341371 -0.7614769944341371 0.0
1.105780964749536 -0.7324309647495362 0.0
1.0759037291280147 -0.7025537291280148 0.0
1.0451952875695731 -0.6718452875695733 0.0
1.0136556400742114 -0.6403056400742114 0.0
0.9812847866419293 -0.6079347866419293 0.0
0.9480827272727271 -0.5747327272727272 0.0
0.9140494619666047 -0.5406994619666048 0.0
0.8791849907235622 -0.5058349907235622 0.0
0.8434893135435992 -0.47013931354359917 0.0
0.8069624304267162 -0.43361243042671627 0.0
0.7696043413729128 -0.3962543413729128 0.0
0.7314150463821893 -0.3580650463821894 0.0
0.6923945454545455 -0.3190445454545454 0.0
0.6525428385899814 -0.27919283858998134 0.0
0.6118599257884971 -0.23850992578849706 0.0
0.5703458070500929 -0.19699580705009279 0.0
0.5280004823747682 -0.15465048237476808 0.0
0.4848239517625232 -0.11147395176252317 0.0
0.4408162152133581 -0.06746621521335805 0.0
0.39597727272727273 -0.022627272727272718 0.0
0.39597727272727273 0.02262727272727273 0.0
0.4408162152133581 0.06746621521335806 0.0
0.4848239517625232 0.11147395176252319 0.0
0.528000482374768 0.15465048237476808 0.0
0.5703458070500929 0.19699580705009276 0.0
0.6118599257884971 0.23850992578849717 0.0
0.6525428385899814 0.2791928385899814 0.0
0.6923945454545455 0.3190445454545454 0.0
0.7314150463821891 0.3580650463821891 0.0
0.7696043413729128 0.39625434137291277 0.0
0.8069624304267162 0.43361243042671616 0.0
0.8434893135435992 0.4701393135435992 0.0
0.8791849907235619 0.5058349907235621 0.0
0.9140494619666046 0.5406994619666047 0.0
0.9480827272727271 0.5747327272727272 0.0
0.9812847866419294 0.6079347866419295 0.0
1.0136556400742114 0.6403056400742114 0.0
1.0451952875695731 0.6718452875695732 0.0
1.0759037291280147 0.7025537291280147 0.0
1.105780964749536 0.7324309647495362 0.0
1.1348269944341371 0.7614769944341373 0.0
1.163041818181818 0.789691818181818 0.0
1.1904254359925786 0.8170754359925786 0.0
1.216977847866419 0.843627847866419 0.0
1.2426990538033393 0.8693490538033394 0.0
1.2675890538033392 0.8942390538033393 0.0
1.291647847866419 0.9182978478664192 0.0
1.3148754359925787 0.9415254359925787 0.0
1.3372718181818182 0.9639218181818181 0.0
1.3588369944341372 0.9854869944341373 0.0
1.379570964749536 1.0062209647495362 0.0
1.3994737291280148 1.0261237291280147 0.0
1.418545287569573 1.0451952875695731 0.0
1.4367856400742112 1.0634356400742113 0.0
1.4541947866419291 1.0808447866419293 0.0
1.470772727272727 1.097422727272727 0.0
1.4865194619666047 1.1131694619666048 0.0
1.501434990723562 1.128084990723562 0.0
1.5155193135435991 1.1421693135435993 0.0
1.528772430426716 1.1554224304267162 0.0
1.5411943413729128 1.1678443413729127 0.0
1.5527850463821888 1.179435046382189 0.0
1.5635445454545451 1.1901945454545453 0.0
1.573472838589981 1.2001228385899811 0.0
1.5825699257884969 1.209219925788497 0.0
1.5908358070500925 1.2174858070500927 0.0
1.5982704823747678 1.224920482374768 0.0
1.604873951762523 1.2315239517625232 0.0
1.6106462152133578 1.237296215213358 0.0
1.6155872727272724 1.2422372727272726 0.0

CELLS 200 700
4 0 101 102 1
4 1 102 103 2
4 2 103 104 3
4 3 104 105 4
4 4 105 106 5
4 5 106 107 6
4 6 107 108 7
4 7 108 109 8
4 8 109 110 9
4 9 110 111 10
4 10 111 112 11
4 11 112 113 12
4 12 113 114 13
4 13 114 115 14
4 14 115 116 15
4 15 116 117 16
4 16 117 118 17
4 17 118 119 18
4 18 119 120 19
4 19 120 121 20
4 20 121 122 21
4 21 122 123 22
4 22 123 124 23
4 23 124 125 24
4 24 125 126 25
4 25 126 127 26
4 26 127 128 27
4 27 128 129 28
4 28 129 130 29
4 29 130 131 30
4 30 131 132 31
4 31 132 133 32
4 32 133 134 33
4 33 134 135 34
4 34 135 136 35
4 35 136 137 36
4 36 137 138 37
4 37 138 139 38
4 38 139 140 39
4 39 140 141 40
4 40 141 142 41
4 41 142 143 42
4 42 143 144 43
4 43 144 145 44
4 44 145 146 45
4 45 146 147 46
4 46 147 148 47
4 47 148 149 48
4 48 149 150 49
4 49 150 151 50
4 50 151 152 51
4 51 152 153 52
4 52 153 154 53
4 53 154 155 54
4 54 155 156 55
4 55 156 157 56
4 56 157 158 57
4 57 158 159 58
4 58 159 160 59
4 59 160 161 60
4 60 161 162 61
4 61 162 163 62
4 62 163 164 63
4 63 164 165 64
4 64 165 166 65
4 65 166 167 66
4 66 167 168 67
4 67 168 169 68
4 68 169 170 69
4 69 170 171 70
4 70 171 172 71
4 71 172 173 72
4 72 173 174 73
4 73 174 175 74
4 74 175 176 75
4 75 176 177 76
4 76 177 178 77
4 77 178 179 78
4 78 179 180 79
4 79 180 181 80
4 80 181 182 81
4 81 182 183 82
4 82 183 184 83
4 83 184 185 84
4 84 185 186 85
4 85 186 187 86
4 86 187 188 87
4 87 188 189 88
4 88 189 190 89
4 89 190 191 90
4 90 191 192 91
4 91 192 193 92
4 92 193 194 93
4 93 194 195 94
4 94 195 196 95
4 95 196 197 96
4 96 197 198 97
4 97 198 199 98
4 98 199 200 99
4 99 200 201 100
1 202
1 203
1 204
1 205
1 206
1 207
1 208
1 209
1 210
1 211
1 212
1 213
1 214
1 215
1 216
1 217
1 218
1 219
1 220
1 221
1 222
1 223
1 224
1 225
1 226
1 227
1 228
1 229
1 230
1 231
1 232
1 233
1 234
1 235
1 236
1 237
1 238
1 239
1 240
1 241
1 242
1 243
1 244
1 245
1 246
1 247
1 248
1 249
1 250
1 251
1 252
1 253
1 254
1 255
1 256
1 257
1 258
1 259
1 260
1 261
1 262
1 263
1 264
1 265
1 266
1 267
1 268
1 269
1 270
1 271
1 272
1 273
1 274
1 275
1 276
1 277
1 278
1 279
1 280
1 281
1 282
1 283
1 284
1 285
1 286
1 287
1 288
1 289
1 290
1 291
1 292
1 293
1 294
1 295
1 296
1 297
1 298
1 299
1 300
1 301

CELL_TYPES 200
9
9
9
9
9
9
9
9
9
9
9
9
9
9
9
9
9
9
9
9
9
9
9
9
9
9
9
9
9
9
9
9
9
9
9
9
9
9
9
9
9
9
9
9
9
9
9
9
9
9
9
9
9
9
9
9
9
9
9
9
9
9
9
9
9
9
9
9
9
9
9
9
9
9
9
9
9
9
9
9
9
9
9
9
9
9
9
9
9
9
9
9
9
9
9
9
9
9
9
9
1
1
1
1
1
1
1
1
1
1
1
1
1
1
1
1
1
1
1
1
1
1
1
1
1
1
1
1
1
1
1
1
1
1
1
1
1
1
1
1
1
1
1
1
1
1
1
1
1
1
1
1
1
1
1
1
1
1
1
1
1
1
1
1
1
1
1
1
1
1
1
1
1
1
1
1
1
1
1
1
1
1
1
1
1
1
1
1
1
1
1
1
1
1
1
1
1
1
1
1

CELL_DATA 200

VECTORS Vinf float
49.53005209800375 0.028857008257157625 4.310873987593995
49.532504624329576 0.029889887742682537 4.27588192212751
49.53525432164395 0.030932966589427572 4.23640562473071
49.53824305723839 0.031925997378041554 4.193168612023981
49.541405714785434 0.03281275192615476 4.146988226851069
49.544673598942985 0.0335456425452298 4.0987332805521
49.54797852975483 0.03408934338487536 4.049272837682331
49.55125684544504 0.034422620842537395 3.999426474639876
49.55445249409888 0.03453798702229913 3.949926663294594
49.55751865780763 0.03443940744592361 3.9014001981178277
49.560417827514144 0.03413886669482947 3.8543691238519013
49.56312071869845 0.033652846746688274 3.8092654419408083
49.565604673827096 0.03299958603406102 3.7664509154086634
49.5678521633271 0.03219749279239747 3.7262344956805205
49.570296247936554 0.022059858741499246 3.67623280967205
49.57198245148808 0.02332661109894786 3.64475342813934
49.573553129238455 0.024183319580188746 3.6143529356586828
49.57498710890743 0.024612190617591366 3.5854966586522257
49.576273438420046 0.024594238821202916 3.558533866282351
49.57740904924212 0.024105362064733998 3.5337187033870667
49.57839498729506 0.023113499326220453 3.51123316107075
49.57923204453092 0.021577917291268015 3.4912067567128546
49.57991744458109 0.019451157906771818 3.473730786678036
49.580444003335884 0.016682703544171264 3.458869099343057
49.580801787553355 0.01322225034330986 3.4466690432561067
49.58130010892069 0.01338457025676495 3.4310062283502423
49.58168833671623 0.01328861732866407 3.421743268176932
49.581998275805375 0.012900812662165927 3.4134884152500042
49.58222973616435 0.01222915969250372 3.406496898290096
49.58238873646075 0.01126852434877412 3.400947362801085
49.58247874962683 0.010000841234473578 3.3969924556979967
49.5824959991214 0.008401250064895806 3.394773925061149
49.58243077603654 0.006445841573759672 3.3944057705567383
49.58274043542157 0.012719367267286655 3.398826349632546
49.58264948861053 0.010697805943399943 3.3991453357459505
49.582494185826356 0.008884393143743757 3.4008790827280393
49.58228399981859 0.007304612489823082 3.4040453394578964
49.58202411119688 0.0059669894201960635 3.4087761277195003
49.58169540965353 0.004867995801515216 3.415343829685685
49.58108480420821 0.0035618892815514913 3.4241600293242485
49.58055781434346 0.0022377024480776395 3.4346273495651123
49.57984485917443 0.000939044521873338 3.4478430771269486
49.57891756603153 -0.00029024746515255806 3.4644946280961304
49.577743427164904 -0.0014000172182763477 3.485240546271172
49.57629685885105 -0.0023012182568632493 3.510286075433522
49.574781421231684 -0.0017960551136903455 3.539865789384473
49.57295356453543 -0.0020204164346490955 3.5678657512328056
49.57158042142509 -0.001570779437941963 3.58713075983491
49.571089302324225 -0.0006889777921886826 3.5916356423899707
49.571306371937666 4.7370976498466894e-5 3.5850472014975505
49.571307843756564 -4.2898660598798606e-5 3.5850446363015425
49.57109172881207 0.0006942621441054323 3.591616844609184
49.57158457400149 0.0015767922899960248 3.587086741682685
49.57296042074769 0.0020265153655705374 3.5677884747755115
49.574791472012386 0.001800895810534049 3.539754410603941
49.576308771549925 0.0023038899180957964 3.5101481162412065
49.577755970976774 0.0013988857184214299 3.485086829802548
49.578928590786155 0.0002853887388755192 3.46433473196295
49.57985276974372 -0.0009463969222024112 3.4476838237220893
49.58056219165043 -0.002245737183540363 3.4344736075805073
49.581086326866576 -0.003569086460071349 3.4240155467514928
49.581695469898555 -0.004873844046678976 3.415211924405516
49.582023412177236 -0.005971229885128017 3.408657412219112
49.582283127714994 -0.00730751350613309 3.4039400083930498
49.58249343803623 -0.00888627592317234 3.4007860656570625
49.582649039967976 -0.010698945336288006 3.3990623735449006
49.58274043705634 -0.01272001352475072 3.398750401188763
49.5824291607302 -0.006459754174294724 3.394343278057471
49.58249499836371 -0.00841264363809861 3.3947112813638642
49.58247824994849 -0.010009915289875378 3.3969291299608666
49.582388578455294 -0.011275312707533661 3.4008838576287057
49.58222983374269 -0.012233526131523098 3.406434198348592
49.58199872310711 -0.012902557083938527 3.413427171696115
49.58168941460989 -0.01328762158102817 3.4216832971922595
49.58130219229274 -0.013380885874141168 3.430946567874152
49.58080880244617 -0.013214406993680365 3.4466074950382564
49.58045241697418 -0.016674121114832234 3.4588058806394084
49.57992746083441 -0.01944218970211121 3.473664618692831
49.57924375701824 -0.0215689680802256 3.4911362486896684
49.57840838699773 -0.02310499377246541 3.511156845608517
49.57742402706953 -0.02409770514363044 3.5336351619990767
49.57628979321402 -0.0245877692322181 3.5584419038633865
49.57500457150924 -0.024607143055123237 3.5853954491666213
49.573571400276464 -0.024179810417233324 3.614242087303502
49.572001240324 -0.023324648793999182 3.6446329632471683
49.57031530118668 -0.02205936922309261 3.676103085555446
49.567876940000296 -0.032268200994367974 3.7260216562590647
49.565628652710636 -0.03305806119319793 3.7662341845538445
49.56314374318695 -0.03370092153870397 3.809047052569162
49.56043979622495 -0.034178154202544865 3.8541509116752874
49.55753951925988 -0.03447132172184479 3.9011836036153404
49.55447224044832 -0.03456376199080375 3.9497127637875273
49.551275505509935 -0.03444332796737285 3.9992160359979554
49.54799616154463 -0.03410590814478429 4.049066372593223
49.544690282019715 -0.033558859572446455 4.098531101729512
49.54142154289089 -0.03282329866713956 4.146790487804143
49.53825813164326 -0.031934446277778444 4.192975333109308
49.53526874560639 -0.030939795996545515 4.23621670644793
49.53251849890965 -0.02989549189896924 4.275697150088637
49.53006551930515 -0.028861706816396195 4.310693034226516
49.53005209800375 0.028857008257157625 4.310873987593995
49.532504624329576 0.029889887742682537 4.27588192212751
49.53525432164395 0.030932966589427572 4.23640562473071
49.53824305723839 0.031925997378041554 4.193168612023981
49.541405714785434 0.03281275192615476 4.146988226851069
49.544673598942985 0.0335456425452298 4.0987332805521
49.54797852975483 0.03408934338487536 4.049272837682331
49.55125684544504 0.034422620842537395 3.999426474639876
49.55445249409888 0.03453798702229913 3.949926663294594
49.55751865780763 0.03443940744592361 3.9014001981178277
49.560417827514144 0.03413886669482947 3.8543691238519013
49.56312071869845 0.033652846746688274 3.8092654419408083
49.565604673827096 0.03299958603406102 3.7664509154086634
49.5678521633271 0.03219749279239747 3.7262344956805205
49.570296247936554 0.022059858741499246 3.67623280967205
49.57198245148808 0.02332661109894786 3.64475342813934
49.573553129238455 0.024183319580188746 3.6143529356586828
49.57498710890743 0.024612190617591366 3.5854966586522257
49.576273438420046 0.024594238821202916 3.558533866282351
49.57740904924212 0.024105362064733998 3.5337187033870667
49.57839498729506 0.023113499326220453 3.51123316107075
49.57923204453092 0.021577917291268015 3.4912067567128546
49.57991744458109 0.019451157906771818 3.473730786678036
49.580444003335884 0.016682703544171264 3.458869099343057
49.580801787553355 0.01322225034330986 3.4466690432561067
49.58130010892069 0.01338457025676495 3.4310062283502423
49.58168833671623 0.01328861732866407 3.421743268176932
49.581998275805375 0.012900812662165927 3.4134884152500042
49.58222973616435 0.01222915969250372 3.406496898290096
49.58238873646075 0.01126852434877412 3.400947362801085
49.58247874962683 0.010000841234473578 3.3969924556979967
49.5824959991214 0.008401250064895806 3.394773925061149
49.58243077603654 0.006445841573759672 3.3944057705567383
49.58274043542157 0.012719367267286655 3.398826349632546
49.58264948861053 0.010697805943399943 3.3991453357459505
49.582494185826356 0.008884393143743757 3.4008790827280393
49.58228399981859 0.007304612489823082 3.4040453394578964
49.58202411119688 0.0059669894201960635 3.4087761277195003
49.58169540965353 0.004867995801515216 3.415343829685685
49.58108480420821 0.0035618892815514913 3.4241600293242485
49.58055781434346 0.0022377024480776395 3.4346273495651123
49.57984485917443 0.000939044521873338 3.4478430771269486
49.57891756603153 -0.00029024746515255806 3.4644946280961304
49.577743427164904 -0.0014000172182763477 3.485240546271172
49.57629685885105 -0.0023012182568632493 3.510286075433522
49.574781421231684 -0.0017960551136903455 3.539865789384473
49.57295356453543 -0.0020204164346490955 3.5678657512328056
49.57158042142509 -0.001570779437941963 3.58713075983491
49.571089302324225 -0.0006889777921886826 3.5916356423899707
49.571306371937666 4.7370976498466894e-5 3.5850472014975505
49.571307843756564 -4.2898660598798606e-5 3.5850446363015425
49.57109172881207 0.0006942621441054323 3.591616844609184
49.57158457400149 0.0015767922899960248 3.587086741682685
49.57296042074769 0.0020265153655705374 3.5677884747755115
49.574791472012386 0.001800895810534049 3.539754410603941
49.576308771549925 0.0023038899180957964 3.5101481162412065
49.577755970976774 0.0013988857184214299 3.485086829802548
49.578928590786155 0.0002853887388755192 3.46433473196295
49.57985276974372 -0.0009463969222024112 3.4476838237220893
49.58056219165043 -0.002245737183540363 3.4344736075805073
49.581086326866576 -0.003569086460071349 3.4240155467514928
49.581695469898555 -0.004873844046678976 3.415211924405516
49.582023412177236 -0.005971229885128017 3.408657412219112
49.582283127714994 -0.00730751350613309 3.4039400083930498
49.58249343803623 -0.00888627592317234 3.4007860656570625
49.582649039967976 -0.010698945336288006 3.3990623735449006
49.58274043705634 -0.01272001352475072 3.398750401188763
49.5824291607302 -0.006459754174294724 3.394343278057471
49.58249499836371 -0.00841264363809861 3.3947112813638642
49.58247824994849 -0.010009915289875378 3.3969291299608666
49.582388578455294 -0.011275312707533661 3.4008838576287057
49.58222983374269 -0.012233526131523098 3.406434198348592
49.58199872310711 -0.012902557083938527 3.413427171696115
49.58168941460989 -0.01328762158102817 3.4216832971922595
49.58130219229274 -0.013380885874141168 3.430946567874152
49.58080880244617 -0.013214406993680365 3.4466074950382564
49.58045241697418 -0.016674121114832234 3.4588058806394084
49.57992746083441 -0.01944218970211121 3.473664618692831
49.57924375701824 -0.0215689680802256 3.4911362486896684
49.57840838699773 -0.02310499377246541 3.511156845608517
49.57742402706953 -0.02409770514363044 3.5336351619990767
49.57628979321402 -0.0245877692322181 3.5584419038633865
49.57500457150924 -0.024607143055123237 3.5853954491666213
49.573571400276464 -0.024179810417233324 3.614242087303502
49.572001240324 -0.023324648793999182 3.6446329632471683
49.57031530118668 -0.02205936922309261 3.676103085555446
49.567876940000296 -0.032268200994367974 3.7260216562590647
49.565628652710636 -0.03305806119319793 3.7662341845538445
49.56314374318695 -0.03370092153870397 3.809047052569162
49.56043979622495 -0.034178154202544865 3.8541509116752874
49.55753951925988 -0.03447132172184479 3.9011836036153404
49.55447224044832 -0.03456376199080375 3.9497127637875273
49.551275505509935 -0.03444332796737285 3.9992160359979554
49.54799616154463 -0.03410590814478429 4.049066372593223
49.544690282019715 -0.033558859572446455 4.098531101729512
49.54142154289089 -0.03282329866713956 4.146790487804143
49.53825813164326 -0.031934446277778444 4.192975333109308
49.53526874560639 -0.030939795996545515 4.23621670644793
49.53251849890965 -0.02989549189896924 4.275697150088637
49.53006551930515 -0.028861706816396195 4.310693034226516

VECTORS L float
-0.006658022116596801 0.0 0.09066500961227773
-0.01201234175022758 0.0 0.1635769694329333
-0.017749336542220835 0.0 0.2416999733600401
-0.024061736586578262 0.0 0.3276585058905302
-0.03099171396275548 0.0 0.42202684147442104
-0.038540962965990966 0.0 0.5248280520227688
-0.046694521713529544 0.0 0.6358583954602152
-0.05542818663479465 0.0 0.7547882818694325
-0.06471133663406473 0.0 0.8812007312690814
-0.07450817742915086 0.0 1.0146083182823928
-0.0847783952022139 0.0 1.1544620731676194
-0.09547760470577726 0.0 1.3001575838608423
-0.1065577111773741 0.0 1.4510399243157088
-0.1179668793962339 0.0 1.6064032331356786
-0.12964581804190814 0.0 1.765440116166114
-0.1415673289719656 0.0 1.9277802051802686
-0.15366961276367117 0.0 2.0925819521691102
-0.1658988296455205 0.0 2.2591121989491003
-0.1782063289501028 0.0 2.426708449488956
-0.19054790115828382 0.0 2.59476868468945
-0.20288360597615784 0.0 2.762749021236971
-0.21517758854812724 0.0 2.9301612089018745
-0.22739770175424628 0.0 3.096567487206973
-0.23951476465718266 0.0 3.261570487396591
-0.2515007709785056 0.0 3.424788836525631
-0.2633544170459165 0.0 3.586204781955334
-0.2750080583937167 0.0 3.744897181336609
-0.2864726259121623 0.0 3.90101488507169
-0.2977314427623577 0.0 4.054330797826212
-0.3087709137027715 0.0 4.204659787637181
-0.3195787037898915 0.0 4.351833884535056
-0.33014251633501185 0.0 4.495685639481643
-0.34044928954752546 0.0 4.636037184733306
-0.3504881923700522 0.0 4.772741029352906
-0.36020301584214953 0.0 4.905031752942376
-0.36959001370125183 0.0 5.032858341112521
-0.3786298212801688 0.0 5.155957097272043
-0.3872972980140325 0.0 5.2739856720692115
-0.3955617093489053 0.0 5.386525540515766
-0.4033399670060046 0.0 5.492445255544912
-0.4106505961613824 0.0 5.591997082053851
-0.41741167156687786 0.0 5.684065410439324
-0.4235563289463544 0.0 5.767739722512526
-0.4290016512018105 0.0 5.841890902245348
-0.43364505586052776 0.0 5.905122042161039
-0.43736825476677743 0.0 5.955822364075273
-0.44002185574066577 0.0 5.991957533588304
-0.4415150916442191 0.0 6.012291537467862
-0.44187704431247493 0.0 6.017220394953151
-0.44005979250719907 0.0 5.9924741340504495
-0.4400587729129193 0.0 5.992460249818232
-0.44187362738602376 0.0 6.01717386526849
-0.44150913285546817 0.0 6.012210394204906
-0.4400133954780979 0.0 5.9918423267335355
-0.43735757854835067 0.0 5.9556769816434745
-0.43363265697018116 0.0 5.90495320140131
-0.4289880659117173 0.0 5.841705905795154
-0.42354207347045353 0.0 5.767545599868151
-0.4173971852232161 0.0 5.683868143974248
-0.41063623025925566 0.0 5.5918014556904065
-0.40332597849985824 0.0 5.4922547683368474
-0.39554829309107176 0.0 5.386342845846969
-0.3872845541387998 0.0 5.273812133509225
-0.3786177920478413 0.0 5.155793290296712
-0.3695786963316774 0.0 5.03270422786338
-0.36019237804333254 0.0 4.904886893686112
-0.35047819098430255 0.0 4.772604836393609