# vtk DataFile Version 4.0
[MyVLM domain - lattices] 
ASCII
DATASET UNSTRUCTURED_GRID
POINTS 302 float
1.2444999999999997 -1.2445 0.0
1.2399745454545452 -1.2399745454545454 0.0
1.2346178849721705 -1.2346178849721707 0.0
1.2284300185528754 -1.2284300185528756 0.0
1.2214109461966602 -1.2214109461966605 0.0
1.2135606679035247 -1.213560667903525 0.0
1.2048791836734691 -1.2048791836734694 0.0
1.1953664935064932 -1.1953664935064934 0.0
1.1850225974025972 -1.1850225974025974 0.0
1.1738474953617808 -1.173847495361781 0.0
1.1618411873840442 -1.1618411873840444 0.0
1.1490036734693874 -1.1490036734693876 0.0
1.1353349536178106 -1.1353349536178108 0.0
1.1208350278293133 -1.1208350278293135 0.0
1.1055038961038959 -1.105503896103896 0.0
1.0893415584415582 -1.0893415584415584 0.0
1.0723480148423004 -1.0723480148423006 0.0
1.054523265306122 -1.0545232653061223 0.0
1.0358673098330238 -1.035867309833024 0.0
1.0163801484230053 -1.0163801484230055 0.0
0.9960617810760664 -0.9960617810760668 0.0
0.9749122077922076 -0.9749122077922077 0.0
0.9529314285714284 -0.9529314285714284 0.0
0.9301194434137288 -0.930119443413729 0.0
0.9064762523191091 -0.9064762523191096 0.0
0.8820018552875695 -0.8820018552875695 0.0
0.8566962523191093 -0.8566962523191094 0.0
0.8305594434137288 -0.8305594434137291 0.0
0.8035914285714284 -0.8035914285714285 0.0
0.7757922077922076 -0.7757922077922077 0.0
0.7471617810760666 -0.7471617810760667 0.0
0.7177001484230053 -0.7177001484230054 0.0
0.6874073098330239 -0.687407309833024 0.0
0.6562832653061222 -0.6562832653061225 0.0
0.6243280148423004 -0.6243280148423005 0.0
0.5915415584415582 -0.5915415584415583 0.0
0.5579238961038958 -0.5579238961038959 0.0
0.5234750278293133 -0.5234750278293134 0.0
0.48819495361781057 -0.48819495361781057 0.0
0.4520836734693877 -0.4520836734693877 0.0
0.4151411873840445 -0.4151411873840446 0.0
0.37736749536178105 -0.37736749536178116 0.0
0.3387625974025974 -0.3387625974025974 0.0
0.2993264935064933 -0.29932649350649343 0.0
0.25905918367346925 -0.25905918367346925 0.0
0.21796066790352486 -0.21796066790352486 0.0
0.17603094619666027 -0.1760309461966605 0.0
0.13327001855287546 -0.13327001855287568 0.0
0.08967788497217066 -0.08967788497217066 0.0
0.045254545454545436 -0.045254545454545436 0.0
0.0 0.0 0.0
0.04525454545454545 0.04525454545454546 0.0
0.08967788497217066 0.08967788497217068 0.0
0.13327001855287568 0.1332700185528757 0.0
0.17603094619666046 0.1760309461966605 0.0
0.21796066790352497 0.21796066790352508 0.0
0.2590591836734693 0.25905918367346936 0.0
0.29932649350649343 0.2993264935064935 0.0
0.3387625974025973 0.33876259740259734 0.0
0.37736749536178094 0.377367495361781 0.0
0.41514118738404443 0.4151411873840445 0.0
0.45208367346938766 0.4520836734693878 0.0
0.48819495361781057 0.4881949536178107 0.0
0.5234750278293133 0.5234750278293134 0.0
0.5579238961038959 0.557923896103896 0.0
0.5915415584415582 0.5915415584415583 0.0
0.6243280148423003 0.6243280148423004 0.0
0.6562832653061222 0.6562832653061225 0.0
0.687407309833024 0.6874073098330241 0.0
0.7177001484230054 0.7177001484230056 0.0
0.7471617810760667 0.7471617810760669 0.0
0.7757922077922076 0.7757922077922077 0.0
0.8035914285714284 0.8035914285714285 0.0
0.8305594434137288 0.830559443413729 0.0
0.8566962523191093 0.8566962523191094 0.0
0.8820018552875692 0.8820018552875695 0.0
0.9064762523191091 0.9064762523191093 0.0
0.9301194434137288 0.9301194434137292 0.0
0.9529314285714284 0.9529314285714284 0.0
0.9749122077922076 0.9749122077922077 0.0
0.9960617810760666 0.9960617810760668 0.0
1.0163801484230053 1.0163801484230055 0.0
1.0358673098330238 1.035867309833024 0.0
1.054523265306122 1.0545232653061223 0.0
1.0723480148423001 1.0723480148423004 0.0
1.0893415584415582 1.0893415584415584 0.0
1.1055038961038959 1.105503896103896 0.0
1.120835027829313 1.1208350278293133 0.0
1.1353349536178106 1.1353349536178106 0.0
1.1490036734693874 1.1490036734693876 0.0
1.1618411873840444 1.1618411873840446 0.0
1.1738474953617808 1.173847495361781 0.0
1.1850225974025972 1.1850225974025972 0.0
1.1953664935064932 1.1953664935064934 0.0
1.2048791836734691 1.2048791836734694 0.0
1.2135606679035245 1.2135606679035247 0.0
1.22141094619666 1.2214109461966602 0.0
1.2284300185528754 1.2284300185528756 0.0
1.2346178849721703 1.2346178849721705 0.0
1.2399745454545452 1.2399745454545454 0.0
1.2444999999999997 1.2445 0.0
1.7422999999999997 -1.2445 0.0
1.7377745454545452 -1.2399745454545454 0.0
1.7324178849721703 -1.2346178849721707 0.0
1.7262300185528754 -1.2284300185528756 0.0
1.7192109461966603 -1.2214109461966605 0.0
1.7113606679035245 -1.213560667903525 0.0
1.7026791836734692 -1.2048791836734694 0.0
1.6931664935064934 -1.1953664935064934 0.0
1.6828225974025972 -1.1850225974025974 0.0
1.6716474953617806 -1.173847495361781 0.0
1.6596411873840444 -1.1618411873840444 0.0
1.6468036734693878 -1.1490036734693876 0.0
1.6331349536178106 -1.1353349536178108 0.0
1.6186350278293133 -1.1208350278293135 0.0
1.603303896103896 -1.105503896103896 0.0
1.5871415584415582 -1.0893415584415584 0.0
1.5701480148423004 -1.0723480148423006 0.0
1.552323265306122 -1.0545232653061223 0.0
1.5336673098330238 -1.035867309833024 0.0
1.5141801484230053 -1.0163801484230055 0.0
1.4938617810760666 -0.9960617810760668 0.0
1.4727122077922075 -0.9749122077922077 0.0
1.4507314285714283 -0.9529314285714284 0.0
1.4279194434137288 -0.930119443413729 0.0
1.4042762523191092 -0.9064762523191096 0.0
1.3798018552875693 -0.8820018552875695 0.0
1.3544962523191093 -0.8566962523191094 0.0
1.328359443413729 -0.8305594434137291 0.0
1.3013914285714283 -0.8035914285714285 0.0
1.2735922077922077 -0.7757922077922077 0.0
1.2449617810760665 -0.7471617810760667 0.0
1.2155001484230055 -0.7177001484230054 0.0
1.1852073098330238 -0.687407309833024 0.0
1.1540832653061224 -0.6562832653061225 0.0
1.1221280148423003 -0.6243280148423005 0.0
1.0893415584415582 -0.5915415584415583 0.0
1.055723896103896 -0.5579238961038959 0.0
1.0212750278293132 -0.5234750278293134 0.0
0.9859949536178108 -0.48819495361781057 0.0
0.9498836734693876 -0.4520836734693877 0.0
0.9129411873840445 -0.4151411873840446 0.0
0.875167495361781 -0.37736749536178116 0.0
0.8365625974025973 -0.3387625974025974 0.0
0.7971264935064933 -0.29932649350649343 0.0
0.7568591836734693 -0.25905918367346925 0.0
0.7157606679035249 -0.21796066790352486 0.0
0.6738309461966603 -0.1760309461966605 0.0
0.6310700185528755 -0.13327001855287568 0.0
0.5874778849721707 -0.08967788497217066 0.0
0.5430545454545455 -0.045254545454545436 0.0
0.4978 0.0 0.0
0.5430545454545455 0.04525454545454546 0.0
0.5874778849721707 0.08967788497217068 0.0
0.6310700185528757 0.1332700185528757 0.0
0.6738309461966605 0.1760309461966605 0.0
0.715760667903525 0.21796066790352508 0.0
0.7568591836734693 0.25905918367346936 0.0
0.7971264935064934 0.2993264935064935 0.0
0.8365625974025973 0.33876259740259734 0.0
0.875167495361781 0.377367495361781 0.0
0.9129411873840445 0.4151411873840445 0.0
0.9498836734693876 0.4520836734693878 0.0
0.9859949536178105 0.4881949536178107 0.0
1.0212750278293132 0.5234750278293134 0.0
1.055723896103896 0.557923896103896 0.0
1.0893415584415582 0.5915415584415583 0.0
1.1221280148423003 0.6243280148423004 0.0
1.1540832653061224 0.6562832653061225 0.0
1.185207309833024 0.6874073098330241 0.0
1.2155001484230055 0.7177001484230056 0.0
1.2449617810760667 0.7471617810760669 0.0
1.2735922077922077 0.7757922077922077 0.0
1.3013914285714283 0.8035914285714285 0.0
1.3283594434137287 0.830559443413729 0.0
1.3544962523191093 0.8566962523191094 0.0
1.3798018552875693 0.8820018552875695 0.0
1.4042762523191092 0.9064762523191093 0.0
1.427919443413729 0.9301194434137292 0.0
1.4507314285714283 0.9529314285714284 0.0
1.4727122077922075 0.9749122077922077 0.0
1.4938617810760666 0.9960617810760668 0.0
1.5141801484230053 1.0163801484230055 0.0
1.5336673098330238 1.035867309833024 0.0
1.552323265306122 1.0545232653061223 0.0
1.5701480148423002 1.0723480148423004 0.0
1.5871415584415582 1.0893415584415584 0.0
1.603303896103896 1.105503896103896 0.0
1.6186350278293131 1.1208350278293133 0.0
1.6331349536178106 1.1353349536178106 0.0
1.6468036734693874 1.1490036734693876 0.0
1.6596411873840444 1.1618411873840446 0.0
1.6716474953617806 1.173847495361781 0.0
1.6828225974025972 1.1850225974025972 0.0
1.6931664935064934 1.1953664935064934 0.0
1.7026791836734692 1.2048791836734694 0.0
1.7113606679035245 1.2135606679035247 0.0
1.71921094619666 1.2214109461966602 0.0
1.7262300185528754 1.2284300185528756 0.0
1.7324178849721703 1.2346178849721705 0.0
1.7377745454545452 1.2399745454545454 0.0
1.7422999999999997 1.2445 0.0
1.6155872727272724 -1.2422372727272726 0.0
1.6106462152133578 -1.237296215213358 0.0
1.604873951762523 -1.2315239517625232 0.0
1.598270482374768 -1.224920482374768 0.0
1.5908358070500925 -1.2174858070500927 0.0
1.582569925788497 -1.2092199257884972 0.0
1.5734728385899812 -1.2001228385899814 0.0
1.5635445454545454 -1.1901945454545453 0.0
1.552785046382189 -1.1794350463821892 0.0
1.5411943413729126 -1.1678443413729127 0.0
1.5287724304267158 -1.155422430426716 0.0
1.5155193135435991 -1.142169313543599 0.0
1.501434990723562 -1.1280849907235622 0.0
1.4865194619666047 -1.1131694619666048 0.0
1.4707727272727271 -1.0974227272727273 0.0
1.4541947866419294 -1.0808447866419293 0.0
1.4367856400742112 -1.0634356400742113 0.0
1.418545287569573 -1.0451952875695731 0.0
1.3994737291280146 -1.0261237291280147 0.0
1.379570964749536 -1.0062209647495362 0.0
1.358836994434137 -0.9854869944341371 0.0
1.337271818181818 -0.9639218181818181 0.0
1.3148754359925787 -0.9415254359925787 0.0
1.291647847866419 -0.9182978478664192 0.0
1.2675890538033394 -0.8942390538033393 0.0
1.2426990538033393 -0.8693490538033395 0.0
1.2169778478664193 -0.8436278478664192 0.0
1.1904254359925788 -0.8170754359925788 0.0
1.163041818181818 -0.7896918181818181 0.0
1.1348269944341371 -0.7614769944341371 0.0
1.105780964749536 -0.7324309647495362 0.0
1.0759037291280147 -0.7025537291280148 0.0
1.0451952875695731 -0.6718452875695733 0.0
1.0136556400742114 -0.6403056400742114 0.0
0.9812847866419293 -0.6079347866419293 0.0
0.9480827272727271 -0.5747327272727272 0.0
0.9140494619666047 -0.5406994619666048 0.0
0.8791849907235622 -0.5058349907235622 0.0
0.8434893135435992 -0.47013931354359917 0.0
0.8069624304267162 -0.43361243042671627 0.0
0.7696043413729128 -0.3962543413729128 0.0
0.7314150463821893 -0.3580650463821894 0.0
0.6923945454545455 -0.3190445454545454 0.0
0.6525428385899814 -0.27919283858998134 0.0
0.6118599257884971 -0.23850992578849706 0.0
0.5703458070500929 -0.19699580705009279 0.0
0.5280004823747682 -0.15465048237476808 0.0
0.4848239517625232 -0.11147395176252317 0.0
0.4408162152133581 -0.06746621521335805 0.0
0.39597727272727273 -0.022627272727272718 0.0
0.39597727272727273 0.02262727272727273 0.0
0.4408162152133581 0.06746621521335806 0.0
0.4848239517625232 0.11147395176252319 0.0
0.528000482374768 0.15465048237476808 0.0
0.5703458070500929 0.19699580705009276 0.0
0.6118599257884971 0.23850992578849717 0.0
0.6525428385899814 0.2791928385899814 0.0
0.6923945454545455 0.3190445454545454 0.0
0.7314150463821891 0.3580650463821891 0.0
0.7696043413729128 0.39625434137291277 0.0
0.8069624304267162 0.43361243042671616 0.0
0.8434893135435992 0.4701393135435992 0.0
0.8791849907235619 0.5058349907235621 0.0
0.9140494619666046 0.5406994619666047 0.0
0.9480827272727271 0.5747327272727272 0.0
0.9812847866419294 0.6079347866419295 0.0
1.0136556400742114 0.6403056400742114 0.0
1.0451952875695731 0.6718452875695732 0.0
1.0759037291280147 0.7025537291280147 0.0
1.105780964749536 0.7324309647495362 0.0
1.1348269944341371 0.7614769944341373 0.0
1.163041818181818 0.789691818181818 0.0
1.1904254359925786 0.8170754359925786 0.0
1.216977847866419 0.843627847866419 0.0
1.2426990538033393 0.8693490538033394 0.0
1.2675890538033392 0.8942390538033393 0.0
1.291647847866419 0.9182978478664192 0.0
1.3148754359925787 0.9415254359925787 0.0
1.3372718181818182 0.9639218181818181 0.0
1.3588369944341372 0.9854869944341373 0.0
1.379570964749536 1.0062209647495362 0.0
1.3994737291280148 1.0261237291280147 0.0
1.418545287569573 1.0451952875695731 0.0
1.4367856400742112 1.0634356400742113 0.0
1.4541947866419291 1.0808447866419293 0.0
1.470772727272727 1.097422727272727 0.0
1.4865194619666047 1.1131694619666048 0.0
1.501434990723562 1.128084990723562 0.0
1.5155193135435991 1.1421693135435993 0.0
1.528772430426716 1.1554224304267162 0.0
1.5411943413729128 1.1678443413729127 0.0
1.5527850463821888 1.179435046382189 0.0
1.5635445454545451 1.1901945454545453 0.0
1.573472838589981 1.2001228385899811 0.0
1.5825699257884969 1.209219925788497 0.0
1.5908358070500925 1.2174858070500927 0.0
1.5982704823747678 1.224920482374768 0.0
1.604873951762523 1.2315239517625232 0.0
1.6106462152133578 1.237296215213358 0.0
1.6155872727272724 1.2422372727272726 0.0

CELLS 200 700
4 0 101 102 1
4 1 102 103 2
4 2 103 104 3
4 3 104 105 4
4 4 105 106 5
4 5 106 107 6
4 6 107 108 7
4 7 108 109 8
4 8 109 110 9
4 9 110 111 10
4 10 111 112 11
4 11 112 113 12
4 12 113 114 13
4 13 114 115 14
4 14 115 116 15
4 15 116 117 16
4 16 117 118 17
4 17 118 119 18
4 18 119 120 19
4 19 120 121 20
4 20 121 122 21
4 21 122 123 22
4 22 123 124 23
4 23 124 125 24
4 24 125 126 25
4 25 126 127 26
4 26 127 128 27
4 27 128 129 28
4 28 129 130 29
4 29 130 131 30
4 30 131 132 31
4 31 132 133 32
4 32 133 134 33
4 33 134 135 34
4 34 135 136 35
4 35 136 137 36
4 36 137 138 37
4 37 138 139 38
4 38 139 140 39
4 39 140 141 40
4 40 141 142 41
4 41 142 143 42
4 42 143 144 43
4 43 144 145 44
4 44 145 146 45
4 45 146 147 46
4 46 147 148 47
4 47 148 149 48
4 48 149 150 49
4 49 150 151 50
4 50 151 152 51
4 51 152 153 52
4 52 153 154 53
4 53 154 155 54
4 54 155 156 55
4 55 156 157 56
4 56 157 158 57
4 57 158 159 58
4 58 159 160 59
4 59 160 161 60
4 60 161 162 61
4 61 162 163 62
4 62 163 164 63
4 63 164 165 64
4 64 165 166 65
4 65 166 167 66
4 66 167 168 67
4 67 168 169 68
4 68 169 170 69
4 69 170 171 70
4 70 171 172 71
4 71 172 173 72
4 72 173 174 73
4 73 174 175 74
4 74 175 176 75
4 75 176 177 76
4 76 177 178 77
4 77 178 179 78
4 78 179 180 79
4 79 180 181 80
4 80 181 182 81
4 81 182 183 82
4 82 183 184 83
4 83 184 185 84
4 84 185 186 85
4 85 186 187 86
4 86 187 188 87
4 87 188 189 88
4 88 189 190 89
4 89 190 191 90
4 90 191 192 91
4 91 192 193 92
4 92 193 194 93
4 93 194 195 94
4 94 195 196 95
4 95 196 197 96
4 96 197 198 97
4 97 198 199 98
4 98 199 200 99
4 99 200 201 100
1 202
1 203
1 204
1 205
1 206
1 207
1 208
1 209
1 210
1 211
1 212
1 213
1 214
1 215
1 216
1 217
1 218
1 219
1 220
1 221
1 222
1 223
1 224
1 225
1 226
1 227
1 228
1 229
1 230
1 231
1 232
1 233
1 234
1 235
1 236
1 237
1 238
1 239
1 240
1 241
1 242
1 243
1 244
1 245
1 246
1 247
1 248
1 249
1 250
1 251
1 252
1 253
1 254
1 255
1 256
1 257
1 258
1 259
1 260
1 261
1 262
1 263
1 264
1 265
1 266
1 267
1 268
1 269
1 270
1 271
1 272
1 273
1 274
1 275
1 276
1 277
1 278
1 279
1 280
1 281
1 282
1 283
1 284
1 285
1 286
1 287
1 288
1 289
1 290
1 291
1 292
1 293
1 294
1 295
1 296
1 297
1 298
1 299
1 300
1 301

CELL_TYPES 200
9
9
9
9
9
9
9
9
9
9
9
9
9
9
9
9
9
9
9
9
9
9
9
9
9
9
9
9
9
9
9
9
9
9
9
9
9
9
9
9
9
9
9
9
9
9
9
9
9
9
9
9
9
9
9
9
9
9
9
9
9
9
9
9
9
9
9
9
9
9
9
9
9
9
9
9
9
9
9
9
9
9
9
9
9
9
9
9
9
9
9
9
9
9
9
9
9
9
9
9
1
1
1
1
1
1
1
1
1
1
1
1
1
1
1
1
1
1
1
1
1
1
1
1
1
1
1
1
1
1
1
1
1
1
1
1
1
1
1
1
1
1
1
1
1
1
1
1
1
1
1
1
1
1
1
1
1
1
1
1
1
1
1
1
1
1
1
1
1
1
1
1
1
1
1
1
1
1
1
1
1
1
1
1
1
1
1
1
1
1
1
1
1
1
1
1
1
1
1
1

CELL_DATA 200

VECTORS Vinf float
49.5638211965087 0.03673476981439019 3.9064392576749656
49.56569153550254 0.03767430381522209 3.875893314622657
49.56778534088328 0.03863213388103042 3.8414083260322527
49.570056084063445 0.03955725488586462 3.80360700988916
49.572451625595484 0.040402488657125445 3.7631928725998867
49.5749171761724 0.041128496058521674 3.7209122536607793
49.57739886632826 0.04170686969782851 3.677508429576986
49.57984723331917 0.042121613724368984 3.633677058814071
49.582219902188086 0.04236868808589719 3.5900324771405985
49.58448297699503 0.04245385050580859 3.547090903770067
49.586611084405256 0.04238953427078087 3.505270731259193
49.588586427274684 0.04219170335859747 3.464904540927261
49.58465069295075 0.04684865553344641 3.4180503282786874
49.586314136516265 0.04476361526443834 3.3823435185131494
49.58786911627699 0.04222117785525202 3.3480359033688343
49.58865207719371 0.040934819173540436 3.3140431218672077
49.58975108622613 0.040819880439444546 3.287857687007617
49.59074587126103 0.040269978767723 3.263247213373626
49.59162060426697 0.03927671442486644 3.240629076501862
49.59236754673675 0.03782925988935037 3.220307606417485
49.5929837708714 0.03591148645731719 3.2025177508177034
49.5934686388938 0.033501062649343924 3.1874576658087044
49.59394829269203 0.032657402913149884 3.1755139888076203
49.59436770673782 0.030500051487524483 3.1638363652907193
49.5986237874526 0.028744551994383683 3.1562711196309183
49.598950107312405 0.02736911023665826 3.1487865018247048
49.59917547997352 0.025973856394572843 3.1430583218363424
49.59929628992408 0.024565868729256746 3.1390007379985887
49.59931334999345 0.02315502258905453 3.1365603625974923
49.599233292637464 0.02174992929079487 3.13570322547892
49.59791861926066 0.021622163036054652 3.1367160371794562
49.598820964322236 0.018964440940011932 3.138600337377627
49.59850286594453 0.017574793023335707 3.142300006049867
49.59811276829023 0.016178232543151354 3.1475118330174685
49.597650401338726 0.014770275774724072 3.1542745822676617
49.597117979261775 0.01334836306989287 3.1626033021756856
49.595234558678605 0.01231895270490458 3.1729000800078055
49.59585002529744 0.010436265188448595 3.1838085650536936
49.595084180540155 0.00892218518440312 3.1966487581615177
49.59417728727625 0.007371091822040879 3.21112318158526
49.59309204073479 0.0058173222565524865 3.227556204148412
49.588325810007255 0.002438444332265028 3.247178943144302
49.59033120043664 0.00285074183320076 3.268538300820168
49.58860453021897 0.0014861363497116302 3.294419251073309
49.58660336366871 0.00028136549583736146 3.324390966249868
49.584376362033986 -0.0006253402495018964 3.3574429455306913
49.58054269743143 -0.002005108512287418 3.3902796079566206
49.580289343374126 -0.0012898335300876459 3.4130114374211273
49.578650252320124 -0.0008869688474115566 3.424763647233358
49.57762959175063 -0.00046735319738079107 3.426989796804318
49.57864193705373 0.00020141291555206774 3.4289801249786835
49.579184474519124 0.0006487213107601712 3.4266429006527925
49.58034048141841 0.0011866378680249721 3.414598671603363
49.58115950180643 0.0008467509485041908 3.390828862040272
49.584505904451504 0.0008909226856349386 3.3574901976723117
49.586746770701154 -2.736721940888737e-5 3.324486456320121
49.588756095791375 -0.0012413536955043463 3.294505286248462
49.59049136057033 -0.0026144913671211512 3.26854613547351
49.59099136032235 -0.005296180907268795 3.2477353593815628
49.59326241811212 -0.005583183559340298 3.2272419126377745
49.59435846339736 -0.007109115437010175 3.210620597539964
49.59530112731519 -0.008616792789439952 3.195973199831823
49.596133792493454 -0.010092467643672715 3.1829728514087585
49.596767053042846 -0.013474819739901063 3.1735148265142987
49.597582867482004 -0.01299646616110704 3.161408450571459
49.59820383874287 -0.014449736485703071 3.1528449122800635
49.59874570456382 -0.01590720871450609 3.14578235390981
49.599205286666304 -0.017368491987301678 3.1401802422590865
49.599582136424544 -0.018836124675441636 3.1359844427399377
49.60175517335349 -0.023680945290582112 3.1370236454358373
49.600072405814174 -0.021804938154320122 3.131806234294719
49.600168932016395 -0.023304795346381493 3.131924293349537
49.60015504099969 -0.02480470181901453 3.133593868136019
49.600028085675326 -0.02629243917276571 3.136868547905255
49.599791499538625 -0.027757015620358014 3.141817751270062
49.59945190966614 -0.02919166788307471 3.1485428958740935
49.59803923235662 -0.03178506156561163 3.1599961288571397
49.597644427687634 -0.03385473279844166 3.1708886002383556
49.59306324130528 -0.03302571239357106 3.17790411543869
49.59271658537348 -0.03552504933705492 3.1923888962096854
49.59219088387757 -0.037490077601692116 3.2096485313247562
49.59149047431527 -0.03894853468636331 3.2294773252606
49.59062191817949 -0.03992104100485979 3.251636498833947
49.58959669676191 -0.04042223358051525 3.2758221086434784
49.588434549162386 -0.0404639424687107 3.301620447737975
49.590925788059614 -0.04432701060632207 3.339904730994409
49.58953901602516 -0.046797365552475156 3.3738679143304475
49.58800489872563 -0.04877807843083568 3.409276282292211
49.59046810939516 -0.04363929526935807 3.4514160908201887
49.58849350660874 -0.04383318802843744 3.491573461901454
49.58636297514053 -0.043892110452613854 3.5331521061682714
49.58409483651352 -0.04380048301274976 3.57582729826916
49.5817149888671 -0.04354622268115267 3.619187993485902
49.579257846603944 -0.04312388366254599 3.6627251182148974
49.576766284525256 -0.04253778017279471 3.705831424880951
49.57429023371926 -0.04180414558197833 3.7478182619780895
49.57188399151182 -0.04095158898070227 3.7879491258774287
49.56960273140216 -0.04001961685172535 3.825483999298027
49.567498934993026 -0.03905554336920979 3.8597250347896983
49.565619434717526 -0.038110482769638646 3.8900543532464438
49.5638211965087 0.03673476981439019 3.9064392576749656
49.56569153550254 0.03767430381522209 3.875893314622657
49.56778534088328 0.03863213388103042 3.8414083260322527
49.570056084063445 0.03955725488586462 3.80360700988916
49.572451625595484 0.040402488657125445 3.7631928725998867
49.5749171761724 0.041128496058521674 3.7209122536607793
49.57739886632826 0.04170686969782851 3.677508429576986
49.57984723331917 0.042121613724368984 3.633677058814071
49.582219902188086 0.04236868808589719 3.5900324771405985
49.58448297699503 0.04245385050580859 3.547090903770067
49.586611084405256 0.04238953427078087 3.505270731259193
49.588586427274684 0.04219170335859747 3.464904540927261
49.58465069295075 0.04684865553344641 3.4180503282786874
49.586314136516265 0.04476361526443834 3.3823435185131494
49.58786911627699 0.04222117785525202 3.3480359033688343
49.58865207719371 0.040934819173540436 3.3140431218672077
49.58975108622613 0.040819880439444546 3.287857687007617
49.59074587126103 0.040269978767723 3.263247213373626
49.59162060426697 0.03927671442486644 3.240629076501862
49.59236754673675 0.03782925988935037 3.220307606417485
49.5929837708714 0.03591148645731719 3.2025177508177034
49.5934686388938 0.033501062649343924 3.1874576658087044
49.59394829269203 0.032657402913149884 3.1755139888076203
49.59436770673782 0.030500051487524483 3.1638363652907193
49.5986237874526 0.028744551994383683 3.1562711196309183
49.598950107312405 0.02736911023665826 3.1487865018247048
49.59917547997352 0.025973856394572843 3.1430583218363424
49.59929628992408 0.024565868729256746 3.1390007379985887
49.59931334999345 0.02315502258905453 3.1365603625974923
49.599233292637464 0.02174992929079487 3.13570322547892
49.59791861926066 0.021622163036054652 3.1367160371794562
49.598820964322236 0.018964440940011932 3.138600337377627
49.59850286594453 0.017574793023335707 3.142300006049867
49.59811276829023 0.016178232543151354 3.1475118330174685
49.597650401338726 0.014770275774724072 3.1542745822676617
49.597117979261775 0.01334836306989287 3.1626033021756856
49.595234558678605 0.01231895270490458 3.1729000800078055
49.59585002529744 0.010436265188448595 3.1838085650536936
49.595084180540155 0.00892218518440312 3.1966487581615177
49.59417728727625 0.007371091822040879 3.21112318158526
49.59309204073479 0.0058173222565524865 3.227556204148412
49.588325810007255 0.002438444332265028 3.247178943144302
49.59033120043664 0.00285074183320076 3.268538300820168
49.58860453021897 0.0014861363497116302 3.294419251073309
49.58660336366871 0.00028136549583736146 3.324390966249868
49.584376362033986 -0.0006253402495018964 3.3574429455306913
49.58054269743143 -0.002005108512287418 3.3902796079566206
49.580289343374126 -0.0012898335300876459 3.4130114374211273
49.578650252320124 -0.0008869688474115566 3.424763647233358
49.57762959175063 -0.00046735319738079107 3.426989796804318
49.57864193705373 0.00020141291555206774 3.4289801249786835
49.579184474519124 0.0006487213107601712 3.4266429006527925
49.58034048141841 0.0011866378680249721 3.414598671603363
49.58115950180643 0.0008467509485041908 3.390828862040272
49.584505904451504 0.0008909226856349386 3.3574901976723117
49.586746770701154 -2.736721940888737e-5 3.324486456320121
49.588756095791375 -0.0012413536955043463 3.294505286248462
49.59049136057033 -0.0026144913671211512 3.26854613547351
49.59099136032235 -0.005296180907268795 3.2477353593815628
49.59326241811212 -0.005583183559340298 3.2272419126377745
49.59435846339736 -0.007109115437010175 3.210620597539964
49.59530112731519 -0.008616792789439952 3.195973199831823
49.596133792493454 -0.010092467643672715 3.1829728514087585
49.596767053042846 -0.013474819739901063 3.1735148265142987
49.597582867482004 -0.01299646616110704 3.161408450571459
49.59820383874287 -0.014449736485703071 3.1528449122800635
49.59874570456382 -0.01590720871450609 3.14578235390981
49.599205286666304 -0.017368491987301678 3.1401802422590865
49.599582136424544 -0.018836124675441636 3.1359844427399377
49.60175517335349 -0.023680945290582112 3.1370236454358373
49.600072405814174 -0.021804938154320122 3.131806234294719
49.600168932016395 -0.023304795346381493 3.131924293349537
49.60015504099969 -0.02480470181901453 3.133593868136019
49.600028085675326 -0.02629243917276571 3.136868547905255
49.599791499538625 -0.027757015620358014 3.141817751270062
49.59945190966614 -0.02919166788307471 3.1485428958740935
49.59803923235662 -0.03178506156561163 3.1599961288571397
49.597644427687634 -0.03385473279844166 3.1708886002383556
49.59306324130528 -0.03302571239357106 3.17790411543869
49.59271658537348 -0.03552504933705492 3.1923888962096854
49.59219088387757 -0.037490077601692116 3.2096485313247562
49.59149047431527 -0.03894853468636331 3.2294773252606
49.59062191817949 -0.03992104100485979 3.251636498833947
49.58959669676191 -0.04042223358051525 3.2758221086434784
49.588434549162386 -0.0404639424687107 3.301620447737975
49.590925788059614 -0.04432701060632207 3.339904730994409
49.58953901602516 -0.046797365552475156 3.3738679143304475
49.58800489872563 -0.04877807843083568 3.409276282292211
49.59046810939516 -0.04363929526935807 3.4514160908201887
49.58849350660874 -0.04383318802843744 3.491573461901454
49.58636297514053 -0.043892110452613854 3.5331521061682714
49.58409483651352 -0.04380048301274976 3.57582729826916
49.5817149888671 -0.04354622268115267 3.619187993485902
49.579257846603944 -0.04312388366254599 3.6627251182148974
49.576766284525256 -0.04253778017279471 3.705831424880951
49.57429023371926 -0.04180414558197833 3.7478182619780895
49.57188399151182 -0.04095158898070227 3.7879491258774287
49.56960273140216 -0.04001961685172535 3.825483999298027
49.567498934993026 -0.03905554336920979 3.8597250347896983
49.565619434717526 -0.038110482769638646 3.8900543532464438

VECTORS L float
-0.006040073073445126 0.0 0.08225014481367868
-0.010907244984764633 0.0 0.14852841490599095
-0.01612545693644221 0.0 0.21958694076735832
-0.0218699167576156 0.0 0.29781159904924503
-0.028179382177214433 0.0 0.38373016959443573
-0.035055911615495 0.0 0.4773706827532438
-0.04248645808907723 0.0 0.5785554724181003
-0.050449562747350046 0.0 0.6869923246457572
-0.05891793189800576 0.0 0.80230957006773
-0.0678595513974836 0.0 0.9240712590006391
-0.07723825643838167 0.0 1.0517849204743825
-0.0870204285317147 0.0 1.184992757777922
-0.09714930435015055 0.0 1.322921801472576
-0.1075959204613386 0.0 1.4651776446569433
-0.11830957823037569 0.0 1.6110699032889855
-0.12924259656127393 0.0 1.7599492843879427
-0.14035509501491858 0.0 1.9112727197073636
-0.15160169479630428 0.0 2.064422267640373
-0.16293997464257493 0.0 2.2188202605046965
-0.1743315165777163 0.0 2.373943545011924
-0.18574179231165636 0.0 2.529321935317602
-0.19713986665749722 0.0 2.6845341743324127
-0.20849794322421253 0.0 2.839201747233867
-0.21978876640871794 0.0 2.992953503330009
-0.23099047708759532 0.0 3.145491777999107
-0.24208248055023285 0.0 3.2965361246456273
-0.2530399177471339 0.0 3.4457480274277654
-0.263853327662732 0.0 3.5929986518279633
-0.27451107821416504 0.0 3.7381295990175527
-0.2850023432098233 0.0 3.8809934443185807
-0.2953173603016762 0.0 4.0214572498461125
-0.30543877979874784 0.0 4.159284757763876
-0.31535580979181194 0.0 4.294329010231151
-0.3250563414221348 0.0 4.426425115967277
-0.33452241646869546 0.0 4.55532853053353
-0.34373333829271513 0.0 4.680757419336852
-0.352665024167355 0.0 4.802383838038506
-0.3612782873924948 0.0 4.919674165319597
-0.3695426403273024 0.0 5.032213238508584
-0.37741624015284014 0.0 5.139431266830559
-0.38484973798159816 0.0 5.2406562463056465
-0.39179030794097264 0.0 5.335168825426218
-0.39813716285166806 0.0 5.421596543960152
-0.4038228189893591 0.0 5.499020448439363
-0.4087372653886453 0.0 5.565942474564751
-0.4127501809523978 0.0 5.6205879866687045
-0.41572260865902494 0.0 5.66106475016899
-0.41753994009800066 0.0 5.685812095476344
-0.41825063171251975 0.0 5.695489873791485
-0.41691815305305086 0.0 5.67734496703791
-0.4169537030801256 0.0 5.677829066292913
-0.4183017834045469 0.0 5.696186427297635
-0.41758908845363313 0.0 5.686481368731646
-0.4157545234448849 0.0 5.66149934685793
-0.4127632572532048 0.0 5.620766052003663
-0.40873342610015534 0.0 5.565890193403507
-0.4038006990363316 0.0 5.498719231994187
-0.39809521740839077 0.0 5.421025355707645
-0.39172949207382374 0.0 5.334340670895777
-0.3847671618725897 0.0 5.239531773664089
-0.3773123573667708 0.0 5.13801665245521
-0.3694179993598821 0.0 5.030515951489805
-0.3611337569708981 0.0 4.917706035470543
-0.352504543036557 0.0 4.800198500860048
-0.3435418494817935 0.0 4.678149837899181
-0.3343040465145386 0.0 4.552354897576783
-0.3248116973279794 0.0 4.423093697302731
-0.315085473959809 0.0 4.290647736667041