# vtk DataFile Version 4.0
[MyVLM domain - lattices] 
ASCII
DATASET UNSTRUCTURED_GRID
POINTS 302 float
1.2444999999999997 -1.2445 0.0
1.2399745454545452 -1.2399745454545454 0.0
1.2346178849721705 -1.2346178849721707 0.0
1.2284300185528754 -1.2284300185528756 0.0
1.2214109461966602 -1.2214109461966605 0.0
1.2135606679035247 -1.213560667903525 0.0
1.2048791836734691 -1.2048791836734694 0.0
1.1953664935064932 -1.1953664935064934 0.0
1.1850225974025972 -1.1850225974025974 0.0
1.1738474953617808 -1.173847495361781 0.0
1.1618411873840442 -1.1618411873840444 0.0
1.1490036734693874 -1.1490036734693876 0.0
1.1353349536178106 -1.1353349536178108 0.0
1.1208350278293133 -1.1208350278293135 0.0
1.1055038961038959 -1.105503896103896 0.0
1.0893415584415582 -1.0893415584415584 0.0
1.0723480148423004 -1.0723480148423006 0.0
1.054523265306122 -1.0545232653061223 0.0
1.0358673098330238 -1.035867309833024 0.0
1.0163801484230053 -1.0163801484230055 0.0
0.9960617810760664 -0.9960617810760668 0.0
0.9749122077922076 -0.9749122077922077 0.0
0.9529314285714284 -0.9529314285714284 0.0
0.9301194434137288 -0.930119443413729 0.0
0.9064762523191091 -0.9064762523191096 0.0
0.8820018552875695 -0.8820018552875695 0.0
0.8566962523191093 -0.8566962523191094 0.0
0.8305594434137288 -0.8305594434137291 0.0
0.8035914285714284 -0.8035914285714285 0.0
0.7757922077922076 -0.7757922077922077 0.0
0.7471617810760666 -0.7471617810760667 0.0
0.7177001484230053 -0.7177001484230054 0.0
0.6874073098330239 -0.687407309833024 0.0
0.6562832653061222 -0.6562832653061225 0.0
0.6243280148423004 -0.6243280148423005 0.0
0.5915415584415582 -0.5915415584415583 0.0
0.5579238961038958 -0.5579238961038959 0.0
0.5234750278293133 -0.5234750278293134 0.0
0.48819495361781057 -0.48819495361781057 0.0
0.4520836734693877 -0.4520836734693877 0.0
0.4151411873840445 -0.4151411873840446 0.0
0.37736749536178105 -0.37736749536178116 0.0
0.3387625974025974 -0.3387625974025974 0.0
0.2993264935064933 -0.29932649350649343 0.0
0.25905918367346925 -0.25905918367346925 0.0
0.21796066790352486 -0.21796066790352486 0.0
0.17603094619666027 -0.1760309461966605 0.0
0.13327001855287546 -0.13327001855287568 0.0
0.08967788497217066 -0.08967788497217066 0.0
0.045254545454545436 -0.045254545454545436 0.0
0.0 0.0 0.0
0.04525454545454545 0.04525454545454546 0.0
0.08967788497217066 0.08967788497217068 0.0
0.13327001855287568 0.1332700185528757 0.0
0.17603094619666046 0.1760309461966605 0.0
0.21796066790352497 0.21796066790352508 0.0
0.2590591836734693 0.25905918367346936 0.0
0.29932649350649343 0.2993264935064935 0.0
0.3387625974025973 0.33876259740259734 0.0
0.37736749536178094 0.377367495361781 0.0
0.41514118738404443 0.4151411873840445 0.0
0.45208367346938766 0.4520836734693878 0.0
0.48819495361781057 0.4881949536178107 0.0
0.5234750278293133 0.5234750278293134 0.0
0.5579238961038959 0.557923896103896 0.0
0.5915415584415582 0.5915415584415583 0.0
0.6243280148423003 0.6243280148423004 0.0
0.6562832653061222 0.6562832653061225 0.0
0.687407309833024 0.6874073098330241 0.0
0.7177001484230054 0.7177001484230056 0.0
0.7471617810760667 0.7471617810760669 0.0
0.7757922077922076 0.7757922077922077 0.0
0.8035914285714284 0.8035914285714285 0.0
0.8305594434137288 0.830559443413729 0.0
0.8566962523191093 0.8566962523191094 0.0
0.8820018552875692 0.8820018552875695 0.0
0.9064762523191091 0.9064762523191093 0.0
0.9301194434137288 0.9301194434137292 0.0
0.9529314285714284 0.9529314285714284 0.0
0.9749122077922076 0.9749122077922077 0.0
0.9960617810760666 0.9960617810760668 0.0
1.0163801484230053 1.0163801484230055 0.0
1.0358673098330238 1.035867309833024 0.0
1.054523265306122 1.0545232653061223 0.0
1.0723480148423001 1.0723480148423004 0.0
1.0893415584415582 1.0893415584415584 0.0
1.1055038961038959 1.105503896103896 0.0
1.120835027829313 1.1208350278293133 0.0
1.1353349536178106 1.1353349536178106 0.0
1.1490036734693874 1.1490036734693876 0.0
1.1618411873840444 1.1618411873840446 0.0
1.1738474953617808 1.173847495361781 0.0
1.1850225974025972 1.1850225974025972 0.0
1.1953664935064932 1.1953664935064934 0.0
1.2048791836734691 1.2048791836734694 0.0
1.2135606679035245 1.2135606679035247 0.0
1.22141094619666 1.2214109461966602 0.0
1.2284300185528754 1.2284300185528756 0.0
1.2346178849721703 1.2346178849721705 0.0
1.2399745454545452 1.2399745454545454 0.0
1.2444999999999997 1.2445 0.0
1.7422999999999997 -1.2445 0.0
1.7377745454545452 -1.2399745454545454 0.0
1.7324178849721703 -1.2346178849721707 0.0
1.7262300185528754 -1.2284300185528756 0.0
1.7192109461966603 -1.2214109461966605 0.0
1.7113606679035245 -1.213560667903525 0.0
1.7026791836734692 -1.2048791836734694 0.0
1.6931664935064934 -1.1953664935064934 0.0
1.6828225974025972 -1.1850225974025974 0.0
1.6716474953617806 -1.173847495361781 0.0
1.6596411873840444 -1.1618411873840444 0.0
1.6468036734693878 -1.1490036734693876 0.0
1.6331349536178106 -1.1353349536178108 0.0
1.6186350278293133 -1.1208350278293135 0.0
1.603303896103896 -1.105503896103896 0.0
1.5871415584415582 -1.0893415584415584 0.0
1.5701480148423004 -1.0723480148423006 0.0
1.552323265306122 -1.0545232653061223 0.0
1.5336673098330238 -1.035867309833024 0.0
1.5141801484230053 -1.0163801484230055 0.0
1.4938617810760666 -0.9960617810760668 0.0
1.4727122077922075 -0.9749122077922077 0.0
1.4507314285714283 -0.9529314285714284 0.0
1.4279194434137288 -0.930119443413729 0.0
1.4042762523191092 -0.9064762523191096 0.0
1.3798018552875693 -0.8820018552875695 0.0
1.3544962523191093 -0.8566962523191094 0.0
1.328359443413729 -0.8305594434137291 0.0
1.3013914285714283 -0.8035914285714285 0.0
1.2735922077922077 -0.7757922077922077 0.0
1.2449617810760665 -0.7471617810760667 0.0
1.2155001484230055 -0.7177001484230054 0.0
1.1852073098330238 -0.687407309833024 0.0
1.1540832653061224 -0.6562832653061225 0.0
1.1221280148423003 -0.6243280148423005 0.0
1.0893415584415582 -0.5915415584415583 0.0
1.055723896103896 -0.5579238961038959 0.0
1.0212750278293132 -0.5234750278293134 0.0
0.9859949536178108 -0.48819495361781057 0.0
0.9498836734693876 -0.4520836734693877 0.0
0.9129411873840445 -0.4151411873840446 0.0
0.875167495361781 -0.37736749536178116 0.0
0.8365625974025973 -0.3387625974025974 0.0
0.7971264935064933 -0.29932649350649343 0.0
0.7568591836734693 -0.25905918367346925 0.0
0.7157606679035249 -0.21796066790352486 0.0
0.6738309461966603 -0.1760309461966605 0.0
0.6310700185528755 -0.13327001855287568 0.0
0.5874778849721707 -0.08967788497217066 0.0
0.5430545454545455 -0.045254545454545436 0.0
0.4978 0.0 0.0
0.5430545454545455 0.04525454545454546 0.0
0.5874778849721707 0.08967788497217068 0.0
0.6310700185528757 0.1332700185528757 0.0
0.6738309461966605 0.1760309461966605 0.0
0.715760667903525 0.21796066790352508 0.0
0.7568591836734693 0.25905918367346936 0.0
0.7971264935064934 0.2993264935064935 0.0
0.8365625974025973 0.33876259740259734 0.0
0.875167495361781 0.377367495361781 0.0
0.9129411873840445 0.4151411873840445 0.0
0.9498836734693876 0.4520836734693878 0.0
0.9859949536178105 0.4881949536178107 0.0
1.0212750278293132 0.5234750278293134 0.0
1.055723896103896 0.557923896103896 0.0
1.0893415584415582 0.5915415584415583 0.0
1.1221280148423003 0.6243280148423004 0.0
1.1540832653061224 0.6562832653061225 0.0
1.185207309833024 0.6874073098330241 0.0
1.2155001484230055 0.7177001484230056 0.0
1.2449617810760667 0.7471617810760669 0.0
1.2735922077922077 0.7757922077922077 0.0
1.3013914285714283 0.8035914285714285 0.0
1.3283594434137287 0.830559443413729 0.0
1.3544962523191093 0.8566962523191094 0.0
1.3798018552875693 0.8820018552875695 0.0
1.4042762523191092 0.9064762523191093 0.0
1.427919443413729 0.9301194434137292 0.0
1.4507314285714283 0.9529314285714284 0.0
1.4727122077922075 0.9749122077922077 0.0
1.4938617810760666 0.9960617810760668 0.0
1.5141801484230053 1.0163801484230055 0.0
1.5336673098330238 1.035867309833024 0.0
1.552323265306122 1.0545232653061223 0.0
1.5701480148423002 1.0723480148423004 0.0
1.5871415584415582 1.0893415584415584 0.0
1.603303896103896 1.105503896103896 0.0
1.6186350278293131 1.1208350278293133 0.0
1.6331349536178106 1.1353349536178106 0.0
1.6468036734693874 1.1490036734693876 0.0
1.6596411873840444 1.1618411873840446 0.0
1.6716474953617806 1.173847495361781 0.0
1.6828225974025972 1.1850225974025972 0.0
1.6931664935064934 1.1953664935064934 0.0
1.7026791836734692 1.2048791836734694 0.0
1.7113606679035245 1.2135606679035247 0.0
1.71921094619666 1.2214109461966602 0.0
1.7262300185528754 1.2284300185528756 0.0
1.7324178849721703 1.2346178849721705 0.0
1.7377745454545452 1.2399745454545454 0.0
1.7422999999999997 1.2445 0.0
1.6155872727272724 -1.2422372727272726 0.0
1.6106462152133578 -1.237296215213358 0.0
1.604873951762523 -1.2315239517625232 0.0
1.598270482374768 -1.224920482374768 0.0
1.5908358070500925 -1.2174858070500927 0.0
1.582569925788497 -1.2092199257884972 0.0
1.5734728385899812 -1.2001228385899814 0.0
1.5635445454545454 -1.1901945454545453 0.0
1.552785046382189 -1.1794350463821892 0.0
1.5411943413729126 -1.1678443413729127 0.0
1.5287724304267158 -1.155422430426716 0.0
1.5155193135435991 -1.142169313543599 0.0
1.501434990723562 -1.1280849907235622 0.0
1.4865194619666047 -1.1131694619666048 0.0
1.4707727272727271 -1.0974227272727273 0.0
1.4541947866419294 -1.0808447866419293 0.0
1.4367856400742112 -1.0634356400742113 0.0
1.418545287569573 -1.0451952875695731 0.0
1.3994737291280146 -1.0261237291280147 0.0
1.379570964749536 -1.0062209647495362 0.0
1.358836994434137 -0.9854869944341371 0.0
1.337271818181818 -0.9639218181818181 0.0
1.3148754359925787 -0.9415254359925787 0.0
1.291647847866419 -0.9182978478664192 0.0
1.2675890538033394 -0.8942390538033393 0.0
1.2426990538033393 -0.8693490538033395 0.0
1.2169778478664193 -0.8436278478664192 0.0
1.1904254359925788 -0.8170754359925788 0.0
1.163041818181818 -0.7896918181818181 0.0
1.1348269944341371 -0.7614769944341371 0.0
1.105780964749536 -0.7324309647495362 0.0
1.0759037291280147 -0.7025537291280148 0.0
1.0451952875695731 -0.6718452875695733 0.0
1.0136556400742114 -0.6403056400742114 0.0
0.9812847866419293 -0.6079347866419293 0.0
0.9480827272727271 -0.5747327272727272 0.0
0.9140494619666047 -0.5406994619666048 0.0
0.8791849907235622 -0.5058349907235622 0.0
0.8434893135435992 -0.47013931354359917 0.0
0.8069624304267162 -0.43361243042671627 0.0
0.7696043413729128 -0.3962543413729128 0.0
0.7314150463821893 -0.3580650463821894 0.0
0.6923945454545455 -0.3190445454545454 0.0
0.6525428385899814 -0.27919283858998134 0.0
0.6118599257884971 -0.23850992578849706 0.0
0.5703458070500929 -0.19699580705009279 0.0
0.5280004823747682 -0.15465048237476808 0.0
0.4848239517625232 -0.11147395176252317 0.0
0.4408162152133581 -0.06746621521335805 0.0
0.39597727272727273 -0.022627272727272718 0.0
0.39597727272727273 0.02262727272727273 0.0
0.4408162152133581 0.06746621521335806 0.0
0.4848239517625232 0.11147395176252319 0.0
0.528000482374768 0.15465048237476808 0.0
0.5703458070500929 0.19699580705009276 0.0
0.6118599257884971 0.23850992578849717 0.0
0.6525428385899814 0.2791928385899814 0.0
0.6923945454545455 0.3190445454545454 0.0
0.7314150463821891 0.3580650463821891 0.0
0.7696043413729128 0.39625434137291277 0.0
0.8069624304267162 0.43361243042671616 0.0
0.8434893135435992 0.4701393135435992 0.0
0.8791849907235619 0.5058349907235621 0.0
0.9140494619666046 0.5406994619666047 0.0
0.9480827272727271 0.5747327272727272 0.0
0.9812847866419294 0.6079347866419295 0.0
1.0136556400742114 0.6403056400742114 0.0
1.0451952875695731 0.6718452875695732 0.0
1.0759037291280147 0.7025537291280147 0.0
1.105780964749536 0.7324309647495362 0.0
1.1348269944341371 0.7614769944341373 0.0
1.163041818181818 0.789691818181818 0.0
1.1904254359925786 0.8170754359925786 0.0
1.216977847866419 0.843627847866419 0.0
1.2426990538033393 0.8693490538033394 0.0
1.2675890538033392 0.8942390538033393 0.0
1.291647847866419 0.9182978478664192 0.0
1.3148754359925787 0.9415254359925787 0.0
1.3372718181818182 0.9639218181818181 0.0
1.3588369944341372 0.9854869944341373 0.0
1.379570964749536 1.0062209647495362 0.0
1.3994737291280148 1.0261237291280147 0.0
1.418545287569573 1.0451952875695731 0.0
1.4367856400742112 1.0634356400742113 0.0
1.4541947866419291 1.0808447866419293 0.0
1.470772727272727 1.097422727272727 0.0
1.4865194619666047 1.1131694619666048 0.0
1.501434990723562 1.128084990723562 0.0
1.5155193135435991 1.1421693135435993 0.0
1.528772430426716 1.1554224304267162 0.0
1.5411943413729128 1.1678443413729127 0.0
1.5527850463821888 1.179435046382189 0.0
1.5635445454545451 1.1901945454545453 0.0
1.573472838589981 1.2001228385899811 0.0
1.5825699257884969 1.209219925788497 0.0
1.5908358070500925 1.2174858070500927 0.0
1.5982704823747678 1.224920482374768 0.0
1.604873951762523 1.2315239517625232 0.0
1.6106462152133578 1.237296215213358 0.0
1.6155872727272724 1.2422372727272726 0.0

CELLS 200 700
4 0 101 102 1
4 1 102 103 2
4 2 103 104 3
4 3 104 105 4
4 4 105 106 5
4 5 106 107 6
4 6 107 108 7
4 7 108 109 8
4 8 109 110 9
4 9 110 111 10
4 10 111 112 11
4 11 112 113 12
4 12 113 114 13
4 13 114 115 14
4 14 115 116 15
4 15 116 117 16
4 16 117 118 17
4 17 118 119 18
4 18 119 120 19
4 19 120 121 20
4 20 121 122 21
4 21 122 123 22
4 22 123 124 23
4 23 124 125 24
4 24 125 126 25
4 25 126 127 26
4 26 127 128 27
4 27 128 129 28
4 28 129 130 29
4 29 130 131 30
4 30 131 132 31
4 31 132 133 32
4 32 133 134 33
4 33 134 135 34
4 34 135 136 35
4 35 136 137 36
4 36 137 138 37
4 37 138 139 38
4 38 139 140 39
4 39 140 141 40
4 40 141 142 41
4 41 142 143 42
4 42 143 144 43
4 43 144 145 44
4 44 145 146 45
4 45 146 147 46
4 46 147 148 47
4 47 148 149 48
4 48 149 150 49
4 49 150 151 50
4 50 151 152 51
4 51 152 153 52
4 52 153 154 53
4 53 154 155 54
4 54 155 156 55
4 55 156 157 56
4 56 157 158 57
4 57 158 159 58
4 58 159 160 59
4 59 160 161 60
4 60 161 162 61
4 61 162 163 62
4 62 163 164 63
4 63 164 165 64
4 64 165 166 65
4 65 166 167 66
4 66 167 168 67
4 67 168 169 68
4 68 169 170 69
4 69 170 171 70
4 70 171 172 71
4 71 172 173 72
4 72 173 174 73
4 73 174 175 74
4 74 175 176 75
4 75 176 177 76
4 76 177 178 77
4 77 178 179 78
4 78 179 180 79
4 79 180 181 80
4 80 181 182 81
4 81 182 183 82
4 82 183 184 83
4 83 184 185 84
4 84 185 186 85
4 85 186 187 86
4 86 187 188 87
4 87 188 189 88
4 88 189 190 89
4 89 190 191 90
4 90 191 192 91
4 91 192 193 92
4 92 193 194 93
4 93 194 195 94
4 94 195 196 95
4 95 196 197 96
4 96 197 198 97
4 97 198 199 98
4 98 199 200 99
4 99 200 201 100
1 202
1 203
1 204
1 205
1 206
1 207
1 208
1 209
1 210
1 211
1 212
1 213
1 214
1 215
1 216
1 217
1 218
1 219
1 220
1 221
1 222
1 223
1 224
1 225
1 226
1 227
1 228
1 229
1 230
1 231
1 232
1 233
1 234
1 235
1 236
1 237
1 238
1 239
1 240
1 241
1 242
1 243
1 244
1 245
1 246
1 247
1 248
1 249
1 250
1 251
1 252
1 253
1 254
1 255
1 256
1 257
1 258
1 259
1 260
1 261
1 262
1 263
1 264
1 265
1 266
1 267
1 268
1 269
1 270
1 271
1 272
1 273
1 274
1 275
1 276
1 277
1 278
1 279
1 280
1 281
1 282
1 283
1 284
1 285
1 286
1 287
1 288
1 289
1 290
1 291
1 292
1 293
1 294
1 295
1 296
1 297
1 298
1 299
1 300
1 301

CELL_TYPES 200
9
9
9
9
9
9
9
9
9
9
9
9
9
9
9
9
9
9
9
9
9
9
9
9
9
9
9
9
9
9
9
9
9
9
9
9
9
9
9
9
9
9
9
9
9
9
9
9
9
9
9
9
9
9
9
9
9
9
9
9
9
9
9
9
9
9
9
9
9
9
9
9
9
9
9
9
9
9
9
9
9
9
9
9
9
9
9
9
9
9
9
9
9
9
9
9
9
9
9
9
1
1
1
1
1
1
1
1
1
1
1
1
1
1
1
1
1
1
1
1
1
1
1
1
1
1
1
1
1
1
1
1
1
1
1
1
1
1
1
1
1
1
1
1
1
1
1
1
1
1
1
1
1
1
1
1
1
1
1
1
1
1
1
1
1
1
1
1
1
1
1
1
1
1
1
1
1
1
1
1
1
1
1
1
1
1
1
1
1
1
1
1
1
1
1
1
1
1
1
1

CELL_DATA 200

VECTORS Vinf float
49.530969454004016 0.0370141611704873 4.3025311792385095
49.53343021341829 0.03769583589987244 4.267824884359027
49.53618941238491 0.03833085667341835 4.228629271654441
49.53918927500927 0.03886063382067817 4.185642676092664
49.542365421954855 0.0392311463305337 4.139653258833954
49.545650399444995 0.03939756668108093 4.091496454487802
49.54897787924892 0.03932783401591205 4.042003516764951
49.55228673237937 0.03900439850431031 3.9919514865763146
49.5555241546221 0.03842378212795478 3.942025217764031
49.55864730655459 0.03759422672182843 3.892798350111362
49.56162342701872 0.03653226232169882 3.8447336493539215
49.56382177258438 0.034728066062872556 3.800288420723067
49.56650397862223 0.03246732201125635 3.7544529261396113
49.56875560506093 0.025072814025788502 3.7113472183316625
49.570725239947656 0.02639754587587287 3.67561853951773
49.57257085473124 0.02719848754793363 3.641036361954187
49.57425855796729 0.027441353249550104 3.6082636434808237
49.57576470296228 0.02709160893590675 3.5778446365541967
49.57707249928841 0.02610974159372353 3.5502272063648803
49.57816812440597 0.024448858029386296 3.525783948059096
49.57903742430792 0.02205482434717397 3.504827819907573
49.57966426171958 0.018868443910125373 3.487622537783593
49.5806140017621 0.021538588694851278 3.468043650327842
49.581352929288116 0.026575337158358782 3.456810303044827
49.58196571550134 0.023237416483533942 3.440798448523449
49.58247258649859 0.020122456721877013 3.426772649889208
49.58288386633943 0.017276302597256977 3.414767751410149
49.5832090050236 0.014736652820554334 3.4048397543412023
49.58345158115179 0.012534899174600201 3.3970729659526886
49.58289576034813 0.011590699412110767 3.391365105398883
49.58292415108606 0.010734259643964855 3.3888704015742714
49.58294967867373 0.009736771452637351 3.3870811604695827
49.58293461702188 0.008724054118521016 3.3865443624729923
49.5828824552845 0.007699424748449618 3.3873146085224377
49.58279273211183 0.006659642774732688 3.389419016362761
49.58270857912411 0.0058769525009353465 3.392464197639425
49.58274251905663 0.00570948982845603 3.396259390370987
49.58248042673768 0.004691968378722293 3.4017088103766797
49.58212253237525 0.003672518539511064 3.408606104764575
49.58166530007775 0.002658884117160292 3.417215044714737
49.581091113828606 0.001641117975103916 3.4279112512994074
49.580284202476065 0.00043172540411456813 3.441806713482297
49.57938830405873 -0.000401720135084881 3.457906502333344
49.57816377359243 -0.0013441740248085786 3.478691203343599
49.57666074555762 -0.0021372394268851258 3.5039947917807566
49.57491390974043 -0.002648870524272947 3.532813714140479
49.57354520646198 -0.00222703028511998 3.5607136369967147
49.57209214148673 -0.0017861878321690514 3.5804451765339658
49.57153128474966 -0.0008904489006194077 3.5855188448415696
49.571698121966 -0.0001261803606634964 3.5793823881298654
49.5716274019026 0.0002358878477850793 3.5788551813365204
49.571359360638695 0.0010581518477395017 3.5852469930260793
49.5717995921981 0.002072827354827037 3.580534750103107
49.573123771266786 0.002692908018947458 3.561092930027398
49.57489778261034 0.002678092189842566 3.533014526723411
49.57664285913579 0.0021748859351966394 3.5042322162126753
49.5781487661437 0.0013907922896353154 3.478938783114546
49.57937994632975 0.0004555387804253758 3.458137645420665
49.58028406169774 -0.00037328489866048 3.4420009186679215
49.58110074905801 -0.00157966170948015 3.4280566464980042
49.5816849216936 -0.00259682517572783 3.4173056373510717
49.58215174557277 -0.0036126883659315843 3.408642843419154
49.58251718300076 -0.004637041849406485 3.4016987172345106
49.582783593013886 -0.005660824111255311 3.3962136252886634
49.582746757489446 -0.005839868424655416 3.39241436559876
49.58283001356835 -0.006625646212452092 3.3893526312722053
49.58291756555665 -0.007666781283700595 3.3872426150703636
49.58296738334378 -0.008691489565888465 3.386471474525448
49.58298038236454 -0.00970325749260816 3.3870099581333744
49.58295330167118 -0.010699053740026164 3.388801864124951
49.582924026882374 -0.011552291421721778 3.3912996422421564
49.58348387229308 -0.01249835973579292 3.3970016457891172
49.5832423690644 -0.014697786168777678 3.4047715622199215
49.582919166655515 -0.01723520319758917 3.4147006152817228
49.582510616623836 -0.020079537793906886 3.426703892186496
49.582007050242254 -0.023193347668880496 3.440725214003736
49.58139782327059 -0.026530875307664174 3.456730217841944
49.58066039895536 -0.0214992647101754 3.467979828210315
49.5797146588803 -0.01883089002351587 3.4875463146513366
49.579090547023775 -0.02201823516036717 3.504740068018362
49.578223544371845 -0.024413470398992023 3.525686377617104
49.57712988774872 -0.026075770496408135 3.550121612526123
49.57582380471159 -0.0270593169383778 3.5777325640984263
49.57431913397202 -0.027411069126986255 3.608146164597618
49.57263262524706 -0.027170574956790632 3.6409140296501126
49.570787852633494 -0.026372343640319068 3.6754915036977645
49.56881863676053 -0.025050575664760547 3.7112154241986786
49.566566678643 -0.032447479329820804 3.7543182114915794
49.56388432716034 -0.03471065317521118 3.8001489883376514
49.56168504939191 -0.03651236520742016 3.84459267818458
49.55870770269251 -0.037577053663656566 3.8926553637484504
49.55558311837702 -0.038408925818112574 3.9418801193717963
49.55234415947288 -0.03899143214704652 3.9918042986434967
49.54903375928229 -0.03931634722099954 4.041854338129954
49.545704799381596 -0.03938719253623252 4.091345420696027
49.54241846506316 -0.03922157742118787 4.13950051307673
49.53924111915274 -0.0388516274346266 4.185488354045526
49.536240230762196 -0.03832223137990526 4.228473499172241
49.533480179642915 -0.0376874626512594 4.267667783977502
49.53101873215741 -0.03700595203729427 4.3023728804844685
49.530969454004016 0.0370141611704873 4.3025311792385095
49.53343021341829 0.03769583589987244 4.267824884359027
49.53618941238491 0.03833085667341835 4.228629271654441
49.53918927500927 0.03886063382067817 4.185642676092664
49.542365421954855 0.0392311463305337 4.139653258833954
49.545650399444995 0.03939756668108093 4.091496454487802
49.54897787924892 0.03932783401591205 4.042003516764951
49.55228673237937 0.03900439850431031 3.9919514865763146
49.5555241546221 0.03842378212795478 3.942025217764031
49.55864730655459 0.03759422672182843 3.892798350111362
49.56162342701872 0.03653226232169882 3.8447336493539215
49.56382177258438 0.034728066062872556 3.800288420723067
49.56650397862223 0.03246732201125635 3.7544529261396113
49.56875560506093 0.025072814025788502 3.7113472183316625
49.570725239947656 0.02639754587587287 3.67561853951773
49.57257085473124 0.02719848754793363 3.641036361954187
49.57425855796729 0.027441353249550104 3.6082636434808237
49.57576470296228 0.02709160893590675 3.5778446365541967
49.57707249928841 0.02610974159372353 3.5502272063648803
49.57816812440597 0.024448858029386296 3.525783948059096
49.57903742430792 0.02205482434717397 3.504827819907573
49.57966426171958 0.018868443910125373 3.487622537783593
49.5806140017621 0.021538588694851278 3.468043650327842
49.581352929288116 0.026575337158358782 3.456810303044827
49.58196571550134 0.023237416483533942 3.440798448523449
49.58247258649859 0.020122456721877013 3.426772649889208
49.58288386633943 0.017276302597256977 3.414767751410149
49.5832090050236 0.014736652820554334 3.4048397543412023
49.58345158115179 0.012534899174600201 3.3970729659526886
49.58289576034813 0.011590699412110767 3.391365105398883
49.58292415108606 0.010734259643964855 3.3888704015742714
49.58294967867373 0.009736771452637351 3.3870811604695827
49.58293461702188 0.008724054118521016 3.3865443624729923
49.5828824552845 0.007699424748449618 3.3873146085224377
49.58279273211183 0.006659642774732688 3.389419016362761
49.58270857912411 0.0058769525009353465 3.392464197639425
49.58274251905663 0.00570948982845603 3.396259390370987
49.58248042673768 0.004691968378722293 3.4017088103766797
49.58212253237525 0.003672518539511064 3.408606104764575
49.58166530007775 0.002658884117160292 3.417215044714737
49.581091113828606 0.001641117975103916 3.4279112512994074
49.580284202476065 0.00043172540411456813 3.441806713482297
49.57938830405873 -0.000401720135084881 3.457906502333344
49.57816377359243 -0.0013441740248085786 3.478691203343599
49.57666074555762 -0.0021372394268851258 3.5039947917807566
49.57491390974043 -0.002648870524272947 3.532813714140479
49.57354520646198 -0.00222703028511998 3.5607136369967147
49.57209214148673 -0.0017861878321690514 3.5804451765339658
49.57153128474966 -0.0008904489006194077 3.5855188448415696
49.571698121966 -0.0001261803606634964 3.5793823881298654
49.5716274019026 0.0002358878477850793 3.5788551813365204
49.571359360638695 0.0010581518477395017 3.5852469930260793
49.5717995921981 0.002072827354827037 3.580534750103107
49.573123771266786 0.002692908018947458 3.561092930027398
49.57489778261034 0.002678092189842566 3.533014526723411
49.57664285913579 0.0021748859351966394 3.5042322162126753
49.5781487661437 0.0013907922896353154 3.478938783114546
49.57937994632975 0.0004555387804253758 3.458137645420665
49.58028406169774 -0.00037328489866048 3.4420009186679215
49.58110074905801 -0.00157966170948015 3.4280566464980042
49.5816849216936 -0.00259682517572783 3.4173056373510717
49.58215174557277 -0.0036126883659315843 3.408642843419154
49.58251718300076 -0.004637041849406485 3.4016987172345106
49.582783593013886 -0.005660824111255311 3.3962136252886634
49.582746757489446 -0.005839868424655416 3.39241436559876
49.58283001356835 -0.006625646212452092 3.3893526312722053
49.58291756555665 -0.007666781283700595 3.3872426150703636
49.58296738334378 -0.008691489565888465 3.386471474525448
49.58298038236454 -0.00970325749260816 3.3870099581333744
49.58295330167118 -0.010699053740026164 3.388801864124951
49.582924026882374 -0.011552291421721778 3.3912996422421564
49.58348387229308 -0.01249835973579292 3.3970016457891172
49.5832423690644 -0.014697786168777678 3.4047715622199215
49.582919166655515 -0.01723520319758917 3.4147006152817228
49.582510616623836 -0.020079537793906886 3.426703892186496
49.582007050242254 -0.023193347668880496 3.440725214003736
49.58139782327059 -0.026530875307664174 3.456730217841944
49.58066039895536 -0.0214992647101754 3.467979828210315
49.5797146588803 -0.01883089002351587 3.4875463146513366
49.579090547023775 -0.02201823516036717 3.504740068018362
49.578223544371845 -0.024413470398992023 3.525686377617104
49.57712988774872 -0.026075770496408135 3.550121612526123
49.57582380471159 -0.0270593169383778 3.5777325640984263
49.57431913397202 -0.027411069126986255 3.608146164597618
49.57263262524706 -0.027170574956790632 3.6409140296501126
49.570787852633494 -0.026372343640319068 3.6754915036977645
49.56881863676053 -0.025050575664760547 3.7112154241986786
49.566566678643 -0.032447479329820804 3.7543182114915794
49.56388432716034 -0.03471065317521118 3.8001489883376514
49.56168504939191 -0.03651236520742016 3.84459267818458
49.55870770269251 -0.037577053663656566 3.8926553637484504
49.55558311837702 -0.038408925818112574 3.9418801193717963
49.55234415947288 -0.03899143214704652 3.9918042986434967
49.54903375928229 -0.03931634722099954 4.041854338129954
49.545704799381596 -0.03938719253623252 4.091345420696027
49.54241846506316 -0.03922157742118787 4.13950051307673
49.53924111915274 -0.0388516274346266 4.185488354045526
49.536240230762196 -0.03832223137990526 4.228473499172241
49.533480179642915 -0.0376874626512594 4.267667783977502
49.53101873215741 -0.03700595203729427 4.3023728804844685

VECTORS L float
-0.006644160256867413 0.0 0.09047624700025875
-0.011987606735993203 0.0 0.16324014263001094
-0.01771300763355269 0.0 0.24120526775589518
-0.024012656264847755 0.0 0.3269901590806904
-0.0309285811621515 0.0 0.42116713631373354
-0.03846239296117501 0.0 0.523758132140088
-0.04659905992716358 0.0 0.6345584532811557
-0.05531431984897827 0.0 0.7532377112870927
-0.06457752819287692 0.0 0.8793786070114502
-0.07435225002976799 0.0 1.012484991126626
-0.08459988282222956 0.0 1.1520311970960537
-0.09529245652090168 0.0 1.2976363453207067
-0.10634738867436251 0.0 1.448175876791792
-0.11773303833994675 0.0 1.6032189238551235
-0.12940214469430095 0.0 1.7621219165542514
-0.1412993248708016 0.0 1.9241306837484313
-0.15337189702922066 0.0 2.088527835277789
-0.16557043244133993 0.0 2.25464027993888
-0.17784883134308943 0.0 2.4218402583942704
-0.1901645073308874 0.0 2.5895478541729013
-0.2024781766908828 0.0 2.757228124880239
-0.21475286171678037 0.0 2.9243775299695582
-0.22694958765481066 0.0 3.0904653342820896
-0.23904775061339295 0.0 3.255210966201292
-0.25100011171031644 0.0 3.417971154552227
-0.26279633683545395 0.0 3.5786051755316963
-0.2744208539163226 0.0 3.736900977861316
-0.28585992412674455 0.0 3.892671474327246
-0.29704955613170836 0.0 4.045045268754719
-0.30806247184055485 0.0 4.195012645119059
-0.3188492189775586 0.0 4.341900191560786
-0.3293888795906548 0.0 4.485423059773328
-0.3396671796356174 0.0 4.625386874259833
-0.34966708924228274 0.0 4.761559732314809
-0.35936921626273577 0.0 4.893677563130687
-0.3687501403792731 0.0 5.021421442664786
-0.3777841988617768 0.0 5.144441911027655
-0.3864447029053948 0.0 5.262375535850629
-0.3946976521223482 0.0 5.374759319950641
-0.4025035555124078 0.0 5.481055498229787
-0.4098159163333675 0.0 5.58063090553703
-0.4165856061263475 0.0 5.6728165395592836
-0.42272523274432816 0.0 5.756422345696127
-0.4281684209242625 0.0 5.830544464849952
-0.43281121610335305 0.0 5.893767305232351
-0.43652877819501934 0.0 5.944390868337522
-0.43918441046797363 0.0 5.980553698880528
-0.44068724162012807 0.0 6.001018365183763
-0.44106295683538627 0.0 6.006134632899058
-0.4392635796972746 0.0 5.981631778648042
-0.4392549686231114 0.0 5.981514518130114
-0.44105967765701926 0.0 6.006089978986385
-0.4406921321783951 0.0 6.001084961915423
-0.4391958309418051 0.0 5.980709216142498
-0.43654191085882943 0.0 5.944569701190541
-0.4328253589647037 0.0 5.893959894358348
-0.4281820157629571 0.0 5.830729591327356
-0.42273683384590605 0.0 5.756580322639979
-0.4165940860489329 0.0 5.6729320141325505
-0.40982686517522776 0.0 5.580780000393596
-0.4025120177226474 0.0 5.481170731606798
-0.39470367481421104 0.0 5.374841333408403
-0.386448541880231 0.0 5.262427812740722
-0.377786260883067 0.0 5.144469990414719
-0.36875115756341015 0.0 5.021435294077104
-0.35936854017816394 0.0 4.893668356610623
-0.34966527428805133 0.0 4.7615350173409094
-0.3396645029101423 0.0 4.625350424194532
-0.32938553265384307 0.0 4.485377483166208