# vtk DataFile Version 4.0
[MyVLM domain - lattices] 
ASCII
DATASET UNSTRUCTURED_GRID
POINTS 302 float
1.2444999999999997 -1.2445 0.0
1.2399745454545452 -1.2399745454545454 0.0
1.2346178849721705 -1.2346178849721707 0.0
1.2284300185528754 -1.2284300185528756 0.0
1.2214109461966602 -1.2214109461966605 0.0
1.2135606679035247 -1.213560667903525 0.0
1.2048791836734691 -1.2048791836734694 0.0
1.1953664935064932 -1.1953664935064934 0.0
1.1850225974025972 -1.1850225974025974 0.0
1.1738474953617808 -1.173847495361781 0.0
1.1618411873840442 -1.1618411873840444 0.0
1.1490036734693874 -1.1490036734693876 0.0
1.1353349536178106 -1.1353349536178108 0.0
1.1208350278293133 -1.1208350278293135 0.0
1.1055038961038959 -1.105503896103896 0.0
1.0893415584415582 -1.0893415584415584 0.0
1.0723480148423004 -1.0723480148423006 0.0
1.054523265306122 -1.0545232653061223 0.0
1.0358673098330238 -1.035867309833024 0.0
1.0163801484230053 -1.0163801484230055 0.0
0.9960617810760664 -0.9960617810760668 0.0
0.9749122077922076 -0.9749122077922077 0.0
0.9529314285714284 -0.9529314285714284 0.0
0.9301194434137288 -0.930119443413729 0.0
0.9064762523191091 -0.9064762523191096 0.0
0.8820018552875695 -0.8820018552875695 0.0
0.8566962523191093 -0.8566962523191094 0.0
0.8305594434137288 -0.8305594434137291 0.0
0.8035914285714284 -0.8035914285714285 0.0
0.7757922077922076 -0.7757922077922077 0.0
0.7471617810760666 -0.7471617810760667 0.0
0.7177001484230053 -0.7177001484230054 0.0
0.6874073098330239 -0.687407309833024 0.0
0.6562832653061222 -0.6562832653061225 0.0
0.6243280148423004 -0.6243280148423005 0.0
0.5915415584415582 -0.5915415584415583 0.0
0.5579238961038958 -0.5579238961038959 0.0
0.5234750278293133 -0.5234750278293134 0.0
0.48819495361781057 -0.48819495361781057 0.0
0.4520836734693877 -0.4520836734693877 0.0
0.4151411873840445 -0.4151411873840446 0.0
0.37736749536178105 -0.37736749536178116 0.0
0.3387625974025974 -0.3387625974025974 0.0
0.2993264935064933 -0.29932649350649343 0.0
0.25905918367346925 -0.25905918367346925 0.0
0.21796066790352486 -0.21796066790352486 0.0
0.17603094619666027 -0.1760309461966605 0.0
0.13327001855287546 -0.13327001855287568 0.0
0.08967788497217066 -0.08967788497217066 0.0
0.045254545454545436 -0.045254545454545436 0.0
0.0 0.0 0.0
0.04525454545454545 0.04525454545454546 0.0
0.08967788497217066 0.08967788497217068 0.0
0.13327001855287568 0.1332700185528757 0.0
0.17603094619666046 0.1760309461966605 0.0
0.21796066790352497 0.21796066790352508 0.0
0.2590591836734693 0.25905918367346936 0.0
0.29932649350649343 0.2993264935064935 0.0
0.3387625974025973 0.33876259740259734 0.0
0.37736749536178094 0.377367495361781 0.0
0.41514118738404443 0.4151411873840445 0.0
0.45208367346938766 0.4520836734693878 0.0
0.48819495361781057 0.4881949536178107 0.0
0.5234750278293133 0.5234750278293134 0.0
0.5579238961038959 0.557923896103896 0.0
0.5915415584415582 0.5915415584415583 0.0
0.6243280148423003 0.6243280148423004 0.0
0.6562832653061222 0.6562832653061225 0.0
0.687407309833024 0.6874073098330241 0.0
0.7177001484230054 0.7177001484230056 0.0
0.7471617810760667 0.7471617810760669 0.0
0.7757922077922076 0.7757922077922077 0.0
0.8035914285714284 0.8035914285714285 0.0
0.8305594434137288 0.830559443413729 0.0
0.8566962523191093 0.8566962523191094 0.0
0.8820018552875692 0.8820018552875695 0.0
0.9064762523191091 0.9064762523191093 0.0
0.9301194434137288 0.9301194434137292 0.0
0.9529314285714284 0.9529314285714284 0.0
0.9749122077922076 0.9749122077922077 0.0
0.9960617810760666 0.9960617810760668 0.0
1.0163801484230053 1.0163801484230055 0.0
1.0358673098330238 1.035867309833024 0.0
1.054523265306122 1.0545232653061223 0.0
1.0723480148423001 1.0723480148423004 0.0
1.0893415584415582 1.0893415584415584 0.0
1.1055038961038959 1.105503896103896 0.0
1.120835027829313 1.1208350278293133 0.0
1.1353349536178106 1.1353349536178106 0.0
1.1490036734693874 1.1490036734693876 0.0
1.1618411873840444 1.1618411873840446 0.0
1.1738474953617808 1.173847495361781 0.0
1.1850225974025972 1.1850225974025972 0.0
1.1953664935064932 1.1953664935064934 0.0
1.2048791836734691 1.2048791836734694 0.0
1.2135606679035245 1.2135606679035247 0.0
1.22141094619666 1.2214109461966602 0.0
1.2284300185528754 1.2284300185528756 0.0
1.2346178849721703 1.2346178849721705 0.0
1.2399745454545452 1.2399745454545454 0.0
1.2444999999999997 1.2445 0.0
1.7422999999999997 -1.2445 0.0
1.7377745454545452 -1.2399745454545454 0.0
1.7324178849721703 -1.2346178849721707 0.0
1.7262300185528754 -1.2284300185528756 0.0
1.7192109461966603 -1.2214109461966605 0.0
1.7113606679035245 -1.213560667903525 0.0
1.7026791836734692 -1.2048791836734694 0.0
1.6931664935064934 -1.1953664935064934 0.0
1.6828225974025972 -1.1850225974025974 0.0
1.6716474953617806 -1.173847495361781 0.0
1.6596411873840444 -1.1618411873840444 0.0
1.6468036734693878 -1.1490036734693876 0.0
1.6331349536178106 -1.1353349536178108 0.0
1.6186350278293133 -1.1208350278293135 0.0
1.603303896103896 -1.105503896103896 0.0
1.5871415584415582 -1.0893415584415584 0.0
1.5701480148423004 -1.0723480148423006 0.0
1.552323265306122 -1.0545232653061223 0.0
1.5336673098330238 -1.035867309833024 0.0
1.5141801484230053 -1.0163801484230055 0.0
1.4938617810760666 -0.9960617810760668 0.0
1.4727122077922075 -0.9749122077922077 0.0
1.4507314285714283 -0.9529314285714284 0.0
1.4279194434137288 -0.930119443413729 0.0
1.4042762523191092 -0.9064762523191096 0.0
1.3798018552875693 -0.8820018552875695 0.0
1.3544962523191093 -0.8566962523191094 0.0
1.328359443413729 -0.8305594434137291 0.0
1.3013914285714283 -0.8035914285714285 0.0
1.2735922077922077 -0.7757922077922077 0.0
1.2449617810760665 -0.7471617810760667 0.0
1.2155001484230055 -0.7177001484230054 0.0
1.1852073098330238 -0.687407309833024 0.0
1.1540832653061224 -0.6562832653061225 0.0
1.1221280148423003 -0.6243280148423005 0.0
1.0893415584415582 -0.5915415584415583 0.0
1.055723896103896 -0.5579238961038959 0.0
1.0212750278293132 -0.5234750278293134 0.0
0.9859949536178108 -0.48819495361781057 0.0
0.9498836734693876 -0.4520836734693877 0.0
0.9129411873840445 -0.4151411873840446 0.0
0.875167495361781 -0.37736749536178116 0.0
0.8365625974025973 -0.3387625974025974 0.0
0.7971264935064933 -0.29932649350649343 0.0
0.7568591836734693 -0.25905918367346925 0.0
0.7157606679035249 -0.21796066790352486 0.0
0.6738309461966603 -0.1760309461966605 0.0
0.6310700185528755 -0.13327001855287568 0.0
0.5874778849721707 -0.08967788497217066 0.0
0.5430545454545455 -0.045254545454545436 0.0
0.4978 0.0 0.0
0.5430545454545455 0.04525454545454546 0.0
0.5874778849721707 0.08967788497217068 0.0
0.6310700185528757 0.1332700185528757 0.0
0.6738309461966605 0.1760309461966605 0.0
0.715760667903525 0.21796066790352508 0.0
0.7568591836734693 0.25905918367346936 0.0
0.7971264935064934 0.2993264935064935 0.0
0.8365625974025973 0.33876259740259734 0.0
0.875167495361781 0.377367495361781 0.0
0.9129411873840445 0.4151411873840445 0.0
0.9498836734693876 0.4520836734693878 0.0
0.9859949536178105 0.4881949536178107 0.0
1.0212750278293132 0.5234750278293134 0.0
1.055723896103896 0.557923896103896 0.0
1.0893415584415582 0.5915415584415583 0.0
1.1221280148423003 0.6243280148423004 0.0
1.1540832653061224 0.6562832653061225 0.0
1.185207309833024 0.6874073098330241 0.0
1.2155001484230055 0.7177001484230056 0.0
1.2449617810760667 0.7471617810760669 0.0
1.2735922077922077 0.7757922077922077 0.0
1.3013914285714283 0.8035914285714285 0.0
1.3283594434137287 0.830559443413729 0.0
1.3544962523191093 0.8566962523191094 0.0
1.3798018552875693 0.8820018552875695 0.0
1.4042762523191092 0.9064762523191093 0.0
1.427919443413729 0.9301194434137292 0.0
1.4507314285714283 0.9529314285714284 0.0
1.4727122077922075 0.9749122077922077 0.0
1.4938617810760666 0.9960617810760668 0.0
1.5141801484230053 1.0163801484230055 0.0
1.5336673098330238 1.035867309833024 0.0
1.552323265306122 1.0545232653061223 0.0
1.5701480148423002 1.0723480148423004 0.0
1.5871415584415582 1.0893415584415584 0.0
1.603303896103896 1.105503896103896 0.0
1.6186350278293131 1.1208350278293133 0.0
1.6331349536178106 1.1353349536178106 0.0
1.6468036734693874 1.1490036734693876 0.0
1.6596411873840444 1.1618411873840446 0.0
1.6716474953617806 1.173847495361781 0.0
1.6828225974025972 1.1850225974025972 0.0
1.6931664935064934 1.1953664935064934 0.0
1.7026791836734692 1.2048791836734694 0.0
1.7113606679035245 1.2135606679035247 0.0
1.71921094619666 1.2214109461966602 0.0
1.7262300185528754 1.2284300185528756 0.0
1.7324178849721703 1.2346178849721705 0.0
1.7377745454545452 1.2399745454545454 0.0
1.7422999999999997 1.2445 0.0
1.6155872727272724 -1.2422372727272726 0.0
1.6106462152133578 -1.237296215213358 0.0
1.604873951762523 -1.2315239517625232 0.0
1.598270482374768 -1.224920482374768 0.0
1.5908358070500925 -1.2174858070500927 0.0
1.582569925788497 -1.2092199257884972 0.0
1.5734728385899812 -1.2001228385899814 0.0
1.5635445454545454 -1.1901945454545453 0.0
1.552785046382189 -1.1794350463821892 0.0
1.5411943413729126 -1.1678443413729127 0.0
1.5287724304267158 -1.155422430426716 0.0
1.5155193135435991 -1.142169313543599 0.0
1.501434990723562 -1.1280849907235622 0.0
1.4865194619666047 -1.1131694619666048 0.0
1.4707727272727271 -1.0974227272727273 0.0
1.4541947866419294 -1.0808447866419293 0.0
1.4367856400742112 -1.0634356400742113 0.0
1.418545287569573 -1.0451952875695731 0.0
1.3994737291280146 -1.0261237291280147 0.0
1.379570964749536 -1.0062209647495362 0.0
1.358836994434137 -0.9854869944341371 0.0
1.337271818181818 -0.9639218181818181 0.0
1.3148754359925787 -0.9415254359925787 0.0
1.291647847866419 -0.9182978478664192 0.0
1.2675890538033394 -0.8942390538033393 0.0
1.2426990538033393 -0.8693490538033395 0.0
1.2169778478664193 -0.8436278478664192 0.0
1.1904254359925788 -0.8170754359925788 0.0
1.163041818181818 -0.7896918181818181 0.0
1.1348269944341371 -0.7614769944341371 0.0
1.105780964749536 -0.7324309647495362 0.0
1.0759037291280147 -0.7025537291280148 0.0
1.0451952875695731 -0.6718452875695733 0.0
1.0136556400742114 -0.6403056400742114 0.0
0.9812847866419293 -0.6079347866419293 0.0
0.9480827272727271 -0.5747327272727272 0.0
0.9140494619666047 -0.5406994619666048 0.0
0.8791849907235622 -0.5058349907235622 0.0
0.8434893135435992 -0.47013931354359917 0.0
0.8069624304267162 -0.43361243042671627 0.0
0.7696043413729128 -0.3962543413729128 0.0
0.7314150463821893 -0.3580650463821894 0.0
0.6923945454545455 -0.3190445454545454 0.0
0.6525428385899814 -0.27919283858998134 0.0
0.6118599257884971 -0.23850992578849706 0.0
0.5703458070500929 -0.19699580705009279 0.0
0.5280004823747682 -0.15465048237476808 0.0
0.4848239517625232 -0.11147395176252317 0.0
0.4408162152133581 -0.06746621521335805 0.0
0.39597727272727273 -0.022627272727272718 0.0
0.39597727272727273 0.02262727272727273 0.0
0.4408162152133581 0.06746621521335806 0.0
0.4848239517625232 0.11147395176252319 0.0
0.528000482374768 0.15465048237476808 0.0
0.5703458070500929 0.19699580705009276 0.0
0.6118599257884971 0.23850992578849717 0.0
0.6525428385899814 0.2791928385899814 0.0
0.6923945454545455 0.3190445454545454 0.0
0.7314150463821891 0.3580650463821891 0.0
0.7696043413729128 0.39625434137291277 0.0
0.8069624304267162 0.43361243042671616 0.0
0.8434893135435992 0.4701393135435992 0.0
0.8791849907235619 0.5058349907235621 0.0
0.9140494619666046 0.5406994619666047 0.0
0.9480827272727271 0.5747327272727272 0.0
0.9812847866419294 0.6079347866419295 0.0
1.0136556400742114 0.6403056400742114 0.0
1.0451952875695731 0.6718452875695732 0.0
1.0759037291280147 0.7025537291280147 0.0
1.105780964749536 0.7324309647495362 0.0
1.1348269944341371 0.7614769944341373 0.0
1.163041818181818 0.789691818181818 0.0
1.1904254359925786 0.8170754359925786 0.0
1.216977847866419 0.843627847866419 0.0
1.2426990538033393 0.8693490538033394 0.0
1.2675890538033392 0.8942390538033393 0.0
1.291647847866419 0.9182978478664192 0.0
1.3148754359925787 0.9415254359925787 0.0
1.3372718181818182 0.9639218181818181 0.0
1.3588369944341372 0.9854869944341373 0.0
1.379570964749536 1.0062209647495362 0.0
1.3994737291280148 1.0261237291280147 0.0
1.418545287569573 1.0451952875695731 0.0
1.4367856400742112 1.0634356400742113 0.0
1.4541947866419291 1.0808447866419293 0.0
1.470772727272727 1.097422727272727 0.0
1.4865194619666047 1.1131694619666048 0.0
1.501434990723562 1.128084990723562 0.0
1.5155193135435991 1.1421693135435993 0.0
1.528772430426716 1.1554224304267162 0.0
1.5411943413729128 1.1678443413729127 0.0
1.5527850463821888 1.179435046382189 0.0
1.5635445454545451 1.1901945454545453 0.0
1.573472838589981 1.2001228385899811 0.0
1.5825699257884969 1.209219925788497 0.0
1.5908358070500925 1.2174858070500927 0.0
1.5982704823747678 1.224920482374768 0.0
1.604873951762523 1.2315239517625232 0.0
1.6106462152133578 1.237296215213358 0.0
1.6155872727272724 1.2422372727272726 0.0

CELLS 200 700
4 0 101 102 1
4 1 102 103 2
4 2 103 104 3
4 3 104 105 4
4 4 105 106 5
4 5 106 107 6
4 6 107 108 7
4 7 108 109 8
4 8 109 110 9
4 9 110 111 10
4 10 111 112 11
4 11 112 113 12
4 12 113 114 13
4 13 114 115 14
4 14 115 116 15
4 15 116 117 16
4 16 117 118 17
4 17 118 119 18
4 18 119 120 19
4 19 120 121 20
4 20 121 122 21
4 21 122 123 22
4 22 123 124 23
4 23 124 125 24
4 24 125 126 25
4 25 126 127 26
4 26 127 128 27
4 27 128 129 28
4 28 129 130 29
4 29 130 131 30
4 30 131 132 31
4 31 132 133 32
4 32 133 134 33
4 33 134 135 34
4 34 135 136 35
4 35 136 137 36
4 36 137 138 37
4 37 138 139 38
4 38 139 140 39
4 39 140 141 40
4 40 141 142 41
4 41 142 143 42
4 42 143 144 43
4 43 144 145 44
4 44 145 146 45
4 45 146 147 46
4 46 147 148 47
4 47 148 149 48
4 48 149 150 49
4 49 150 151 50
4 50 151 152 51
4 51 152 153 52
4 52 153 154 53
4 53 154 155 54
4 54 155 156 55
4 55 156 157 56
4 56 157 158 57
4 57 158 159 58
4 58 159 160 59
4 59 160 161 60
4 60 161 162 61
4 61 162 163 62
4 62 163 164 63
4 63 164 165 64
4 64 165 166 65
4 65 166 167 66
4 66 167 168 67
4 67 168 169 68
4 68 169 170 69
4 69 170 171 70
4 70 171 172 71
4 71 172 173 72
4 72 173 174 73
4 73 174 175 74
4 74 175 176 75
4 75 176 177 76
4 76 177 178 77
4 77 178 179 78
4 78 179 180 79
4 79 180 181 80
4 80 181 182 81
4 81 182 183 82
4 82 183 184 83
4 83 184 185 84
4 84 185 186 85
4 85 186 187 86
4 86 187 188 87
4 87 188 189 88
4 88 189 190 89
4 89 190 191 90
4 90 191 192 91
4 91 192 193 92
4 92 193 194 93
4 93 194 195 94
4 94 195 196 95
4 95 196 197 96
4 96 197 198 97
4 97 198 199 98
4 98 199 200 99
4 99 200 201 100
1 202
1 203
1 204
1 205
1 206
1 207
1 208
1 209
1 210
1 211
1 212
1 213
1 214
1 215
1 216
1 217
1 218
1 219
1 220
1 221
1 222
1 223
1 224
1 225
1 226
1 227
1 228
1 229
1 230
1 231
1 232
1 233
1 234
1 235
1 236
1 237
1 238
1 239
1 240
1 241
1 242
1 243
1 244
1 245
1 246
1 247
1 248
1 249
1 250
1 251
1 252
1 253
1 254
1 255
1 256
1 257
1 258
1 259
1 260
1 261
1 262
1 263
1 264
1 265
1 266
1 267
1 268
1 269
1 270
1 271
1 272
1 273
1 274
1 275
1 276
1 277
1 278
1 279
1 280
1 281
1 282
1 283
1 284
1 285
1 286
1 287
1 288
1 289
1 290
1 291
1 292
1 293
1 294
1 295
1 296
1 297
1 298
1 299
1 300
1 301

CELL_TYPES 200
9
9
9
9
9
9
9
9
9
9
9
9
9
9
9
9
9
9
9
9
9
9
9
9
9
9
9
9
9
9
9
9
9
9
9
9
9
9
9
9
9
9
9
9
9
9
9
9
9
9
9
9
9
9
9
9
9
9
9
9
9
9
9
9
9
9
9
9
9
9
9
9
9
9
9
9
9
9
9
9
9
9
9
9
9
9
9
9
9
9
9
9
9
9
9
9
9
9
9
9
1
1
1
1
1
1
1
1
1
1
1
1
1
1
1
1
1
1
1
1
1
1
1
1
1
1
1
1
1
1
1
1
1
1
1
1
1
1
1
1
1
1
1
1
1
1
1
1
1
1
1
1
1
1
1
1
1
1
1
1
1
1
1
1
1
1
1
1
1
1
1
1
1
1
1
1
1
1
1
1
1
1
1
1
1
1
1
1
1
1
1
1
1
1
1
1
1
1
1
1

CELL_DATA 200

VECTORS Vinf float
49.53016800098995 0.029037196455380283 4.316498468072132
49.53264595779066 0.02999602433467323 4.28119029047371
49.53541827439675 0.03094598268097639 4.241342199968914
49.538424111828384 0.03182483012640991 4.197671159523486
49.541595845205556 0.03257474112693603 4.150982603030986
49.54486282345135 0.03314707601772576 4.102125891120745
49.54815590255314 0.03350606093943874 4.051940504925388
49.55125349996446 0.034084812871297575 4.004799615053848
49.55552974931148 0.029022587621219016 3.9374645521154483
49.55817173747065 0.02972160892466065 3.8938705980340833
49.56072365225142 0.030206541817690703 3.850638508518784
49.563160730110575 0.03046857118949178 3.808210071644767
49.56546471599808 0.030497662269254558 3.7669801608034463
49.56762261471806 0.030280535784910093 3.727303723190669
49.56962533865569 0.029799693530798557 3.6894992304341443
49.57146639008722 0.029033308759817245 3.653848617073998
49.57314066954456 0.027955716346486803 3.620595153973063
49.57464349327142 0.026538235639572454 3.5899409666721183
49.57596986659384 0.024750068128507795 3.5620460097719424
49.577114013995065 0.022559063001305644 3.5370304737761034
49.578069198456944 0.01993226695144263 3.5149819813323417
49.57882798776901 0.01683627992024341 3.49596692004723
49.57972353336652 0.01590370084362389 3.4712413560677513
49.58029742186147 0.016043364360626314 3.4580603600264728
49.58079040814683 0.015863246232565194 3.44581714592063
49.581202735876076 0.015363751405364737 3.434707528715855
49.58154070758676 0.014535868218647675 3.424851452392094
49.58181122995324 0.013360292919849049 3.416327790405385
49.58201757614606 0.01181000155769115 3.409200921018519
49.58215821327351 0.00985484666354827 3.403535547345286
49.58222869804167 0.007465453110610181 3.399397058634894
49.582589701220094 0.01594106595060234 3.4017147216585553
49.582588394358424 0.013666913429081011 3.39960255861812
49.58253463314202 0.011604193411888338 3.398992598186533
49.582435638233136 0.009776401386513856 3.3998508396399987
49.582299761807406 0.008201033034712998 3.4021492230586357
49.58212820620614 0.0068866079937647574 3.405924857171695
49.5819050582417 0.005837422248885975 3.411316162916187
49.581500407013124 0.004674537472657638 3.417540783335165
49.58110714546131 0.0033413467152808877 3.4262557743401856
49.58056458093256 0.0020006999847479298 3.437057120605467
49.579842187607255 0.0006857372768202636 3.4505155371818623
49.57890900178419 -0.0005684555012627344 3.467315583351348
49.57772647351171 -0.0017134435670233346 3.4881213073693793
49.57651298582317 -0.0011435261764586918 3.5137302089691524
49.57470767001377 -0.0019099008029485481 3.5424722942906937
49.57286932021828 -0.00212765537659412 3.570433135190755
49.57149450345766 -0.001655692062504687 3.589589558871181
49.57101822592543 -0.0007448434328558791 3.593942665493013
49.571260920188045 1.4896492515585833e-5 3.5871944895465178
49.571261762393775 -1.4163936613366308e-5 3.5871936472623274
49.57101920505177 0.0007456059702899632 3.5939399046314198
49.57149562025662 0.0016564712056751606 3.5895851836164296
49.57287059812097 0.0021284444457653913 3.570427227405449
49.57470914903004 0.0019106914973924278 3.542464794283991
49.576514714461695 0.0011443051999774079 3.5137210034975097
49.57772865312164 0.0017141745889172682 3.4881102868360307
49.578911575929624 0.0005690307706414903 3.4673020570417266
49.57984518356708 -0.0006853580959379421 3.4504994040174646
49.58056802591381 -0.0020005560953454972 3.4370382063523763
49.581111071176004 -0.0033414824133209593 3.426233820255693
49.58150484168564 -0.004675010747937102 3.417515469816479
49.581910091190814 -0.005838246071332388 3.4112869029824178
49.58213369072916 -0.006887946607356211 3.4058918168990133
49.58230565433811 -0.008202935026064699 3.4021122521605034
49.58244188986222 -0.009778887595341314 3.3998098928024936
49.58254120447982 -0.011607260614429415 3.398947735748961
49.582595262240794 -0.013670546499667112 3.399553907576672
49.582596855865816 -0.01594524950475776 3.401662411994905
49.5822356602374 -0.007471191392461566 3.3993438520880868
49.58216527439412 -0.009859670623636718 3.4034789636932126
49.58202480240842 -0.011813960649055988 3.4091407728385494
49.581818679375964 -0.013363438483202691 3.4162639343365777
49.581548431962425 -0.014538253008736332 3.4247837506594885
49.581210781964764 -0.01536542921174459 3.434635821002303
49.58079881614229 -0.01586427067715443 3.445741261546156
49.58030622139495 -0.0160437872214504 3.4579801729055824
49.579732739581424 -0.015903570253232933 3.471156852648803
49.57883920622129 -0.016840019445542632 3.4958751914732407
49.57808083715788 -0.019935926379426507 3.514886723819345
49.577125998972775 -0.02256266419060354 3.5369322941751613
49.57598212358719 -0.024753603698183673 3.5619455588966136
49.57465595726356 -0.02654167164529743 3.589838859482628
49.57315329210297 -0.027958999634964468 3.620491928815247
49.57147914302184 -0.02903637690402784 3.6537447355124435
49.569638213882044 -0.029802484959974205 3.689395098713316
49.56763562125161 -0.030282998243773677 3.727199712222307
49.565477875432755 -0.030499758562245856 3.7668766106464306
49.56317407183986 -0.03047028199045821 3.808107278682215
49.56073720928283 -0.030207865950458632 3.8505367019529317
49.55818554317166 -0.029722561814244427 3.8937699155554686
49.55554383499504 -0.029023198595464116 3.937365023992538
49.551268116749895 -0.0340840555508641 4.004700138119433
49.5481703820995 -0.033506513821949586 4.051841280601565
49.5448777678738 -0.03314724618774437 4.102026859726138
49.541611258324174 -0.03257468380688548 4.150883376900435
49.53843998703604 -0.031824598777709295 4.197571384953313
49.535434593913386 -0.03094562598901527 4.241241591455701
49.532662692618835 -0.029995584000669318 4.2810886540762105
49.53018511154344 -0.029036705892901242 4.316395712547369
49.53016800098995 0.029037196455380283 4.316498468072132
49.53264595779066 0.02999602433467323 4.28119029047371
49.53541827439675 0.03094598268097639 4.241342199968914
49.538424111828384 0.03182483012640991 4.197671159523486
49.541595845205556 0.03257474112693603 4.150982603030986
49.54486282345135 0.03314707601772576 4.102125891120745
49.54815590255314 0.03350606093943874 4.051940504925388
49.55125349996446 0.034084812871297575 4.004799615053848
49.55552974931148 0.029022587621219016 3.9374645521154483
49.55817173747065 0.02972160892466065 3.8938705980340833
49.56072365225142 0.030206541817690703 3.850638508518784
49.563160730110575 0.03046857118949178 3.808210071644767
49.56546471599808 0.030497662269254558 3.7669801608034463
49.56762261471806 0.030280535784910093 3.727303723190669
49.56962533865569 0.029799693530798557 3.6894992304341443
49.57146639008722 0.029033308759817245 3.653848617073998
49.57314066954456 0.027955716346486803 3.620595153973063
49.57464349327142 0.026538235639572454 3.5899409666721183
49.57596986659384 0.024750068128507795 3.5620460097719424
49.577114013995065 0.022559063001305644 3.5370304737761034
49.578069198456944 0.01993226695144263 3.5149819813323417
49.57882798776901 0.01683627992024341 3.49596692004723
49.57972353336652 0.01590370084362389 3.4712413560677513
49.58029742186147 0.016043364360626314 3.4580603600264728
49.58079040814683 0.015863246232565194 3.44581714592063
49.581202735876076 0.015363751405364737 3.434707528715855
49.58154070758676 0.014535868218647675 3.424851452392094
49.58181122995324 0.013360292919849049 3.416327790405385
49.58201757614606 0.01181000155769115 3.409200921018519
49.58215821327351 0.00985484666354827 3.403535547345286
49.58222869804167 0.007465453110610181 3.399397058634894
49.582589701220094 0.01594106595060234 3.4017147216585553
49.582588394358424 0.013666913429081011 3.39960255861812
49.58253463314202 0.011604193411888338 3.398992598186533
49.582435638233136 0.009776401386513856 3.3998508396399987
49.582299761807406 0.008201033034712998 3.4021492230586357
49.58212820620614 0.0068866079937647574 3.405924857171695
49.5819050582417 0.005837422248885975 3.411316162916187
49.581500407013124 0.004674537472657638 3.417540783335165
49.58110714546131 0.0033413467152808877 3.4262557743401856
49.58056458093256 0.0020006999847479298 3.437057120605467
49.579842187607255 0.0006857372768202636 3.4505155371818623
49.57890900178419 -0.0005684555012627344 3.467315583351348
49.57772647351171 -0.0017134435670233346 3.4881213073693793
49.57651298582317 -0.0011435261764586918 3.5137302089691524
49.57470767001377 -0.0019099008029485481 3.5424722942906937
49.57286932021828 -0.00212765537659412 3.570433135190755
49.57149450345766 -0.001655692062504687 3.589589558871181
49.57101822592543 -0.0007448434328558791 3.593942665493013
49.571260920188045 1.4896492515585833e-5 3.5871944895465178
49.571261762393775 -1.4163936613366308e-5 3.5871936472623274
49.57101920505177 0.0007456059702899632 3.5939399046314198
49.57149562025662 0.0016564712056751606 3.5895851836164296
49.57287059812097 0.0021284444457653913 3.570427227405449
49.57470914903004 0.0019106914973924278 3.542464794283991
49.576514714461695 0.0011443051999774079 3.5137210034975097
49.57772865312164 0.0017141745889172682 3.4881102868360307
49.578911575929624 0.0005690307706414903 3.4673020570417266
49.57984518356708 -0.0006853580959379421 3.4504994040174646
49.58056802591381 -0.0020005560953454972 3.4370382063523763
49.581111071176004 -0.0033414824133209593 3.426233820255693
49.58150484168564 -0.004675010747937102 3.417515469816479
49.581910091190814 -0.005838246071332388 3.4112869029824178
49.58213369072916 -0.006887946607356211 3.4058918168990133
49.58230565433811 -0.008202935026064699 3.4021122521605034
49.58244188986222 -0.009778887595341314 3.3998098928024936
49.58254120447982 -0.011607260614429415 3.398947735748961
49.582595262240794 -0.013670546499667112 3.399553907576672
49.582596855865816 -0.01594524950475776 3.401662411994905
49.5822356602374 -0.007471191392461566 3.3993438520880868
49.58216527439412 -0.009859670623636718 3.4034789636932126
49.58202480240842 -0.011813960649055988 3.4091407728385494
49.581818679375964 -0.013363438483202691 3.4162639343365777
49.581548431962425 -0.014538253008736332 3.4247837506594885
49.581210781964764 -0.01536542921174459 3.434635821002303
49.58079881614229 -0.01586427067715443 3.445741261546156
49.58030622139495 -0.0160437872214504 3.4579801729055824
49.579732739581424 -0.015903570253232933 3.471156852648803
49.57883920622129 -0.016840019445542632 3.4958751914732407
49.57808083715788 -0.019935926379426507 3.514886723819345
49.577125998972775 -0.02256266419060354 3.5369322941751613
49.57598212358719 -0.024753603698183673 3.5619455588966136
49.57465595726356 -0.02654167164529743 3.589838859482628
49.57315329210297 -0.027958999634964468 3.620491928815247
49.57147914302184 -0.02903637690402784 3.6537447355124435
49.569638213882044 -0.029802484959974205 3.689395098713316
49.56763562125161 -0.030282998243773677 3.727199712222307
49.565477875432755 -0.030499758562245856 3.7668766106464306
49.56317407183986 -0.03047028199045821 3.808107278682215
49.56073720928283 -0.030207865950458632 3.8505367019529317
49.55818554317166 -0.029722561814244427 3.8937699155554686
49.55554383499504 -0.029023198595464116 3.937365023992538
49.551268116749895 -0.0340840555508641 4.004700138119433
49.5481703820995 -0.033506513821949586 4.051841280601565
49.5448777678738 -0.03314724618774437 4.102026859726138
49.541611258324174 -0.03257468380688548 4.150883376900435
49.53843998703604 -0.031824598777709295 4.197571384953313
49.535434593913386 -0.03094562598901527 4.241241591455701
49.532662692618835 -0.029995584000669318 4.2810886540762105
49.53018511154344 -0.029036705892901242 4.316395712547369

VECTORS L float
-0.006662803924177716 0.0 0.09073012544137765
-0.012020651333505428 0.0 0.16369012442619804
-0.01776115176935013 0.0 0.24186086613908006
-0.024077080509493823 0.0 0.32786745036296766
-0.031010522483191232 0.0 0.42228296478795735
-0.038563023554305964 0.0 0.5251284600743801
-0.046719413433162334 0.0 0.6361973561846241
-0.055455317306551205 0.0 0.7551577313204134
-0.06473341212898166 0.0 0.8815013423099868
-0.07453574520720137 0.0 1.0149837199885101
-0.08481693738034128 0.0 1.1549869177669916
-0.0955302617423762 0.0 1.3008746362595565
-0.10662661594753699 0.0 1.4519782287460257
-0.11805474649702542 0.0 1.6075997553758208
-0.12976208228256375 0.0 1.767023333871313
-0.14169586504027754 0.0 1.9295305333805872
-0.15380434577601382 0.0 2.0944166666902118
-0.16603786023812017 0.0 2.2610054353778333
-0.17834963002418522 0.0 2.42865983881023
-0.1906961780086946 0.0 2.596787831191571
-0.2030371979036763 0.0 2.7648405453173908
-0.2153342526315672 0.0 2.9322945677856747
-0.22758075739948916 0.0 3.0990602307792954
-0.23970108003568094 0.0 3.26410762008955
-0.25169517943196856 0.0 3.427436175929624
-0.2635366202125732 0.0 3.588685916978171
-0.2752044353381553 0.0 3.7475713264871287
-0.28668115847919545 0.0 3.9038545583054876
-0.2979519140665609 0.0 4.057333045725779
-0.3090037883843175 0.0 4.207830937397738
-0.31982598882844 0.0 4.355201266019278
-0.33041608666169 0.0 4.499410958482322
-0.34072008230941037 0.0 4.639724680498457
-0.3507374319966183 0.0 4.7761350272613905
-0.3604539955198117 0.0 4.90844944583814
-0.36985093158491555 0.0 5.036411366623119
-0.37890526326985796 0.0 5.159707903473263
-0.38758912989139727 0.0 5.277959666072698
-0.3958136301170039 0.0 5.3899560486248115
-0.4036281795515494 0.0 5.49636996362707
-0.410949330587964 0.0 5.596065070892462
-0.417720521464826 0.0 5.688271145787728
-0.42387366023346307 0.0 5.772060952405148
-0.42932530882644254 0.0 5.846298280462852
-0.4339745654740829 0.0 5.909609109304575
-0.437691735232896 0.0 5.960227329852859
-0.44034198825986526 0.0 5.996316909003726
-0.4418313384352739 0.0 6.016597999334272
-0.4421890184885874 0.0 6.021468674874828
-0.440365870180913 0.0 5.996642118887897
-0.44036575591155463 0.0 5.996640562835321
-0.44218859922210774 0.0 6.021462965551737
-0.4418306071448335 0.0 6.016588041053322
-0.44034094532905177 0.0 5.996302706988387
-0.4376903831549802 0.0 5.960208918055019
-0.43397290662936117 0.0 5.9095865201377
-0.4293233438922876 0.0 5.846271523151008
-0.42387138820875325 0.0 5.77203001331565
-0.41771794556182335 0.0 5.688236068663259
-0.410946455404959 0.0 5.596025918349827
-0.403625010756415 0.0 5.496326812848012
-0.39581017414792735 0.0 5.389908987280759
-0.3875853966078932 0.0 5.277908828424693
-0.37890127150062625 0.0 5.159653545919409
-0.36984670095030825 0.0 5.036353756341774
-0.36044954896722076 0.0 4.9083888953133235
-0.35073279558927445 0.0 4.776071891406773