# vtk DataFile Version 4.0
[MyVLM domain - lattices] 
ASCII
DATASET UNSTRUCTURED_GRID
POINTS 302 float
1.2444999999999997 -1.2445 0.0
1.2399745454545452 -1.2399745454545454 0.0
1.2346178849721705 -1.2346178849721707 0.0
1.2284300185528754 -1.2284300185528756 0.0
1.2214109461966602 -1.2214109461966605 0.0
1.2135606679035247 -1.213560667903525 0.0
1.2048791836734691 -1.2048791836734694 0.0
1.1953664935064932 -1.1953664935064934 0.0
1.1850225974025972 -1.1850225974025974 0.0
1.1738474953617808 -1.173847495361781 0.0
1.1618411873840442 -1.1618411873840444 0.0
1.1490036734693874 -1.1490036734693876 0.0
1.1353349536178106 -1.1353349536178108 0.0
1.1208350278293133 -1.1208350278293135 0.0
1.1055038961038959 -1.105503896103896 0.0
1.0893415584415582 -1.0893415584415584 0.0
1.0723480148423004 -1.0723480148423006 0.0
1.054523265306122 -1.0545232653061223 0.0
1.0358673098330238 -1.035867309833024 0.0
1.0163801484230053 -1.0163801484230055 0.0
0.9960617810760664 -0.9960617810760668 0.0
0.9749122077922076 -0.9749122077922077 0.0
0.9529314285714284 -0.9529314285714284 0.0
0.9301194434137288 -0.930119443413729 0.0
0.9064762523191091 -0.9064762523191096 0.0
0.8820018552875695 -0.8820018552875695 0.0
0.8566962523191093 -0.8566962523191094 0.0
0.8305594434137288 -0.8305594434137291 0.0
0.8035914285714284 -0.8035914285714285 0.0
0.7757922077922076 -0.7757922077922077 0.0
0.7471617810760666 -0.7471617810760667 0.0
0.7177001484230053 -0.7177001484230054 0.0
0.6874073098330239 -0.687407309833024 0.0
0.6562832653061222 -0.6562832653061225 0.0
0.6243280148423004 -0.6243280148423005 0.0
0.5915415584415582 -0.5915415584415583 0.0
0.5579238961038958 -0.5579238961038959 0.0
0.5234750278293133 -0.5234750278293134 0.0
0.48819495361781057 -0.48819495361781057 0.0
0.4520836734693877 -0.4520836734693877 0.0
0.4151411873840445 -0.4151411873840446 0.0
0.37736749536178105 -0.37736749536178116 0.0
0.3387625974025974 -0.3387625974025974 0.0
0.2993264935064933 -0.29932649350649343 0.0
0.25905918367346925 -0.25905918367346925 0.0
0.21796066790352486 -0.21796066790352486 0.0
0.17603094619666027 -0.1760309461966605 0.0
0.13327001855287546 -0.13327001855287568 0.0
0.08967788497217066 -0.08967788497217066 0.0
0.045254545454545436 -0.045254545454545436 0.0
0.0 0.0 0.0
0.04525454545454545 0.04525454545454546 0.0
0.08967788497217066 0.08967788497217068 0.0
0.13327001855287568 0.1332700185528757 0.0
0.17603094619666046 0.1760309461966605 0.0
0.21796066790352497 0.21796066790352508 0.0
0.2590591836734693 0.25905918367346936 0.0
0.29932649350649343 0.2993264935064935 0.0
0.3387625974025973 0.33876259740259734 0.0
0.37736749536178094 0.377367495361781 0.0
0.41514118738404443 0.4151411873840445 0.0
0.45208367346938766 0.4520836734693878 0.0
0.48819495361781057 0.4881949536178107 0.0
0.5234750278293133 0.5234750278293134 0.0
0.5579238961038959 0.557923896103896 0.0
0.5915415584415582 0.5915415584415583 0.0
0.6243280148423003 0.6243280148423004 0.0
0.6562832653061222 0.6562832653061225 0.0
0.687407309833024 0.6874073098330241 0.0
0.7177001484230054 0.7177001484230056 0.0
0.7471617810760667 0.7471617810760669 0.0
0.7757922077922076 0.7757922077922077 0.0
0.8035914285714284 0.8035914285714285 0.0
0.8305594434137288 0.830559443413729 0.0
0.8566962523191093 0.8566962523191094 0.0
0.8820018552875692 0.8820018552875695 0.0
0.9064762523191091 0.9064762523191093 0.0
0.9301194434137288 0.9301194434137292 0.0
0.9529314285714284 0.9529314285714284 0.0
0.9749122077922076 0.9749122077922077 0.0
0.9960617810760666 0.9960617810760668 0.0
1.0163801484230053 1.0163801484230055 0.0
1.0358673098330238 1.035867309833024 0.0
1.054523265306122 1.0545232653061223 0.0
1.0723480148423001 1.0723480148423004 0.0
1.0893415584415582 1.0893415584415584 0.0
1.1055038961038959 1.105503896103896 0.0
1.120835027829313 1.1208350278293133 0.0
1.1353349536178106 1.1353349536178106 0.0
1.1490036734693874 1.1490036734693876 0.0
1.1618411873840444 1.1618411873840446 0.0
1.1738474953617808 1.173847495361781 0.0
1.1850225974025972 1.1850225974025972 0.0
1.1953664935064932 1.1953664935064934 0.0
1.2048791836734691 1.2048791836734694 0.0
1.2135606679035245 1.2135606679035247 0.0
1.22141094619666 1.2214109461966602 0.0
1.2284300185528754 1.2284300185528756 0.0
1.2346178849721703 1.2346178849721705 0.0
1.2399745454545452 1.2399745454545454 0.0
1.2444999999999997 1.2445 0.0
1.7422999999999997 -1.2445 0.0
1.7377745454545452 -1.2399745454545454 0.0
1.7324178849721703 -1.2346178849721707 0.0
1.7262300185528754 -1.2284300185528756 0.0
1.7192109461966603 -1.2214109461966605 0.0
1.7113606679035245 -1.213560667903525 0.0
1.7026791836734692 -1.2048791836734694 0.0
1.6931664935064934 -1.1953664935064934 0.0
1.6828225974025972 -1.1850225974025974 0.0
1.6716474953617806 -1.173847495361781 0.0
1.6596411873840444 -1.1618411873840444 0.0
1.6468036734693878 -1.1490036734693876 0.0
1.6331349536178106 -1.1353349536178108 0.0
1.6186350278293133 -1.1208350278293135 0.0
1.603303896103896 -1.105503896103896 0.0
1.5871415584415582 -1.0893415584415584 0.0
1.5701480148423004 -1.0723480148423006 0.0
1.552323265306122 -1.0545232653061223 0.0
1.5336673098330238 -1.035867309833024 0.0
1.5141801484230053 -1.0163801484230055 0.0
1.4938617810760666 -0.9960617810760668 0.0
1.4727122077922075 -0.9749122077922077 0.0
1.4507314285714283 -0.9529314285714284 0.0
1.4279194434137288 -0.930119443413729 0.0
1.4042762523191092 -0.9064762523191096 0.0
1.3798018552875693 -0.8820018552875695 0.0
1.3544962523191093 -0.8566962523191094 0.0
1.328359443413729 -0.8305594434137291 0.0
1.3013914285714283 -0.8035914285714285 0.0
1.2735922077922077 -0.7757922077922077 0.0
1.2449617810760665 -0.7471617810760667 0.0
1.2155001484230055 -0.7177001484230054 0.0
1.1852073098330238 -0.687407309833024 0.0
1.1540832653061224 -0.6562832653061225 0.0
1.1221280148423003 -0.6243280148423005 0.0
1.0893415584415582 -0.5915415584415583 0.0
1.055723896103896 -0.5579238961038959 0.0
1.0212750278293132 -0.5234750278293134 0.0
0.9859949536178108 -0.48819495361781057 0.0
0.9498836734693876 -0.4520836734693877 0.0
0.9129411873840445 -0.4151411873840446 0.0
0.875167495361781 -0.37736749536178116 0.0
0.8365625974025973 -0.3387625974025974 0.0
0.7971264935064933 -0.29932649350649343 0.0
0.7568591836734693 -0.25905918367346925 0.0
0.7157606679035249 -0.21796066790352486 0.0
0.6738309461966603 -0.1760309461966605 0.0
0.6310700185528755 -0.13327001855287568 0.0
0.5874778849721707 -0.08967788497217066 0.0
0.5430545454545455 -0.045254545454545436 0.0
0.4978 0.0 0.0
0.5430545454545455 0.04525454545454546 0.0
0.5874778849721707 0.08967788497217068 0.0
0.6310700185528757 0.1332700185528757 0.0
0.6738309461966605 0.1760309461966605 0.0
0.715760667903525 0.21796066790352508 0.0
0.7568591836734693 0.25905918367346936 0.0
0.7971264935064934 0.2993264935064935 0.0
0.8365625974025973 0.33876259740259734 0.0
0.875167495361781 0.377367495361781 0.0
0.9129411873840445 0.4151411873840445 0.0
0.9498836734693876 0.4520836734693878 0.0
0.9859949536178105 0.4881949536178107 0.0
1.0212750278293132 0.5234750278293134 0.0
1.055723896103896 0.557923896103896 0.0
1.0893415584415582 0.5915415584415583 0.0
1.1221280148423003 0.6243280148423004 0.0
1.1540832653061224 0.6562832653061225 0.0
1.185207309833024 0.6874073098330241 0.0
1.2155001484230055 0.7177001484230056 0.0
1.2449617810760667 0.7471617810760669 0.0
1.2735922077922077 0.7757922077922077 0.0
1.3013914285714283 0.8035914285714285 0.0
1.3283594434137287 0.830559443413729 0.0
1.3544962523191093 0.8566962523191094 0.0
1.3798018552875693 0.8820018552875695 0.0
1.4042762523191092 0.9064762523191093 0.0
1.427919443413729 0.9301194434137292 0.0
1.4507314285714283 0.9529314285714284 0.0
1.4727122077922075 0.9749122077922077 0.0
1.4938617810760666 0.9960617810760668 0.0
1.5141801484230053 1.0163801484230055 0.0
1.5336673098330238 1.035867309833024 0.0
1.552323265306122 1.0545232653061223 0.0
1.5701480148423002 1.0723480148423004 0.0
1.5871415584415582 1.0893415584415584 0.0
1.603303896103896 1.105503896103896 0.0
1.6186350278293131 1.1208350278293133 0.0
1.6331349536178106 1.1353349536178106 0.0
1.6468036734693874 1.1490036734693876 0.0
1.6596411873840444 1.1618411873840446 0.0
1.6716474953617806 1.173847495361781 0.0
1.6828225974025972 1.1850225974025972 0.0
1.6931664935064934 1.1953664935064934 0.0
1.7026791836734692 1.2048791836734694 0.0
1.7113606679035245 1.2135606679035247 0.0
1.71921094619666 1.2214109461966602 0.0
1.7262300185528754 1.2284300185528756 0.0
1.7324178849721703 1.2346178849721705 0.0
1.7377745454545452 1.2399745454545454 0.0
1.7422999999999997 1.2445 0.0
1.6155872727272724 -1.2422372727272726 0.0
1.6106462152133578 -1.237296215213358 0.0
1.604873951762523 -1.2315239517625232 0.0
1.598270482374768 -1.224920482374768 0.0
1.5908358070500925 -1.2174858070500927 0.0
1.582569925788497 -1.2092199257884972 0.0
1.5734728385899812 -1.2001228385899814 0.0
1.5635445454545454 -1.1901945454545453 0.0
1.552785046382189 -1.1794350463821892 0.0
1.5411943413729126 -1.1678443413729127 0.0
1.5287724304267158 -1.155422430426716 0.0
1.5155193135435991 -1.142169313543599 0.0
1.501434990723562 -1.1280849907235622 0.0
1.4865194619666047 -1.1131694619666048 0.0
1.4707727272727271 -1.0974227272727273 0.0
1.4541947866419294 -1.0808447866419293 0.0
1.4367856400742112 -1.0634356400742113 0.0
1.418545287569573 -1.0451952875695731 0.0
1.3994737291280146 -1.0261237291280147 0.0
1.379570964749536 -1.0062209647495362 0.0
1.358836994434137 -0.9854869944341371 0.0
1.337271818181818 -0.9639218181818181 0.0
1.3148754359925787 -0.9415254359925787 0.0
1.291647847866419 -0.9182978478664192 0.0
1.2675890538033394 -0.8942390538033393 0.0
1.2426990538033393 -0.8693490538033395 0.0
1.2169778478664193 -0.8436278478664192 0.0
1.1904254359925788 -0.8170754359925788 0.0
1.163041818181818 -0.7896918181818181 0.0
1.1348269944341371 -0.7614769944341371 0.0
1.105780964749536 -0.7324309647495362 0.0
1.0759037291280147 -0.7025537291280148 0.0
1.0451952875695731 -0.6718452875695733 0.0
1.0136556400742114 -0.6403056400742114 0.0
0.9812847866419293 -0.6079347866419293 0.0
0.9480827272727271 -0.5747327272727272 0.0
0.9140494619666047 -0.5406994619666048 0.0
0.8791849907235622 -0.5058349907235622 0.0
0.8434893135435992 -0.47013931354359917 0.0
0.8069624304267162 -0.43361243042671627 0.0
0.7696043413729128 -0.3962543413729128 0.0
0.7314150463821893 -0.3580650463821894 0.0
0.6923945454545455 -0.3190445454545454 0.0
0.6525428385899814 -0.27919283858998134 0.0
0.6118599257884971 -0.23850992578849706 0.0
0.5703458070500929 -0.19699580705009279 0.0
0.5280004823747682 -0.15465048237476808 0.0
0.4848239517625232 -0.11147395176252317 0.0
0.4408162152133581 -0.06746621521335805 0.0
0.39597727272727273 -0.022627272727272718 0.0
0.39597727272727273 0.02262727272727273 0.0
0.4408162152133581 0.06746621521335806 0.0
0.4848239517625232 0.11147395176252319 0.0
0.528000482374768 0.15465048237476808 0.0
0.5703458070500929 0.19699580705009276 0.0
0.6118599257884971 0.23850992578849717 0.0
0.6525428385899814 0.2791928385899814 0.0
0.6923945454545455 0.3190445454545454 0.0
0.7314150463821891 0.3580650463821891 0.0
0.7696043413729128 0.39625434137291277 0.0
0.8069624304267162 0.43361243042671616 0.0
0.8434893135435992 0.4701393135435992 0.0
0.8791849907235619 0.5058349907235621 0.0
0.9140494619666046 0.5406994619666047 0.0
0.9480827272727271 0.5747327272727272 0.0
0.9812847866419294 0.6079347866419295 0.0
1.0136556400742114 0.6403056400742114 0.0
1.0451952875695731 0.6718452875695732 0.0
1.0759037291280147 0.7025537291280147 0.0
1.105780964749536 0.7324309647495362 0.0
1.1348269944341371 0.7614769944341373 0.0
1.163041818181818 0.789691818181818 0.0
1.1904254359925786 0.8170754359925786 0.0
1.216977847866419 0.843627847866419 0.0
1.2426990538033393 0.8693490538033394 0.0
1.2675890538033392 0.8942390538033393 0.0
1.291647847866419 0.9182978478664192 0.0
1.3148754359925787 0.9415254359925787 0.0
1.3372718181818182 0.9639218181818181 0.0
1.3588369944341372 0.9854869944341373 0.0
1.379570964749536 1.0062209647495362 0.0
1.3994737291280148 1.0261237291280147 0.0
1.418545287569573 1.0451952875695731 0.0
1.4367856400742112 1.0634356400742113 0.0
1.4541947866419291 1.0808447866419293 0.0
1.470772727272727 1.097422727272727 0.0
1.4865194619666047 1.1131694619666048 0.0
1.501434990723562 1.128084990723562 0.0
1.5155193135435991 1.1421693135435993 0.0
1.528772430426716 1.1554224304267162 0.0
1.5411943413729128 1.1678443413729127 0.0
1.5527850463821888 1.179435046382189 0.0
1.5635445454545451 1.1901945454545453 0.0
1.573472838589981 1.2001228385899811 0.0
1.5825699257884969 1.209219925788497 0.0
1.5908358070500925 1.2174858070500927 0.0
1.5982704823747678 1.224920482374768 0.0
1.604873951762523 1.2315239517625232 0.0
1.6106462152133578 1.237296215213358 0.0
1.6155872727272724 1.2422372727272726 0.0

CELLS 200 700
4 0 101 102 1
4 1 102 103 2
4 2 103 104 3
4 3 104 105 4
4 4 105 106 5
4 5 106 107 6
4 6 107 108 7
4 7 108 109 8
4 8 109 110 9
4 9 110 111 10
4 10 111 112 11
4 11 112 113 12
4 12 113 114 13
4 13 114 115 14
4 14 115 116 15
4 15 116 117 16
4 16 117 118 17
4 17 118 119 18
4 18 119 120 19
4 19 120 121 20
4 20 121 122 21
4 21 122 123 22
4 22 123 124 23
4 23 124 125 24
4 24 125 126 25
4 25 126 127 26
4 26 127 128 27
4 27 128 129 28
4 28 129 130 29
4 29 130 131 30
4 30 131 132 31
4 31 132 133 32
4 32 133 134 33
4 33 134 135 34
4 34 135 136 35
4 35 136 137 36
4 36 137 138 37
4 37 138 139 38
4 38 139 140 39
4 39 140 141 40
4 40 141 142 41
4 41 142 143 42
4 42 143 144 43
4 43 144 145 44
4 44 145 146 45
4 45 146 147 46
4 46 147 148 47
4 47 148 149 48
4 48 149 150 49
4 49 150 151 50
4 50 151 152 51
4 51 152 153 52
4 52 153 154 53
4 53 154 155 54
4 54 155 156 55
4 55 156 157 56
4 56 157 158 57
4 57 158 159 58
4 58 159 160 59
4 59 160 161 60
4 60 161 162 61
4 61 162 163 62
4 62 163 164 63
4 63 164 165 64
4 64 165 166 65
4 65 166 167 66
4 66 167 168 67
4 67 168 169 68
4 68 169 170 69
4 69 170 171 70
4 70 171 172 71
4 71 172 173 72
4 72 173 174 73
4 73 174 175 74
4 74 175 176 75
4 75 176 177 76
4 76 177 178 77
4 77 178 179 78
4 78 179 180 79
4 79 180 181 80
4 80 181 182 81
4 81 182 183 82
4 82 183 184 83
4 83 184 185 84
4 84 185 186 85
4 85 186 187 86
4 86 187 188 87
4 87 188 189 88
4 88 189 190 89
4 89 190 191 90
4 90 191 192 91
4 91 192 193 92
4 92 193 194 93
4 93 194 195 94
4 94 195 196 95
4 95 196 197 96
4 96 197 198 97
4 97 198 199 98
4 98 199 200 99
4 99 200 201 100
1 202
1 203
1 204
1 205
1 206
1 207
1 208
1 209
1 210
1 211
1 212
1 213
1 214
1 215
1 216
1 217
1 218
1 219
1 220
1 221
1 222
1 223
1 224
1 225
1 226
1 227
1 228
1 229
1 230
1 231
1 232
1 233
1 234
1 235
1 236
1 237
1 238
1 239
1 240
1 241
1 242
1 243
1 244
1 245
1 246
1 247
1 248
1 249
1 250
1 251
1 252
1 253
1 254
1 255
1 256
1 257
1 258
1 259
1 260
1 261
1 262
1 263
1 264
1 265
1 266
1 267
1 268
1 269
1 270
1 271
1 272
1 273
1 274
1 275
1 276
1 277
1 278
1 279
1 280
1 281
1 282
1 283
1 284
1 285
1 286
1 287
1 288
1 289
1 290
1 291
1 292
1 293
1 294
1 295
1 296
1 297
1 298
1 299
1 300
1 301

CELL_TYPES 200
9
9
9
9
9
9
9
9
9
9
9
9
9
9
9
9
9
9
9
9
9
9
9
9
9
9
9
9
9
9
9
9
9
9
9
9
9
9
9
9
9
9
9
9
9
9
9
9
9
9
9
9
9
9
9
9
9
9
9
9
9
9
9
9
9
9
9
9
9
9
9
9
9
9
9
9
9
9
9
9
9
9
9
9
9
9
9
9
9
9
9
9
9
9
9
9
9
9
9
9
1
1
1
1
1
1
1
1
1
1
1
1
1
1
1
1
1
1
1
1
1
1
1
1
1
1
1
1
1
1
1
1
1
1
1
1
1
1
1
1
1
1
1
1
1
1
1
1
1
1
1
1
1
1
1
1
1
1
1
1
1
1
1
1
1
1
1
1
1
1
1
1
1
1
1
1
1
1
1
1
1
1
1
1
1
1
1
1
1
1
1
1
1
1
1
1
1
1
1
1

CELL_DATA 200

VECTORS Vinf float
49.53758101698642 0.030487388081911117 4.242420299061823
49.53996291780276 0.031711268111519274 4.207964023663585
49.5426252477261 0.033006023435846306 4.169137823889851
49.54550796202675 0.03432506304231688 4.126676189460325
49.54854406925947 0.03562792250117699 4.081409380295149
49.55053447618772 0.031870777029320244 4.034364556080093
49.55364251286736 0.03226955340247764 3.98594107553992
49.55670808700941 0.032458239928071814 3.9371638826697644
49.559679669417896 0.03243434137856256 3.8887356071784422
49.562516800464635 0.03220700798443156 3.8412455281973985
49.56519024369402 0.03179323374223223 3.795168974074141
49.568224761860115 0.03346670205403478 3.751291244789453
49.57044702365147 0.03192649195130231 3.7102908227866513
49.57252567146144 0.03064417789045386 3.6710497328238882
49.57445574030472 0.02970298257604697 3.6338367731133543
49.57623390027165 0.02918778741148343 3.598898427813494
49.577194231356664 0.02655724614873563 3.564342028389483
49.57852649441814 0.025401166025947525 3.5348745661027303
49.57968543152951 0.024208909905449594 3.5080873774462193
49.58098722486549 0.024318790946442678 3.484485419809577
49.58173609221212 0.02268246734096804 3.4641357387957417
49.58244527498589 0.021435893602076733 3.4452455049949173
49.58312849102582 0.020657922302419834 3.427841506425221
49.58331291945216 0.01823697856902602 3.4112343611005906
49.58371468912403 0.01711795454837586 3.3983407528182914
49.58404426217253 0.01603106506971222 3.3872695840612788
49.58396243856532 0.016792659994627573 3.3756960200764086
49.584191062280745 0.015478989439125927 3.369682406349262
49.58436313409755 0.01410920335121518 3.3646494645929375
49.584476329464565 0.012691948288856773 3.360648622401904
49.5845309786411 0.011234613083666255 3.3577331900367895
49.584528502382156 0.00974114962309946 3.355959509412456
49.58446887635304 0.00821168389838004 3.355379572962912
49.584347960845754 0.00664394307694504 3.3560316021672794
49.58448324504006 0.007209173779342068 3.356762692454407
49.58335374564867 0.006630074615981224 3.358287805177469
49.583036274774926 0.00557798021691283 3.3642557892693303
49.58268452897662 0.0044912297187625055 3.371099831441343
49.58228547334817 0.0033719216636278228 3.3790963977643687
49.581820036875364 0.0022200454256600375 3.3886180492060785
49.581259080995295 0.0010370826741517803 3.400134230199305
49.58056058993589 -0.00016805180204849325 3.414215250153629
49.580787190758336 -0.0007182373921914611 3.4290374050707126
49.579371178747074 -0.0010760063425851636 3.451280492826067
49.57780911371804 -0.0022773478154045727 3.4767580534687013
49.57587748970251 -0.0030573853446797927 3.505919731727246
49.57384961771877 -0.0031403219737020163 3.5344679457437302
49.572309792803466 -0.0023737933579765775 3.554441405297415
49.57175913460273 -0.0010702407557884126 3.5597117997187313
49.5721573926819 -0.00026183332013044255 3.553671199966726
49.57215581284821 0.0002641764308236594 3.5536542562889477
49.571742183023495 0.0010598425778866425 3.5596557675303235
49.57228727516282 0.002352512074303999 3.5543239675654714
49.57381657866603 0.0031102285432961043 3.5342786824023142
49.57582879649909 0.0030255245131038952 3.505659392218402
49.57774356789423 0.0022573385057207277 3.476435404103618
49.57929754059175 0.0010828846008194713 3.4509061975808217
49.58071325825869 0.0007558394472141573 3.4286352746241424
49.580514790215815 0.0002615947713045264 3.4139266108369504
49.58125705232726 -0.0009526404977651865 3.399731998655633
49.581850030009115 -0.002135437352783397 3.388163549344617
49.582336862195326 -0.0032760796104257107 3.3786225040728275
49.58274960298562 -0.004372961855711208 3.3706249873194087
49.58310956383876 -0.005427290842507833 3.3637927872337086
49.583430897138435 -0.006438598986448935 3.357847921539105
49.58452765618025 -0.007119703060792341 3.3563819981765994
49.58445876161172 -0.006195382955835965 3.35537647166203
49.584533046779086 -0.0079507018116039 3.354932869333668
49.58457430520866 -0.009601063224083231 3.35554050150155
49.584578557699814 -0.011153727024333189 3.357256522845061
49.584539864465256 -0.012612973376008148 3.3600979535783484
49.584452424616906 -0.013978985588337108 3.364056837922235
49.58431273124064 -0.015248412852036628 3.369112078430198
49.58412083194283 -0.016416648540551415 3.37523214135946
49.58413331343683 -0.015959434287104536 3.386746061662997
49.58380733518066 -0.017047657593303383 3.3977861252477752
49.58340921791839 -0.018167855548175436 3.4106475731511257
49.583159071650115 -0.020573300248338703 3.427082699408843
49.58248890803539 -0.021352897254998664 3.4444493144900155
49.58179223202762 -0.02260098843381908 3.463302238348686
49.58105534994819 -0.02423874535300407 3.483614419132727
49.5798009535699 -0.024144190747805015 3.5073327049997767
49.57864607348962 -0.025337222833884652 3.534084235066275
49.57731792350168 -0.02649409476764166 3.5635153548356318
49.57626345932507 -0.02909267981560503 3.5978563292959582
49.57449707441345 -0.029609720480055203 3.632754548421596
49.57257835897994 -0.03055261099900697 3.669927354745085
49.570510633613694 -0.03183648891628848 3.709128360893419
49.568298854643 -0.033378152123818554 3.7500888619056005
49.565339091944885 -0.031735479641343704 3.794117722135346
49.56266982950387 -0.03215032160387084 3.840156592794684
49.559836832325715 -0.03237878337448339 3.8876093471921256
49.55686930868996 -0.03240386767409129 3.9360009520129027
49.55380768525395 -0.032216415823082434 3.984742464363138
49.55070345434162 -0.03181890915875394 4.033131617298109
49.54859580534095 -0.035584083563936296 4.0799547379178165
49.54556605049858 -0.03428317700632628 4.125194241698295
49.54268911159424 -0.03296596150291753 4.167630428853967
49.54003193333931 -0.03167287579935372 4.2064334699382515
49.537654518597634 -0.030450484445888847 4.240869254207156
49.53758101698642 0.030487388081911117 4.242420299061823
49.53996291780276 0.031711268111519274 4.207964023663585
49.5426252477261 0.033006023435846306 4.169137823889851
49.54550796202675 0.03432506304231688 4.126676189460325
49.54854406925947 0.03562792250117699 4.081409380295149
49.55053447618772 0.031870777029320244 4.034364556080093
49.55364251286736 0.03226955340247764 3.98594107553992
49.55670808700941 0.032458239928071814 3.9371638826697644
49.559679669417896 0.03243434137856256 3.8887356071784422
49.562516800464635 0.03220700798443156 3.8412455281973985
49.56519024369402 0.03179323374223223 3.795168974074141
49.568224761860115 0.03346670205403478 3.751291244789453
49.57044702365147 0.03192649195130231 3.7102908227866513
49.57252567146144 0.03064417789045386 3.6710497328238882
49.57445574030472 0.02970298257604697 3.6338367731133543
49.57623390027165 0.02918778741148343 3.598898427813494
49.577194231356664 0.02655724614873563 3.564342028389483
49.57852649441814 0.025401166025947525 3.5348745661027303
49.57968543152951 0.024208909905449594 3.5080873774462193
49.58098722486549 0.024318790946442678 3.484485419809577
49.58173609221212 0.02268246734096804 3.4641357387957417
49.58244527498589 0.021435893602076733 3.4452455049949173
49.58312849102582 0.020657922302419834 3.427841506425221
49.58331291945216 0.01823697856902602 3.4112343611005906
49.58371468912403 0.01711795454837586 3.3983407528182914
49.58404426217253 0.01603106506971222 3.3872695840612788
49.58396243856532 0.016792659994627573 3.3756960200764086
49.584191062280745 0.015478989439125927 3.369682406349262
49.58436313409755 0.01410920335121518 3.3646494645929375
49.584476329464565 0.012691948288856773 3.360648622401904
49.5845309786411 0.011234613083666255 3.3577331900367895
49.584528502382156 0.00974114962309946 3.355959509412456
49.58446887635304 0.00821168389838004 3.355379572962912
49.584347960845754 0.00664394307694504 3.3560316021672794
49.58448324504006 0.007209173779342068 3.356762692454407
49.58335374564867 0.006630074615981224 3.358287805177469
49.583036274774926 0.00557798021691283 3.3642557892693303
49.58268452897662 0.0044912297187625055 3.371099831441343
49.58228547334817 0.0033719216636278228 3.3790963977643687
49.581820036875364 0.0022200454256600375 3.3886180492060785
49.581259080995295 0.0010370826741517803 3.400134230199305
49.58056058993589 -0.00016805180204849325 3.414215250153629
49.580787190758336 -0.0007182373921914611 3.4290374050707126
49.579371178747074 -0.0010760063425851636 3.451280492826067
49.57780911371804 -0.0022773478154045727 3.4767580534687013
49.57587748970251 -0.0030573853446797927 3.505919731727246
49.57384961771877 -0.0031403219737020163 3.5344679457437302
49.572309792803466 -0.0023737933579765775 3.554441405297415
49.57175913460273 -0.0010702407557884126 3.5597117997187313
49.5721573926819 -0.00026183332013044255 3.553671199966726
49.57215581284821 0.0002641764308236594 3.5536542562889477
49.571742183023495 0.0010598425778866425 3.5596557675303235
49.57228727516282 0.002352512074303999 3.5543239675654714
49.57381657866603 0.0031102285432961043 3.5342786824023142
49.57582879649909 0.0030255245131038952 3.505659392218402
49.57774356789423 0.0022573385057207277 3.476435404103618
49.57929754059175 0.0010828846008194713 3.4509061975808217
49.58071325825869 0.0007558394472141573 3.4286352746241424
49.580514790215815 0.0002615947713045264 3.4139266108369504
49.58125705232726 -0.0009526404977651865 3.399731998655633
49.581850030009115 -0.002135437352783397 3.388163549344617
49.582336862195326 -0.0032760796104257107 3.3786225040728275
49.58274960298562 -0.004372961855711208 3.3706249873194087
49.58310956383876 -0.005427290842507833 3.3637927872337086
49.583430897138435 -0.006438598986448935 3.357847921539105
49.58452765618025 -0.007119703060792341 3.3563819981765994
49.58445876161172 -0.006195382955835965 3.35537647166203
49.584533046779086 -0.0079507018116039 3.354932869333668
49.58457430520866 -0.009601063224083231 3.35554050150155
49.584578557699814 -0.011153727024333189 3.357256522845061
49.584539864465256 -0.012612973376008148 3.3600979535783484
49.584452424616906 -0.013978985588337108 3.364056837922235
49.58431273124064 -0.015248412852036628 3.369112078430198
49.58412083194283 -0.016416648540551415 3.37523214135946
49.58413331343683 -0.015959434287104536 3.386746061662997
49.58380733518066 -0.017047657593303383 3.3977861252477752
49.58340921791839 -0.018167855548175436 3.4106475731511257
49.583159071650115 -0.020573300248338703 3.427082699408843
49.58248890803539 -0.021352897254998664 3.4444493144900155
49.58179223202762 -0.02260098843381908 3.463302238348686
49.58105534994819 -0.02423874535300407 3.483614419132727
49.5798009535699 -0.024144190747805015 3.5073327049997767
49.57864607348962 -0.025337222833884652 3.534084235066275
49.57731792350168 -0.02649409476764166 3.5635153548356318
49.57626345932507 -0.02909267981560503 3.5978563292959582
49.57449707441345 -0.029609720480055203 3.632754548421596
49.57257835897994 -0.03055261099900697 3.669927354745085
49.570510633613694 -0.03183648891628848 3.709128360893419
49.568298854643 -0.033378152123818554 3.7500888619056005
49.565339091944885 -0.031735479641343704 3.794117722135346
49.56266982950387 -0.03215032160387084 3.840156592794684
49.559836832325715 -0.03237878337448339 3.8876093471921256
49.55686930868996 -0.03240386767409129 3.9360009520129027
49.55380768525395 -0.032216415823082434 3.984742464363138
49.55070345434162 -0.03181890915875394 4.033131617298109
49.54859580534095 -0.035584083563936296 4.0799547379178165
49.54556605049858 -0.03428317700632628 4.125194241698295
49.54268911159424 -0.03296596150291753 4.167630428853967
49.54003193333931 -0.03167287579935372 4.2064334699382515
49.537654518597634 -0.030450484445888847 4.240869254207156

VECTORS L float
-0.00655776582796151 0.0 0.08929977873535536
-0.01183326914501825 0.0 0.16113846454540398
-0.01748646725368015 0.0 0.23812037477130846
-0.02370732672560989 0.0 0.32283236189631226
-0.030537578984748057 0.0 0.41584269978410177
-0.03797911884175701 0.0 0.51717719084625
-0.04601731250520793 0.0 0.626636560761146
-0.0546285894355844 0.0 0.7438998398542528
-0.06378305545930495 0.0 0.8685599469402497
-0.07344573474624967 0.0 1.0001406018388543
-0.08357728588364302 0.0 1.1381060764456847
-0.09413467369727556 0.0 1.2818703431965432
-0.1050716118177275 0.0 1.430803101672646
-0.11633733615595308 0.0 1.584213076516133
-0.12788013000097614 0.0 1.7413960201267922
-0.1396479933217076 0.0 1.901643826818585
-0.15158903821995273 0.0 2.064249917864948
-0.1636580780408987 0.0 2.2285989681105693
-0.17580950595351513 0.0 2.394069930688777
-0.1880004063462142 0.0 2.5600784061684805
-0.2001913622400295 0.0 2.7260876374295777
-0.21234214885384803 0.0 2.8915498671798288
-0.22441923314382092 0.0 3.0560084622495554
-0.23639375848386124 0.0 3.219070470161922
-0.24824581496267506 0.0 3.3804647695137198
-0.25995230713217965 0.0 3.539876860144728
-0.27148977162428356 0.0 3.6969872317775265
-0.28285626179243606 0.0 3.8517693761300547
-0.29402507113522935 0.0 4.0038596198524115
-0.3049782951327607 0.0 4.153014149775964
-0.3157004007522785 0.0 4.2990214462423095
-0.3261766762975256 0.0 4.441681174067936
-0.3363921511942986 0.0 4.580789472822479
-0.3463303362440922 0.0 4.716121802347496
-0.35596981401146305 0.0 4.847386512667013
-0.36529885264640255 0.0 4.974423846382335
-0.37430375880335487 0.0 5.097047335607849
-0.3829463352214331 0.0 5.214736832623283
-0.3911872675866667 0.0 5.326956978339762
-0.3989845855217093 0.0 5.433136244967367
-0.4062897399081347 0.0 5.5326135193088595
-0.4130442682921945 0.0 5.624592694226381
-0.41916948519724173 0.0 5.708002277410111
-0.42462135684075064 0.0 5.78224264283808
-0.4292733068099343 0.0 5.84559014774055
-0.4330057388598092 0.0 5.896416201146941
-0.4356818060653898 0.0 5.932857302523319
-0.43720528564809724 0.0 5.953603146948491
-0.43760143364928916 0.0 5.958997656264767
-0.4358462151585217 0.0 5.93509612837101
-0.4358432059723736 0.0 5.935055151052783
-0.43759263667035264 0.0 5.9588778642055225
-0.4371903143205376 0.0 5.953399276259369
-0.43566072835926833 0.0 5.9325702787804335
-0.43297900864130817 0.0 5.896052204831685
-0.42924163649230196 0.0 5.845158880075427
-0.4245855551169307 0.0 5.781755116125577
-0.4191302083932336 0.0 5.707467429109735
-0.4130028579714718 0.0 5.624028792956512
-0.40624540795938674 0.0 5.532009833035524
-0.3989379195715446 0.0 5.43250077564237
-0.3911389614873689 0.0 5.326299174433365
-0.38289702475704795 0.0 5.21406535186681
-0.3742539589326907 0.0 5.096369190405958
-0.3652487736618478 0.0 4.973741900372467
-0.3559194577594608 0.0 4.846700790992939
-0.3462787104152197 0.0 4.715418792326052