# vtk DataFile Version 4.0
[MyVLM domain - lattices] 
ASCII
DATASET UNSTRUCTURED_GRID
POINTS 302 float
1.2444999999999997 -1.2445 0.0
1.2399745454545452 -1.2399745454545454 0.0
1.2346178849721705 -1.2346178849721707 0.0
1.2284300185528754 -1.2284300185528756 0.0
1.2214109461966602 -1.2214109461966605 0.0
1.2135606679035247 -1.213560667903525 0.0
1.2048791836734691 -1.2048791836734694 0.0
1.1953664935064932 -1.1953664935064934 0.0
1.1850225974025972 -1.1850225974025974 0.0
1.1738474953617808 -1.173847495361781 0.0
1.1618411873840442 -1.1618411873840444 0.0
1.1490036734693874 -1.1490036734693876 0.0
1.1353349536178106 -1.1353349536178108 0.0
1.1208350278293133 -1.1208350278293135 0.0
1.1055038961038959 -1.105503896103896 0.0
1.0893415584415582 -1.0893415584415584 0.0
1.0723480148423004 -1.0723480148423006 0.0
1.054523265306122 -1.0545232653061223 0.0
1.0358673098330238 -1.035867309833024 0.0
1.0163801484230053 -1.0163801484230055 0.0
0.9960617810760664 -0.9960617810760668 0.0
0.9749122077922076 -0.9749122077922077 0.0
0.9529314285714284 -0.9529314285714284 0.0
0.9301194434137288 -0.930119443413729 0.0
0.9064762523191091 -0.9064762523191096 0.0
0.8820018552875695 -0.8820018552875695 0.0
0.8566962523191093 -0.8566962523191094 0.0
0.8305594434137288 -0.8305594434137291 0.0
0.8035914285714284 -0.8035914285714285 0.0
0.7757922077922076 -0.7757922077922077 0.0
0.7471617810760666 -0.7471617810760667 0.0
0.7177001484230053 -0.7177001484230054 0.0
0.6874073098330239 -0.687407309833024 0.0
0.6562832653061222 -0.6562832653061225 0.0
0.6243280148423004 -0.6243280148423005 0.0
0.5915415584415582 -0.5915415584415583 0.0
0.5579238961038958 -0.5579238961038959 0.0
0.5234750278293133 -0.5234750278293134 0.0
0.48819495361781057 -0.48819495361781057 0.0
0.4520836734693877 -0.4520836734693877 0.0
0.4151411873840445 -0.4151411873840446 0.0
0.37736749536178105 -0.37736749536178116 0.0
0.3387625974025974 -0.3387625974025974 0.0
0.2993264935064933 -0.29932649350649343 0.0
0.25905918367346925 -0.25905918367346925 0.0
0.21796066790352486 -0.21796066790352486 0.0
0.17603094619666027 -0.1760309461966605 0.0
0.13327001855287546 -0.13327001855287568 0.0
0.08967788497217066 -0.08967788497217066 0.0
0.045254545454545436 -0.045254545454545436 0.0
0.0 0.0 0.0
0.04525454545454545 0.04525454545454546 0.0
0.08967788497217066 0.08967788497217068 0.0
0.13327001855287568 0.1332700185528757 0.0
0.17603094619666046 0.1760309461966605 0.0
0.21796066790352497 0.21796066790352508 0.0
0.2590591836734693 0.25905918367346936 0.0
0.29932649350649343 0.2993264935064935 0.0
0.3387625974025973 0.33876259740259734 0.0
0.37736749536178094 0.377367495361781 0.0
0.41514118738404443 0.4151411873840445 0.0
0.45208367346938766 0.4520836734693878 0.0
0.48819495361781057 0.4881949536178107 0.0
0.5234750278293133 0.5234750278293134 0.0
0.5579238961038959 0.557923896103896 0.0
0.5915415584415582 0.5915415584415583 0.0
0.6243280148423003 0.6243280148423004 0.0
0.6562832653061222 0.6562832653061225 0.0
0.687407309833024 0.6874073098330241 0.0
0.7177001484230054 0.7177001484230056 0.0
0.7471617810760667 0.7471617810760669 0.0
0.7757922077922076 0.7757922077922077 0.0
0.8035914285714284 0.8035914285714285 0.0
0.8305594434137288 0.830559443413729 0.0
0.8566962523191093 0.8566962523191094 0.0
0.8820018552875692 0.8820018552875695 0.0
0.9064762523191091 0.9064762523191093 0.0
0.9301194434137288 0.9301194434137292 0.0
0.9529314285714284 0.9529314285714284 0.0
0.9749122077922076 0.9749122077922077 0.0
0.9960617810760666 0.9960617810760668 0.0
1.0163801484230053 1.0163801484230055 0.0
1.0358673098330238 1.035867309833024 0.0
1.054523265306122 1.0545232653061223 0.0
1.0723480148423001 1.0723480148423004 0.0
1.0893415584415582 1.0893415584415584 0.0
1.1055038961038959 1.105503896103896 0.0
1.120835027829313 1.1208350278293133 0.0
1.1353349536178106 1.1353349536178106 0.0
1.1490036734693874 1.1490036734693876 0.0
1.1618411873840444 1.1618411873840446 0.0
1.1738474953617808 1.173847495361781 0.0
1.1850225974025972 1.1850225974025972 0.0
1.1953664935064932 1.1953664935064934 0.0
1.2048791836734691 1.2048791836734694 0.0
1.2135606679035245 1.2135606679035247 0.0
1.22141094619666 1.2214109461966602 0.0
1.2284300185528754 1.2284300185528756 0.0
1.2346178849721703 1.2346178849721705 0.0
1.2399745454545452 1.2399745454545454 0.0
1.2444999999999997 1.2445 0.0
1.7422999999999997 -1.2445 0.0
1.7377745454545452 -1.2399745454545454 0.0
1.7324178849721703 -1.2346178849721707 0.0
1.7262300185528754 -1.2284300185528756 0.0
1.7192109461966603 -1.2214109461966605 0.0
1.7113606679035245 -1.213560667903525 0.0
1.7026791836734692 -1.2048791836734694 0.0
1.6931664935064934 -1.1953664935064934 0.0
1.6828225974025972 -1.1850225974025974 0.0
1.6716474953617806 -1.173847495361781 0.0
1.6596411873840444 -1.1618411873840444 0.0
1.6468036734693878 -1.1490036734693876 0.0
1.6331349536178106 -1.1353349536178108 0.0
1.6186350278293133 -1.1208350278293135 0.0
1.603303896103896 -1.105503896103896 0.0
1.5871415584415582 -1.0893415584415584 0.0
1.5701480148423004 -1.0723480148423006 0.0
1.552323265306122 -1.0545232653061223 0.0
1.5336673098330238 -1.035867309833024 0.0
1.5141801484230053 -1.0163801484230055 0.0
1.4938617810760666 -0.9960617810760668 0.0
1.4727122077922075 -0.9749122077922077 0.0
1.4507314285714283 -0.9529314285714284 0.0
1.4279194434137288 -0.930119443413729 0.0
1.4042762523191092 -0.9064762523191096 0.0
1.3798018552875693 -0.8820018552875695 0.0
1.3544962523191093 -0.8566962523191094 0.0
1.328359443413729 -0.8305594434137291 0.0
1.3013914285714283 -0.8035914285714285 0.0
1.2735922077922077 -0.7757922077922077 0.0
1.2449617810760665 -0.7471617810760667 0.0
1.2155001484230055 -0.7177001484230054 0.0
1.1852073098330238 -0.687407309833024 0.0
1.1540832653061224 -0.6562832653061225 0.0
1.1221280148423003 -0.6243280148423005 0.0
1.0893415584415582 -0.5915415584415583 0.0
1.055723896103896 -0.5579238961038959 0.0
1.0212750278293132 -0.5234750278293134 0.0
0.9859949536178108 -0.48819495361781057 0.0
0.9498836734693876 -0.4520836734693877 0.0
0.9129411873840445 -0.4151411873840446 0.0
0.875167495361781 -0.37736749536178116 0.0
0.8365625974025973 -0.3387625974025974 0.0
0.7971264935064933 -0.29932649350649343 0.0
0.7568591836734693 -0.25905918367346925 0.0
0.7157606679035249 -0.21796066790352486 0.0
0.6738309461966603 -0.1760309461966605 0.0
0.6310700185528755 -0.13327001855287568 0.0
0.5874778849721707 -0.08967788497217066 0.0
0.5430545454545455 -0.045254545454545436 0.0
0.4978 0.0 0.0
0.5430545454545455 0.04525454545454546 0.0
0.5874778849721707 0.08967788497217068 0.0
0.6310700185528757 0.1332700185528757 0.0
0.6738309461966605 0.1760309461966605 0.0
0.715760667903525 0.21796066790352508 0.0
0.7568591836734693 0.25905918367346936 0.0
0.7971264935064934 0.2993264935064935 0.0
0.8365625974025973 0.33876259740259734 0.0
0.875167495361781 0.377367495361781 0.0
0.9129411873840445 0.4151411873840445 0.0
0.9498836734693876 0.4520836734693878 0.0
0.9859949536178105 0.4881949536178107 0.0
1.0212750278293132 0.5234750278293134 0.0
1.055723896103896 0.557923896103896 0.0
1.0893415584415582 0.5915415584415583 0.0
1.1221280148423003 0.6243280148423004 0.0
1.1540832653061224 0.6562832653061225 0.0
1.185207309833024 0.6874073098330241 0.0
1.2155001484230055 0.7177001484230056 0.0
1.2449617810760667 0.7471617810760669 0.0
1.2735922077922077 0.7757922077922077 0.0
1.3013914285714283 0.8035914285714285 0.0
1.3283594434137287 0.830559443413729 0.0
1.3544962523191093 0.8566962523191094 0.0
1.3798018552875693 0.8820018552875695 0.0
1.4042762523191092 0.9064762523191093 0.0
1.427919443413729 0.9301194434137292 0.0
1.4507314285714283 0.9529314285714284 0.0
1.4727122077922075 0.9749122077922077 0.0
1.4938617810760666 0.9960617810760668 0.0
1.5141801484230053 1.0163801484230055 0.0
1.5336673098330238 1.035867309833024 0.0
1.552323265306122 1.0545232653061223 0.0
1.5701480148423002 1.0723480148423004 0.0
1.5871415584415582 1.0893415584415584 0.0
1.603303896103896 1.105503896103896 0.0
1.6186350278293131 1.1208350278293133 0.0
1.6331349536178106 1.1353349536178106 0.0
1.6468036734693874 1.1490036734693876 0.0
1.6596411873840444 1.1618411873840446 0.0
1.6716474953617806 1.173847495361781 0.0
1.6828225974025972 1.1850225974025972 0.0
1.6931664935064934 1.1953664935064934 0.0
1.7026791836734692 1.2048791836734694 0.0
1.7113606679035245 1.2135606679035247 0.0
1.71921094619666 1.2214109461966602 0.0
1.7262300185528754 1.2284300185528756 0.0
1.7324178849721703 1.2346178849721705 0.0
1.7377745454545452 1.2399745454545454 0.0
1.7422999999999997 1.2445 0.0
1.6155872727272724 -1.2422372727272726 0.0
1.6106462152133578 -1.237296215213358 0.0
1.604873951762523 -1.2315239517625232 0.0
1.598270482374768 -1.224920482374768 0.0
1.5908358070500925 -1.2174858070500927 0.0
1.582569925788497 -1.2092199257884972 0.0
1.5734728385899812 -1.2001228385899814 0.0
1.5635445454545454 -1.1901945454545453 0.0
1.552785046382189 -1.1794350463821892 0.0
1.5411943413729126 -1.1678443413729127 0.0
1.5287724304267158 -1.155422430426716 0.0
1.5155193135435991 -1.142169313543599 0.0
1.501434990723562 -1.1280849907235622 0.0
1.4865194619666047 -1.1131694619666048 0.0
1.4707727272727271 -1.0974227272727273 0.0
1.4541947866419294 -1.0808447866419293 0.0
1.4367856400742112 -1.0634356400742113 0.0
1.418545287569573 -1.0451952875695731 0.0
1.3994737291280146 -1.0261237291280147 0.0
1.379570964749536 -1.0062209647495362 0.0
1.358836994434137 -0.9854869944341371 0.0
1.337271818181818 -0.9639218181818181 0.0
1.3148754359925787 -0.9415254359925787 0.0
1.291647847866419 -0.9182978478664192 0.0
1.2675890538033394 -0.8942390538033393 0.0
1.2426990538033393 -0.8693490538033395 0.0
1.2169778478664193 -0.8436278478664192 0.0
1.1904254359925788 -0.8170754359925788 0.0
1.163041818181818 -0.7896918181818181 0.0
1.1348269944341371 -0.7614769944341371 0.0
1.105780964749536 -0.7324309647495362 0.0
1.0759037291280147 -0.7025537291280148 0.0
1.0451952875695731 -0.6718452875695733 0.0
1.0136556400742114 -0.6403056400742114 0.0
0.9812847866419293 -0.6079347866419293 0.0
0.9480827272727271 -0.5747327272727272 0.0
0.9140494619666047 -0.5406994619666048 0.0
0.8791849907235622 -0.5058349907235622 0.0
0.8434893135435992 -0.47013931354359917 0.0
0.8069624304267162 -0.43361243042671627 0.0
0.7696043413729128 -0.3962543413729128 0.0
0.7314150463821893 -0.3580650463821894 0.0
0.6923945454545455 -0.3190445454545454 0.0
0.6525428385899814 -0.27919283858998134 0.0
0.6118599257884971 -0.23850992578849706 0.0
0.5703458070500929 -0.19699580705009279 0.0
0.5280004823747682 -0.15465048237476808 0.0
0.4848239517625232 -0.11147395176252317 0.0
0.4408162152133581 -0.06746621521335805 0.0
0.39597727272727273 -0.022627272727272718 0.0
0.39597727272727273 0.02262727272727273 0.0
0.4408162152133581 0.06746621521335806 0.0
0.4848239517625232 0.11147395176252319 0.0
0.528000482374768 0.15465048237476808 0.0
0.5703458070500929 0.19699580705009276 0.0
0.6118599257884971 0.23850992578849717 0.0
0.6525428385899814 0.2791928385899814 0.0
0.6923945454545455 0.3190445454545454 0.0
0.7314150463821891 0.3580650463821891 0.0
0.7696043413729128 0.39625434137291277 0.0
0.8069624304267162 0.43361243042671616 0.0
0.8434893135435992 0.4701393135435992 0.0
0.8791849907235619 0.5058349907235621 0.0
0.9140494619666046 0.5406994619666047 0.0
0.9480827272727271 0.5747327272727272 0.0
0.9812847866419294 0.6079347866419295 0.0
1.0136556400742114 0.6403056400742114 0.0
1.0451952875695731 0.6718452875695732 0.0
1.0759037291280147 0.7025537291280147 0.0
1.105780964749536 0.7324309647495362 0.0
1.1348269944341371 0.7614769944341373 0.0
1.163041818181818 0.789691818181818 0.0
1.1904254359925786 0.8170754359925786 0.0
1.216977847866419 0.843627847866419 0.0
1.2426990538033393 0.8693490538033394 0.0
1.2675890538033392 0.8942390538033393 0.0
1.291647847866419 0.9182978478664192 0.0
1.3148754359925787 0.9415254359925787 0.0
1.3372718181818182 0.9639218181818181 0.0
1.3588369944341372 0.9854869944341373 0.0
1.379570964749536 1.0062209647495362 0.0
1.3994737291280148 1.0261237291280147 0.0
1.418545287569573 1.0451952875695731 0.0
1.4367856400742112 1.0634356400742113 0.0
1.4541947866419291 1.0808447866419293 0.0
1.470772727272727 1.097422727272727 0.0
1.4865194619666047 1.1131694619666048 0.0
1.501434990723562 1.128084990723562 0.0
1.5155193135435991 1.1421693135435993 0.0
1.528772430426716 1.1554224304267162 0.0
1.5411943413729128 1.1678443413729127 0.0
1.5527850463821888 1.179435046382189 0.0
1.5635445454545451 1.1901945454545453 0.0
1.573472838589981 1.2001228385899811 0.0
1.5825699257884969 1.209219925788497 0.0
1.5908358070500925 1.2174858070500927 0.0
1.5982704823747678 1.224920482374768 0.0
1.604873951762523 1.2315239517625232 0.0
1.6106462152133578 1.237296215213358 0.0
1.6155872727272724 1.2422372727272726 0.0

CELLS 200 700
4 0 101 102 1
4 1 102 103 2
4 2 103 104 3
4 3 104 105 4
4 4 105 106 5
4 5 106 107 6
4 6 107 108 7
4 7 108 109 8
4 8 109 110 9
4 9 110 111 10
4 10 111 112 11
4 11 112 113 12
4 12 113 114 13
4 13 114 115 14
4 14 115 116 15
4 15 116 117 16
4 16 117 118 17
4 17 118 119 18
4 18 119 120 19
4 19 120 121 20
4 20 121 122 21
4 21 122 123 22
4 22 123 124 23
4 23 124 125 24
4 24 125 126 25
4 25 126 127 26
4 26 127 128 27
4 27 128 129 28
4 28 129 130 29
4 29 130 131 30
4 30 131 132 31
4 31 132 133 32
4 32 133 134 33
4 33 134 135 34
4 34 135 136 35
4 35 136 137 36
4 36 137 138 37
4 37 138 139 38
4 38 139 140 39
4 39 140 141 40
4 40 141 142 41
4 41 142 143 42
4 42 143 144 43
4 43 144 145 44
4 44 145 146 45
4 45 146 147 46
4 46 147 148 47
4 47 148 149 48
4 48 149 150 49
4 49 150 151 50
4 50 151 152 51
4 51 152 153 52
4 52 153 154 53
4 53 154 155 54
4 54 155 156 55
4 55 156 157 56
4 56 157 158 57
4 57 158 159 58
4 58 159 160 59
4 59 160 161 60
4 60 161 162 61
4 61 162 163 62
4 62 163 164 63
4 63 164 165 64
4 64 165 166 65
4 65 166 167 66
4 66 167 168 67
4 67 168 169 68
4 68 169 170 69
4 69 170 171 70
4 70 171 172 71
4 71 172 173 72
4 72 173 174 73
4 73 174 175 74
4 74 175 176 75
4 75 176 177 76
4 76 177 178 77
4 77 178 179 78
4 78 179 180 79
4 79 180 181 80
4 80 181 182 81
4 81 182 183 82
4 82 183 184 83
4 83 184 185 84
4 84 185 186 85
4 85 186 187 86
4 86 187 188 87
4 87 188 189 88
4 88 189 190 89
4 89 190 191 90
4 90 191 192 91
4 91 192 193 92
4 92 193 194 93
4 93 194 195 94
4 94 195 196 95
4 95 196 197 96
4 96 197 198 97
4 97 198 199 98
4 98 199 200 99
4 99 200 201 100
1 202
1 203
1 204
1 205
1 206
1 207
1 208
1 209
1 210
1 211
1 212
1 213
1 214
1 215
1 216
1 217
1 218
1 219
1 220
1 221
1 222
1 223
1 224
1 225
1 226
1 227
1 228
1 229
1 230
1 231
1 232
1 233
1 234
1 235
1 236
1 237
1 238
1 239
1 240
1 241
1 242
1 243
1 244
1 245
1 246
1 247
1 248
1 249
1 250
1 251
1 252
1 253
1 254
1 255
1 256
1 257
1 258
1 259
1 260
1 261
1 262
1 263
1 264
1 265
1 266
1 267
1 268
1 269
1 270
1 271
1 272
1 273
1 274
1 275
1 276
1 277
1 278
1 279
1 280
1 281
1 282
1 283
1 284
1 285
1 286
1 287
1 288
1 289
1 290
1 291
1 292
1 293
1 294
1 295
1 296
1 297
1 298
1 299
1 300
1 301

CELL_TYPES 200
9
9
9
9
9
9
9
9
9
9
9
9
9
9
9
9
9
9
9
9
9
9
9
9
9
9
9
9
9
9
9
9
9
9
9
9
9
9
9
9
9
9
9
9
9
9
9
9
9
9
9
9
9
9
9
9
9
9
9
9
9
9
9
9
9
9
9
9
9
9
9
9
9
9
9
9
9
9
9
9
9
9
9
9
9
9
9
9
9
9
9
9
9
9
9
9
9
9
9
9
1
1
1
1
1
1
1
1
1
1
1
1
1
1
1
1
1
1
1
1
1
1
1
1
1
1
1
1
1
1
1
1
1
1
1
1
1
1
1
1
1
1
1
1
1
1
1
1
1
1
1
1
1
1
1
1
1
1
1
1
1
1
1
1
1
1
1
1
1
1
1
1
1
1
1
1
1
1
1
1
1
1
1
1
1
1
1
1
1
1
1
1
1
1
1
1
1
1
1
1

CELL_DATA 200

VECTORS Vinf float
49.581513563427386 0.057580691450577995 3.195566978409396
49.582737384289814 0.05792600825090433 3.1673705095907705
49.58410366525777 0.058176690313665645 3.1355004357282255
49.585579637325836 0.05827243257455544 3.100509405738542
49.59162095639965 0.06228849305979407 3.0835634462523935
49.59354968239647 0.06271071955293431 3.043867755394077
49.59550878623719 0.06301015799646606 3.0027540772010046
49.59746355605813 0.0631754450218114 2.9607920452859626
49.599384511847695 0.06320411892583964 2.91848792961345
49.60124815204791 0.0631007435101785 2.8762733513425767
49.60303645679514 0.06287432133920924 2.834508873593377
49.60473541070054 0.06253586518384217 2.7934984546372954
49.60633309265571 0.06209690805731276 2.75350839278988
49.607818004647726 0.061569366034149815 2.7147849680087623
49.60917827936161 0.06096666504655424 2.677567630785271
49.601037351630886 0.05165493591587725 2.639199675314636
49.61148036843786 0.059607576333219746 2.608623972472252
49.61240843258956 0.05889924666194597 2.577408617203631
49.61319035959595 0.05820979154607156 2.548731082990338
49.61383963995431 0.057566757974715596 2.5228898827733577
49.61437798639445 0.05699069928740382 2.5001974637833753
49.6148317967438 0.05649140193293246 2.4809677301351085
49.61522871818923 0.056067425115527175 2.465498896048762
49.60910626106527 0.056963980604276286 2.4510099026483667
49.61596487246226 0.055394674501412285 2.4468313918640243
49.61636311757381 0.05509818176662785 2.4439253259338196
49.61681572041557 0.05477684511970494 2.4452751834293593
49.61733288424599 0.054379220840629516 2.4506581190725245
49.61790792307199 0.0538551918412079 2.459751215410896
49.61663005488508 0.05397213670876167 2.4707334342840097
49.619173123000635 0.052284490030353535 2.487827374419549
49.619846310620545 0.05117836792809777 2.506304059154286
49.62053748685806 0.04980111812249779 2.527416115423475
49.621218180545945 0.048089639258807874 2.550876832080125
49.620520079470666 0.04846548485980536 2.5744772149201527
49.628960604477356 0.04684312245542624 2.6102587390356367
49.628308459904105 0.04219200985254456 2.6323618684557335
49.62735084400507 0.03744549164205504 2.6579460434514757
49.6260901164107 0.032708926659980105 2.685927730922383
49.624521986946405 0.02806267468327322 2.715386947763184
49.62261116598025 0.02360873163900438 2.7456089295017554
49.62035918552682 0.019513909552524 2.776428231522117
49.61786291877573 0.015940979159106517 2.808540213521794
49.61896993347624 0.016156429722467537 2.839436313215977
49.614556197369325 0.012076877993609356 2.8835164146872216
49.60979552176866 0.0081383881437583 2.9382676275347404
49.60466248730846 0.004557763599435875 3.002008432525979
49.59948947468992 0.0017227583074479462 3.067079023705647
49.59483802797414 -0.00022669901985289926 3.1235244170883307
49.59090565462289 -0.001587968002342409 3.1683499379338285
49.590847634156724 0.0021197785001573557 3.170307998888441
49.594908441466345 0.0009503866593481998 3.132211321612898
49.59972693548209 -0.0008402136044733579 3.0865240741327096
49.60508340224823 -0.0036212410742739983 3.0329219877275095
49.61042077353626 -0.007309588941272506 2.975862277852757
49.6154002475296 -0.01150941078066586 2.921451896573857
49.6200158866829 -0.015944831811524916 2.8739455970868284
49.618978713799244 -0.015821223555267095 2.838007080395777
49.62150579619593 -0.019757378058014575 2.8004122150901725
49.62376148203604 -0.024211908123437792 2.763616315403117
49.62565205879815 -0.029005572423055893 2.7272135240161335
49.62717997056703 -0.03395648414157735 2.6917077475745197
49.62838753626938 -0.03895235803637793 2.65806869692536
49.629287584068 -0.04390829032448882 2.6273576859072456
49.62988598586786 -0.04871791811507464 2.600728057928281
49.62118057948047 -0.050217165953235755 2.5602779032119405
49.621763604565714 -0.049894350920091285 2.533020680082816
49.62100996221288 -0.051576073150720395 2.5063384352566125
49.62026892108232 -0.052898328796448464 2.4824167453135955
49.61956890321143 -0.05393483812107355 2.461471402433224
49.616956084190264 -0.05549755188778253 2.442163410408896
49.61830740625034 -0.055351422601148365 2.4291889379152964
49.617756214568466 -0.055798633262741294 2.418232770097376
49.617274417210105 -0.056122390386793966 2.4110918519842848
49.6168669843517 -0.05637446557328075 2.408075679058868
49.61652187276275 -0.056607670284694676 2.4094131534233036
49.610153423385796 -0.05782384278148028 2.412564874284446
49.61590776146895 -0.05717463018584385 2.42531351887261
49.6155759135766 -0.057556263896435506 2.439627045187221
49.615187752610325 -0.05801975612049381 2.4578745400804496
49.61471445061205 -0.058565904877684594 2.4797613064170716
49.614128783162414 -0.05918417048112015 2.504965141496915
49.6134085589848 -0.05985319580707717 2.5331551599757303
49.612540128957406 -0.06054463035444312 2.5640080636078837
49.60216141490772 -0.05221162273706867 2.5943797975164022
49.61035175924666 -0.061877627491719295 2.632494968698058
49.60904634290378 -0.06246998764262157 2.6695686121333297
49.60761561626384 -0.0629885205252245 2.7081771562043864
49.60607193542321 -0.06341969760204809 2.7480649305468496
49.60442719351362 -0.06375168924650171 2.788973026069457
49.602693552214895 -0.06397319435145399 2.83062599051608
49.60088506864497 -0.06407351077578151 2.8727140603551744
49.599019581113396 -0.06404394512927411 2.9148740634308594
49.597120184008496 -0.06388016010620193 2.956674732655444
49.595215745645724 -0.06358469277036867 2.997612736125877
49.59334020509696 -0.06316878752610093 3.037123401613671
49.58764571826359 -0.05904368808175553 3.053628761068211
49.586223870734095 -0.05897488813434717 3.088449667008768
49.58490807185991 -0.05875039284266454 3.120155325509456
49.583729771554474 -0.05842957454314304 3.1481998459903484
49.581513563427386 0.057580691450577995 3.195566978409396
49.582737384289814 0.05792600825090433 3.1673705095907705
49.58410366525777 0.058176690313665645 3.1355004357282255
49.585579637325836 0.05827243257455544 3.100509405738542
49.59162095639965 0.06228849305979407 3.0835634462523935
49.59354968239647 0.06271071955293431 3.043867755394077
49.59550878623719 0.06301015799646606 3.0027540772010046
49.59746355605813 0.0631754450218114 2.9607920452859626
49.599384511847695 0.06320411892583964 2.91848792961345
49.60124815204791 0.0631007435101785 2.8762733513425767
49.60303645679514 0.06287432133920924 2.834508873593377
49.60473541070054 0.06253586518384217 2.7934984546372954
49.60633309265571 0.06209690805731276 2.75350839278988
49.607818004647726 0.061569366034149815 2.7147849680087623
49.60917827936161 0.06096666504655424 2.677567630785271
49.601037351630886 0.05165493591587725 2.639199675314636
49.61148036843786 0.059607576333219746 2.608623972472252
49.61240843258956 0.05889924666194597 2.577408617203631
49.61319035959595 0.05820979154607156 2.548731082990338
49.61383963995431 0.057566757974715596 2.5228898827733577
49.61437798639445 0.05699069928740382 2.5001974637833753
49.6148317967438 0.05649140193293246 2.4809677301351085
49.61522871818923 0.056067425115527175 2.465498896048762
49.60910626106527 0.056963980604276286 2.4510099026483667
49.61596487246226 0.055394674501412285 2.4468313918640243
49.61636311757381 0.05509818176662785 2.4439253259338196
49.61681572041557 0.05477684511970494 2.4452751834293593
49.61733288424599 0.054379220840629516 2.4506581190725245
49.61790792307199 0.0538551918412079 2.459751215410896
49.61663005488508 0.05397213670876167 2.4707334342840097
49.619173123000635 0.052284490030353535 2.487827374419549
49.619846310620545 0.05117836792809777 2.506304059154286
49.62053748685806 0.04980111812249779 2.527416115423475
49.621218180545945 0.048089639258807874 2.550876832080125
49.620520079470666 0.04846548485980536 2.5744772149201527
49.628960604477356 0.04684312245542624 2.6102587390356367
49.628308459904105 0.04219200985254456 2.6323618684557335
49.62735084400507 0.03744549164205504 2.6579460434514757
49.6260901164107 0.032708926659980105 2.685927730922383
49.624521986946405 0.02806267468327322 2.715386947763184
49.62261116598025 0.02360873163900438 2.7456089295017554
49.62035918552682 0.019513909552524 2.776428231522117
49.61786291877573 0.015940979159106517 2.808540213521794
49.61896993347624 0.016156429722467537 2.839436313215977
49.614556197369325 0.012076877993609356 2.8835164146872216
49.60979552176866 0.0081383881437583 2.9382676275347404
49.60466248730846 0.004557763599435875 3.002008432525979
49.59948947468992 0.0017227583074479462 3.067079023705647
49.59483802797414 -0.00022669901985289926 3.1235244170883307
49.59090565462289 -0.001587968002342409 3.1683499379338285
49.590847634156724 0.0021197785001573557 3.170307998888441
49.594908441466345 0.0009503866593481998 3.132211321612898
49.59972693548209 -0.0008402136044733579 3.0865240741327096
49.60508340224823 -0.0036212410742739983 3.0329219877275095
49.61042077353626 -0.007309588941272506 2.975862277852757
49.6154002475296 -0.01150941078066586 2.921451896573857
49.6200158866829 -0.015944831811524916 2.8739455970868284
49.618978713799244 -0.015821223555267095 2.838007080395777
49.62150579619593 -0.019757378058014575 2.8004122150901725
49.62376148203604 -0.024211908123437792 2.763616315403117
49.62565205879815 -0.029005572423055893 2.7272135240161335
49.62717997056703 -0.03395648414157735 2.6917077475745197
49.62838753626938 -0.03895235803637793 2.65806869692536
49.629287584068 -0.04390829032448882 2.6273576859072456
49.62988598586786 -0.04871791811507464 2.600728057928281
49.62118057948047 -0.050217165953235755 2.5602779032119405
49.621763604565714 -0.049894350920091285 2.533020680082816
49.62100996221288 -0.051576073150720395 2.5063384352566125
49.62026892108232 -0.052898328796448464 2.4824167453135955
49.61956890321143 -0.05393483812107355 2.461471402433224
49.616956084190264 -0.05549755188778253 2.442163410408896
49.61830740625034 -0.055351422601148365 2.4291889379152964
49.617756214568466 -0.055798633262741294 2.418232770097376
49.617274417210105 -0.056122390386793966 2.4110918519842848
49.6168669843517 -0.05637446557328075 2.408075679058868
49.61652187276275 -0.056607670284694676 2.4094131534233036
49.610153423385796 -0.05782384278148028 2.412564874284446
49.61590776146895 -0.05717463018584385 2.42531351887261
49.6155759135766 -0.057556263896435506 2.439627045187221
49.615187752610325 -0.05801975612049381 2.4578745400804496
49.61471445061205 -0.058565904877684594 2.4797613064170716
49.614128783162414 -0.05918417048112015 2.504965141496915
49.6134085589848 -0.05985319580707717 2.5331551599757303
49.612540128957406 -0.06054463035444312 2.5640080636078837
49.60216141490772 -0.05221162273706867 2.5943797975164022
49.61035175924666 -0.061877627491719295 2.632494968698058
49.60904634290378 -0.06246998764262157 2.6695686121333297
49.60761561626384 -0.0629885205252245 2.7081771562043864
49.60607193542321 -0.06341969760204809 2.7480649305468496
49.60442719351362 -0.06375168924650171 2.788973026069457
49.602693552214895 -0.06397319435145399 2.83062599051608
49.60088506864497 -0.06407351077578151 2.8727140603551744
49.599019581113396 -0.06404394512927411 2.9148740634308594
49.597120184008496 -0.06388016010620193 2.956674732655444
49.595215745645724 -0.06358469277036867 2.997612736125877
49.59334020509696 -0.06316878752610093 3.037123401613671
49.58764571826359 -0.05904368808175553 3.053628761068211
49.586223870734095 -0.05897488813434717 3.088449667008768
49.58490807185991 -0.05875039284266454 3.120155325509456
49.583729771554474 -0.05842957454314304 3.1481998459903484

VECTORS L float
-0.004807411714012753 0.0 0.06546449104977313
-0.00869125830777513 0.0 0.11835241821335339
-0.01285448418936405 0.0 0.17504476737684313
-0.01743568384879366 0.0 0.23742883638174675
-0.02246689436142377 0.0 0.30594088718312823
-0.0279418504637781 0.0 0.3804956031263787
-0.033851166950268435 0.0 0.46096518202941367
-0.04017326681227536 0.0 0.5470558009430709
-0.046885961199247234 0.0 0.638465305216417
-0.05396118158816809 0.0 0.734811474294386
-0.06136891680568177 0.0 0.8356856337578846
-0.06907699371686556 0.0 0.9406496688731462
-0.07705114980248975 0.0 1.0492370129059512
-0.08525613023559994 0.0 1.1609675864620401
-0.09365626281027399 0.0 1.275355626527085
-0.1022144555449183 0.0 1.391896036420896
-0.11091291767161508 0.0 1.5103465519821313
-0.11971328729417005 0.0 1.6301847835842183
-0.12859038939573586 0.0 1.7510679127287372
-0.1375238019144676 0.0 1.8727178438490104
-0.14649837542258307 0.0 1.994928280992359
-0.1555034010285238 0.0 2.117553396803591
-0.16453183174822772 0.0 2.240497229619235
-0.17357680439668977 0.0 2.363666320642737
-0.18265923919125604 0.0 2.4873455490279297
-0.19176662118169402 0.0 2.6113644935801603
-0.200888511326199 0.0 2.7355810015986735
-0.2100291697930871 0.0 2.8600530855374036
-0.2191896224454397 0.0 2.984794714993402
-0.22836613362476785 0.0 3.109755019977524
-0.23756683171713905 0.0 3.2350446880465276
-0.24677040224399172 0.0 3.360373471230398
-0.25596645673636503 0.0 3.485599905499473
-0.26513643045604074 0.0 3.6104711872223536
-0.274261308320915 0.0 3.7347283802508078
-0.28332285954271585 0.0 3.858123228486407
-0.292196156659174 0.0 3.9789545435928644
-0.30095317589139947 0.0 4.098202455203955
-0.30944018961637915 0.0 4.213773591418223
-0.31767468463582565 0.0 4.325906077164903
-0.3255968298568272 0.0 4.433785167987013
-0.3331427511662842 0.0 4.536541063968492
-0.3402475100583386 0.0 4.633289470921859
-0.34682848936574573 0.0 4.722905357098767
-0.3529268139238685 0.0 4.805948736198205
-0.35839615996918417 0.0 4.88042705770082
-0.3630777174304736 0.0 4.944177739929733
-0.36676519213713543 0.0 4.994391590810633
-0.36926780620383626 0.0 5.028470709870278
-0.3696452024604596 0.0 5.033609869013216
-0.3698618334498186 0.0 5.036559821775252
-0.3699563795053541 0.0 5.037847294073153
-0.36793751074396214 0.0 5.010355532638289
-0.3646649043290295 0.0 4.965791112924595
-0.3602460615254343 0.0 4.90561792361295
-0.3548595256903551 0.0 4.832267262604037
-0.3486887929202995 0.0 4.748237871275151
-0.34191950816542976 0.0 4.656057752822464
-0.3345448933208762 0.0 4.55563460702041
-0.3266744516725844 0.0 4.448459584889366
-0.3183974461652836 0.0 4.335748216447129
-0.30979844258660355 0.0 4.218652068602619
-0.30095339939822213 0.0 4.098205498787751
-0.29185354337602887 0.0 3.974289038422461
-0.2826647113325231 0.0 3.8491609551928585
-0.2733155248121772 0.0 3.7218492594835313
-0.263938142655758 0.0 3.5941536122686615
-0.25454992852556957 0.0 3.4663104616378053
-0.24516923468741023 0.0 3.3385697178985407