# vtk DataFile Version 4.0
[MyVLM domain - lattices] 
ASCII
DATASET UNSTRUCTURED_GRID
POINTS 302 float
1.2444999999999997 -1.2445 0.0
1.2399745454545452 -1.2399745454545454 0.0
1.2346178849721705 -1.2346178849721707 0.0
1.2284300185528754 -1.2284300185528756 0.0
1.2214109461966602 -1.2214109461966605 0.0
1.2135606679035247 -1.213560667903525 0.0
1.2048791836734691 -1.2048791836734694 0.0
1.1953664935064932 -1.1953664935064934 0.0
1.1850225974025972 -1.1850225974025974 0.0
1.1738474953617808 -1.173847495361781 0.0
1.1618411873840442 -1.1618411873840444 0.0
1.1490036734693874 -1.1490036734693876 0.0
1.1353349536178106 -1.1353349536178108 0.0
1.1208350278293133 -1.1208350278293135 0.0
1.1055038961038959 -1.105503896103896 0.0
1.0893415584415582 -1.0893415584415584 0.0
1.0723480148423004 -1.0723480148423006 0.0
1.054523265306122 -1.0545232653061223 0.0
1.0358673098330238 -1.035867309833024 0.0
1.0163801484230053 -1.0163801484230055 0.0
0.9960617810760664 -0.9960617810760668 0.0
0.9749122077922076 -0.9749122077922077 0.0
0.9529314285714284 -0.9529314285714284 0.0
0.9301194434137288 -0.930119443413729 0.0
0.9064762523191091 -0.9064762523191096 0.0
0.8820018552875695 -0.8820018552875695 0.0
0.8566962523191093 -0.8566962523191094 0.0
0.8305594434137288 -0.8305594434137291 0.0
0.8035914285714284 -0.8035914285714285 0.0
0.7757922077922076 -0.7757922077922077 0.0
0.7471617810760666 -0.7471617810760667 0.0
0.7177001484230053 -0.7177001484230054 0.0
0.6874073098330239 -0.687407309833024 0.0
0.6562832653061222 -0.6562832653061225 0.0
0.6243280148423004 -0.6243280148423005 0.0
0.5915415584415582 -0.5915415584415583 0.0
0.5579238961038958 -0.5579238961038959 0.0
0.5234750278293133 -0.5234750278293134 0.0
0.48819495361781057 -0.48819495361781057 0.0
0.4520836734693877 -0.4520836734693877 0.0
0.4151411873840445 -0.4151411873840446 0.0
0.37736749536178105 -0.37736749536178116 0.0
0.3387625974025974 -0.3387625974025974 0.0
0.2993264935064933 -0.29932649350649343 0.0
0.25905918367346925 -0.25905918367346925 0.0
0.21796066790352486 -0.21796066790352486 0.0
0.17603094619666027 -0.1760309461966605 0.0
0.13327001855287546 -0.13327001855287568 0.0
0.08967788497217066 -0.08967788497217066 0.0
0.045254545454545436 -0.045254545454545436 0.0
0.0 0.0 0.0
0.04525454545454545 0.04525454545454546 0.0
0.08967788497217066 0.08967788497217068 0.0
0.13327001855287568 0.1332700185528757 0.0
0.17603094619666046 0.1760309461966605 0.0
0.21796066790352497 0.21796066790352508 0.0
0.2590591836734693 0.25905918367346936 0.0
0.29932649350649343 0.2993264935064935 0.0
0.3387625974025973 0.33876259740259734 0.0
0.37736749536178094 0.377367495361781 0.0
0.41514118738404443 0.4151411873840445 0.0
0.45208367346938766 0.4520836734693878 0.0
0.48819495361781057 0.4881949536178107 0.0
0.5234750278293133 0.5234750278293134 0.0
0.5579238961038959 0.557923896103896 0.0
0.5915415584415582 0.5915415584415583 0.0
0.6243280148423003 0.6243280148423004 0.0
0.6562832653061222 0.6562832653061225 0.0
0.687407309833024 0.6874073098330241 0.0
0.7177001484230054 0.7177001484230056 0.0
0.7471617810760667 0.7471617810760669 0.0
0.7757922077922076 0.7757922077922077 0.0
0.8035914285714284 0.8035914285714285 0.0
0.8305594434137288 0.830559443413729 0.0
0.8566962523191093 0.8566962523191094 0.0
0.8820018552875692 0.8820018552875695 0.0
0.9064762523191091 0.9064762523191093 0.0
0.9301194434137288 0.9301194434137292 0.0
0.9529314285714284 0.9529314285714284 0.0
0.9749122077922076 0.9749122077922077 0.0
0.9960617810760666 0.9960617810760668 0.0
1.0163801484230053 1.0163801484230055 0.0
1.0358673098330238 1.035867309833024 0.0
1.054523265306122 1.0545232653061223 0.0
1.0723480148423001 1.0723480148423004 0.0
1.0893415584415582 1.0893415584415584 0.0
1.1055038961038959 1.105503896103896 0.0
1.120835027829313 1.1208350278293133 0.0
1.1353349536178106 1.1353349536178106 0.0
1.1490036734693874 1.1490036734693876 0.0
1.1618411873840444 1.1618411873840446 0.0
1.1738474953617808 1.173847495361781 0.0
1.1850225974025972 1.1850225974025972 0.0
1.1953664935064932 1.1953664935064934 0.0
1.2048791836734691 1.2048791836734694 0.0
1.2135606679035245 1.2135606679035247 0.0
1.22141094619666 1.2214109461966602 0.0
1.2284300185528754 1.2284300185528756 0.0
1.2346178849721703 1.2346178849721705 0.0
1.2399745454545452 1.2399745454545454 0.0
1.2444999999999997 1.2445 0.0
1.7422999999999997 -1.2445 0.0
1.7377745454545452 -1.2399745454545454 0.0
1.7324178849721703 -1.2346178849721707 0.0
1.7262300185528754 -1.2284300185528756 0.0
1.7192109461966603 -1.2214109461966605 0.0
1.7113606679035245 -1.213560667903525 0.0
1.7026791836734692 -1.2048791836734694 0.0
1.6931664935064934 -1.1953664935064934 0.0
1.6828225974025972 -1.1850225974025974 0.0
1.6716474953617806 -1.173847495361781 0.0
1.6596411873840444 -1.1618411873840444 0.0
1.6468036734693878 -1.1490036734693876 0.0
1.6331349536178106 -1.1353349536178108 0.0
1.6186350278293133 -1.1208350278293135 0.0
1.603303896103896 -1.105503896103896 0.0
1.5871415584415582 -1.0893415584415584 0.0
1.5701480148423004 -1.0723480148423006 0.0
1.552323265306122 -1.0545232653061223 0.0
1.5336673098330238 -1.035867309833024 0.0
1.5141801484230053 -1.0163801484230055 0.0
1.4938617810760666 -0.9960617810760668 0.0
1.4727122077922075 -0.9749122077922077 0.0
1.4507314285714283 -0.9529314285714284 0.0
1.4279194434137288 -0.930119443413729 0.0
1.4042762523191092 -0.9064762523191096 0.0
1.3798018552875693 -0.8820018552875695 0.0
1.3544962523191093 -0.8566962523191094 0.0
1.328359443413729 -0.8305594434137291 0.0
1.3013914285714283 -0.8035914285714285 0.0
1.2735922077922077 -0.7757922077922077 0.0
1.2449617810760665 -0.7471617810760667 0.0
1.2155001484230055 -0.7177001484230054 0.0
1.1852073098330238 -0.687407309833024 0.0
1.1540832653061224 -0.6562832653061225 0.0
1.1221280148423003 -0.6243280148423005 0.0
1.0893415584415582 -0.5915415584415583 0.0
1.055723896103896 -0.5579238961038959 0.0
1.0212750278293132 -0.5234750278293134 0.0
0.9859949536178108 -0.48819495361781057 0.0
0.9498836734693876 -0.4520836734693877 0.0
0.9129411873840445 -0.4151411873840446 0.0
0.875167495361781 -0.37736749536178116 0.0
0.8365625974025973 -0.3387625974025974 0.0
0.7971264935064933 -0.29932649350649343 0.0
0.7568591836734693 -0.25905918367346925 0.0
0.7157606679035249 -0.21796066790352486 0.0
0.6738309461966603 -0.1760309461966605 0.0
0.6310700185528755 -0.13327001855287568 0.0
0.5874778849721707 -0.08967788497217066 0.0
0.5430545454545455 -0.045254545454545436 0.0
0.4978 0.0 0.0
0.5430545454545455 0.04525454545454546 0.0
0.5874778849721707 0.08967788497217068 0.0
0.6310700185528757 0.1332700185528757 0.0
0.6738309461966605 0.1760309461966605 0.0
0.715760667903525 0.21796066790352508 0.0
0.7568591836734693 0.25905918367346936 0.0
0.7971264935064934 0.2993264935064935 0.0
0.8365625974025973 0.33876259740259734 0.0
0.875167495361781 0.377367495361781 0.0
0.9129411873840445 0.4151411873840445 0.0
0.9498836734693876 0.4520836734693878 0.0
0.9859949536178105 0.4881949536178107 0.0
1.0212750278293132 0.5234750278293134 0.0
1.055723896103896 0.557923896103896 0.0
1.0893415584415582 0.5915415584415583 0.0
1.1221280148423003 0.6243280148423004 0.0
1.1540832653061224 0.6562832653061225 0.0
1.185207309833024 0.6874073098330241 0.0
1.2155001484230055 0.7177001484230056 0.0
1.2449617810760667 0.7471617810760669 0.0
1.2735922077922077 0.7757922077922077 0.0
1.3013914285714283 0.8035914285714285 0.0
1.3283594434137287 0.830559443413729 0.0
1.3544962523191093 0.8566962523191094 0.0
1.3798018552875693 0.8820018552875695 0.0
1.4042762523191092 0.9064762523191093 0.0
1.427919443413729 0.9301194434137292 0.0
1.4507314285714283 0.9529314285714284 0.0
1.4727122077922075 0.9749122077922077 0.0
1.4938617810760666 0.9960617810760668 0.0
1.5141801484230053 1.0163801484230055 0.0
1.5336673098330238 1.035867309833024 0.0
1.552323265306122 1.0545232653061223 0.0
1.5701480148423002 1.0723480148423004 0.0
1.5871415584415582 1.0893415584415584 0.0
1.603303896103896 1.105503896103896 0.0
1.6186350278293131 1.1208350278293133 0.0
1.6331349536178106 1.1353349536178106 0.0
1.6468036734693874 1.1490036734693876 0.0
1.6596411873840444 1.1618411873840446 0.0
1.6716474953617806 1.173847495361781 0.0
1.6828225974025972 1.1850225974025972 0.0
1.6931664935064934 1.1953664935064934 0.0
1.7026791836734692 1.2048791836734694 0.0
1.7113606679035245 1.2135606679035247 0.0
1.71921094619666 1.2214109461966602 0.0
1.7262300185528754 1.2284300185528756 0.0
1.7324178849721703 1.2346178849721705 0.0
1.7377745454545452 1.2399745454545454 0.0
1.7422999999999997 1.2445 0.0
1.6155872727272724 -1.2422372727272726 0.0
1.6106462152133578 -1.237296215213358 0.0
1.604873951762523 -1.2315239517625232 0.0
1.598270482374768 -1.224920482374768 0.0
1.5908358070500925 -1.2174858070500927 0.0
1.582569925788497 -1.2092199257884972 0.0
1.5734728385899812 -1.2001228385899814 0.0
1.5635445454545454 -1.1901945454545453 0.0
1.552785046382189 -1.1794350463821892 0.0
1.5411943413729126 -1.1678443413729127 0.0
1.5287724304267158 -1.155422430426716 0.0
1.5155193135435991 -1.142169313543599 0.0
1.501434990723562 -1.1280849907235622 0.0
1.4865194619666047 -1.1131694619666048 0.0
1.4707727272727271 -1.0974227272727273 0.0
1.4541947866419294 -1.0808447866419293 0.0
1.4367856400742112 -1.0634356400742113 0.0
1.418545287569573 -1.0451952875695731 0.0
1.3994737291280146 -1.0261237291280147 0.0
1.379570964749536 -1.0062209647495362 0.0
1.358836994434137 -0.9854869944341371 0.0
1.337271818181818 -0.9639218181818181 0.0
1.3148754359925787 -0.9415254359925787 0.0
1.291647847866419 -0.9182978478664192 0.0
1.2675890538033394 -0.8942390538033393 0.0
1.2426990538033393 -0.8693490538033395 0.0
1.2169778478664193 -0.8436278478664192 0.0
1.1904254359925788 -0.8170754359925788 0.0
1.163041818181818 -0.7896918181818181 0.0
1.1348269944341371 -0.7614769944341371 0.0
1.105780964749536 -0.7324309647495362 0.0
1.0759037291280147 -0.7025537291280148 0.0
1.0451952875695731 -0.6718452875695733 0.0
1.0136556400742114 -0.6403056400742114 0.0
0.9812847866419293 -0.6079347866419293 0.0
0.9480827272727271 -0.5747327272727272 0.0
0.9140494619666047 -0.5406994619666048 0.0
0.8791849907235622 -0.5058349907235622 0.0
0.8434893135435992 -0.47013931354359917 0.0
0.8069624304267162 -0.43361243042671627 0.0
0.7696043413729128 -0.3962543413729128 0.0
0.7314150463821893 -0.3580650463821894 0.0
0.6923945454545455 -0.3190445454545454 0.0
0.6525428385899814 -0.27919283858998134 0.0
0.6118599257884971 -0.23850992578849706 0.0
0.5703458070500929 -0.19699580705009279 0.0
0.5280004823747682 -0.15465048237476808 0.0
0.4848239517625232 -0.11147395176252317 0.0
0.4408162152133581 -0.06746621521335805 0.0
0.39597727272727273 -0.022627272727272718 0.0
0.39597727272727273 0.02262727272727273 0.0
0.4408162152133581 0.06746621521335806 0.0
0.4848239517625232 0.11147395176252319 0.0
0.528000482374768 0.15465048237476808 0.0
0.5703458070500929 0.19699580705009276 0.0
0.6118599257884971 0.23850992578849717 0.0
0.6525428385899814 0.2791928385899814 0.0
0.6923945454545455 0.3190445454545454 0.0
0.7314150463821891 0.3580650463821891 0.0
0.7696043413729128 0.39625434137291277 0.0
0.8069624304267162 0.43361243042671616 0.0
0.8434893135435992 0.4701393135435992 0.0
0.8791849907235619 0.5058349907235621 0.0
0.9140494619666046 0.5406994619666047 0.0
0.9480827272727271 0.5747327272727272 0.0
0.9812847866419294 0.6079347866419295 0.0
1.0136556400742114 0.6403056400742114 0.0
1.0451952875695731 0.6718452875695732 0.0
1.0759037291280147 0.7025537291280147 0.0
1.105780964749536 0.7324309647495362 0.0
1.1348269944341371 0.7614769944341373 0.0
1.163041818181818 0.789691818181818 0.0
1.1904254359925786 0.8170754359925786 0.0
1.216977847866419 0.843627847866419 0.0
1.2426990538033393 0.8693490538033394 0.0
1.2675890538033392 0.8942390538033393 0.0
1.291647847866419 0.9182978478664192 0.0
1.3148754359925787 0.9415254359925787 0.0
1.3372718181818182 0.9639218181818181 0.0
1.3588369944341372 0.9854869944341373 0.0
1.379570964749536 1.0062209647495362 0.0
1.3994737291280148 1.0261237291280147 0.0
1.418545287569573 1.0451952875695731 0.0
1.4367856400742112 1.0634356400742113 0.0
1.4541947866419291 1.0808447866419293 0.0
1.470772727272727 1.097422727272727 0.0
1.4865194619666047 1.1131694619666048 0.0
1.501434990723562 1.128084990723562 0.0
1.5155193135435991 1.1421693135435993 0.0
1.528772430426716 1.1554224304267162 0.0
1.5411943413729128 1.1678443413729127 0.0
1.5527850463821888 1.179435046382189 0.0
1.5635445454545451 1.1901945454545453 0.0
1.573472838589981 1.2001228385899811 0.0
1.5825699257884969 1.209219925788497 0.0
1.5908358070500925 1.2174858070500927 0.0
1.5982704823747678 1.224920482374768 0.0
1.604873951762523 1.2315239517625232 0.0
1.6106462152133578 1.237296215213358 0.0
1.6155872727272724 1.2422372727272726 0.0

CELLS 200 700
4 0 101 102 1
4 1 102 103 2
4 2 103 104 3
4 3 104 105 4
4 4 105 106 5
4 5 106 107 6
4 6 107 108 7
4 7 108 109 8
4 8 109 110 9
4 9 110 111 10
4 10 111 112 11
4 11 112 113 12
4 12 113 114 13
4 13 114 115 14
4 14 115 116 15
4 15 116 117 16
4 16 117 118 17
4 17 118 119 18
4 18 119 120 19
4 19 120 121 20
4 20 121 122 21
4 21 122 123 22
4 22 123 124 23
4 23 124 125 24
4 24 125 126 25
4 25 126 127 26
4 26 127 128 27
4 27 128 129 28
4 28 129 130 29
4 29 130 131 30
4 30 131 132 31
4 31 132 133 32
4 32 133 134 33
4 33 134 135 34
4 34 135 136 35
4 35 136 137 36
4 36 137 138 37
4 37 138 139 38
4 38 139 140 39
4 39 140 141 40
4 40 141 142 41
4 41 142 143 42
4 42 143 144 43
4 43 144 145 44
4 44 145 146 45
4 45 146 147 46
4 46 147 148 47
4 47 148 149 48
4 48 149 150 49
4 49 150 151 50
4 50 151 152 51
4 51 152 153 52
4 52 153 154 53
4 53 154 155 54
4 54 155 156 55
4 55 156 157 56
4 56 157 158 57
4 57 158 159 58
4 58 159 160 59
4 59 160 161 60
4 60 161 162 61
4 61 162 163 62
4 62 163 164 63
4 63 164 165 64
4 64 165 166 65
4 65 166 167 66
4 66 167 168 67
4 67 168 169 68
4 68 169 170 69
4 69 170 171 70
4 70 171 172 71
4 71 172 173 72
4 72 173 174 73
4 73 174 175 74
4 74 175 176 75
4 75 176 177 76
4 76 177 178 77
4 77 178 179 78
4 78 179 180 79
4 79 180 181 80
4 80 181 182 81
4 81 182 183 82
4 82 183 184 83
4 83 184 185 84
4 84 185 186 85
4 85 186 187 86
4 86 187 188 87
4 87 188 189 88
4 88 189 190 89
4 89 190 191 90
4 90 191 192 91
4 91 192 193 92
4 92 193 194 93
4 93 194 195 94
4 94 195 196 95
4 95 196 197 96
4 96 197 198 97
4 97 198 199 98
4 98 199 200 99
4 99 200 201 100
1 202
1 203
1 204
1 205
1 206
1 207
1 208
1 209
1 210
1 211
1 212
1 213
1 214
1 215
1 216
1 217
1 218
1 219
1 220
1 221
1 222
1 223
1 224
1 225
1 226
1 227
1 228
1 229
1 230
1 231
1 232
1 233
1 234
1 235
1 236
1 237
1 238
1 239
1 240
1 241
1 242
1 243
1 244
1 245
1 246
1 247
1 248
1 249
1 250
1 251
1 252
1 253
1 254
1 255
1 256
1 257
1 258
1 259
1 260
1 261
1 262
1 263
1 264
1 265
1 266
1 267
1 268
1 269
1 270
1 271
1 272
1 273
1 274
1 275
1 276
1 277
1 278
1 279
1 280
1 281
1 282
1 283
1 284
1 285
1 286
1 287
1 288
1 289
1 290
1 291
1 292
1 293
1 294
1 295
1 296
1 297
1 298
1 299
1 300
1 301

CELL_TYPES 200
9
9
9
9
9
9
9
9
9
9
9
9
9
9
9
9
9
9
9
9
9
9
9
9
9
9
9
9
9
9
9
9
9
9
9
9
9
9
9
9
9
9
9
9
9
9
9
9
9
9
9
9
9
9
9
9
9
9
9
9
9
9
9
9
9
9
9
9
9
9
9
9
9
9
9
9
9
9
9
9
9
9
9
9
9
9
9
9
9
9
9
9
9
9
9
9
9
9
9
9
1
1
1
1
1
1
1
1
1
1
1
1
1
1
1
1
1
1
1
1
1
1
1
1
1
1
1
1
1
1
1
1
1
1
1
1
1
1
1
1
1
1
1
1
1
1
1
1
1
1
1
1
1
1
1
1
1
1
1
1
1
1
1
1
1
1
1
1
1
1
1
1
1
1
1
1
1
1
1
1
1
1
1
1
1
1
1
1
1
1
1
1
1
1
1
1
1
1
1
1

CELL_DATA 200

VECTORS Vinf float
49.530814668110494 0.03294842940970104 4.2900663271520045
49.53367292529757 0.03258039999418983 4.256847717183674
49.53646063239684 0.033506448243809966 4.2174881029685904
49.53948418515676 0.034360816917191644 4.1744028143905085
49.54267581351038 0.03508720748346358 4.128410819006608
49.54596454412612 0.03563895129096909 4.080379024586338
49.5492806441734 0.035982802499846804 4.031169734781438
49.552560013227826 0.03610083676576515 3.98158952832591
49.55574766823006 0.03599003745977762 3.9323502926739673
49.55879971394865 0.03565978219503832 3.884049393002603
49.56168365291543 0.03512803848207397 3.8371694333581807
49.56437735560804 0.03441736341239843 3.7920917974829114
49.566867279420634 0.03355166082139131 3.7491151399159066
49.56914652913624 0.032554201309128825 3.7084712440676193
49.570941211377274 0.03305389554151616 3.67407755792955
49.57282784580403 0.031473733548398206 3.638112606018814
49.574602480734015 0.029052827403076173 3.6032259646162
49.57617321643125 0.02767203049431841 3.571924800012065
49.577441636455646 0.02632998754012697 3.5445229148515334
49.57854009278875 0.024978032877347723 3.519745138486157
49.57948595715489 0.023631764470474895 3.497494648497872
49.580296940360405 0.02230235748716163 3.4776535585849646
49.58098882808033 0.020996260270785418 3.4600914008635635
49.5815738050295 0.019716452658228214 3.444671496590318
49.58192759800852 0.01831144400945853 3.4323692606039824
49.582454977594494 0.017244823590060937 3.4197055114653994
49.58276508828127 0.016061324839014318 3.4098933991694405
49.583000533859376 0.014919183363813447 3.401707602143828
49.58317264821859 0.013819590738837111 3.3950659605271345
49.58329127351172 0.01275843246613356 3.38992046918737
49.5833626361299 0.011727878503852728 3.3862502971875488
49.5832401844292 0.010127005466404977 3.384682886783658
49.583376409559705 0.009727303195311721 3.3832793554277214
49.58332545095284 0.008744502822973392 3.3839013968578824
49.58324035600893 0.007763621597441156 3.3858232299760354
49.583119014752334 0.00677368413516675 3.388955673811489
49.58287403166415 0.005634464851635954 3.3938995266739598
49.58262149792969 0.004518559916162451 3.3990979497580756
49.58233686445259 0.0036634150247474425 3.4057928831570847
49.58184416300612 0.002608161523788358 3.414493101563639
49.5812095182987 0.0015742225802517413 3.4253244892487817
49.58036944653658 0.0005286322974871692 3.4393325689390033
49.57941135427529 -0.00041083497403530435 3.4557036986845002
49.578167706924624 -0.0013131130612247107 3.476704132490356
49.57666393109322 -0.0020690914685311396 3.5022184345372276
49.57494108777973 -0.0025507988531970212 3.5311777515252207
49.57317107713791 -0.002498326508124583 3.559738767609018
49.57192669920171 -0.00196244406466146 3.5786237309697846
49.57150240642148 -0.0009841724018451283 3.5832062084486402
49.57176410742438 -0.000189727153103612 3.576726215785783
49.57176490400212 0.000245648576592588 3.5767324944353773
49.57150392389367 0.001046826023749556 3.5832406998827686
49.57192905170484 0.0020374010931844713 3.5787096480568037
49.57318050107051 0.002591934381911259 3.5598873097301196
49.574969132689596 0.0026564709818185425 3.5313699362930797
49.57671632817311 0.002173145236793156 3.502400644506316
49.57823592267031 0.001404403534988837 3.476799511625749
49.57948392271429 0.0004919746054450355 3.4556555401901976
49.580446846304696 -0.00045252092838657257 3.4391486373225524
49.58129623824781 -0.0015135382127513502 3.425060878416785
49.58193219539736 -0.0025672575203985045 3.4142138313844947
49.58241465432522 -0.0036384201744644545 3.4055309155241416
49.58268367091028 -0.004499128308077044 3.3988601752588767
49.58292334989766 -0.005616834519741216 3.3936821272539444
49.583159347436535 -0.006756941523410865 3.388750738188553
49.58327426016496 -0.00774393612834109 3.3856307508538706
49.58335519933723 -0.008721127188540533 3.3837207278156227
49.583403623423614 -0.009699771283863902 3.383110709139667
49.583265422381714 -0.010091873726144077 3.3845279368419376
49.58328350629373 -0.011055499724211746 3.3863220672560406
49.58331802665012 -0.0127157372516451 3.3897922951068282
49.58320196807558 -0.013771410070197915 3.394949732327562
49.583034100962436 -0.014866298979381617 3.4015982296704945
49.58280428054564 -0.016005331140800688 3.409783711098297
49.58250039193766 -0.017187729731747897 3.419588690035475
49.5819785314752 -0.018249931754859026 3.4322440894390476
49.58163002176205 -0.019662217221848778 3.4445297848998813
49.58104869725276 -0.02094483982323109 3.4599367496125466
49.580359289850236 -0.02225398215147402 3.4774873301835516
49.57954986284799 -0.023586370984837544 3.4973184310686243
49.57860490189365 -0.024935430369855884 3.5195602924775513
49.57750691367684 -0.026289955881289507 3.544330386092924
49.57623867282404 -0.027634358612014888 3.571725102899431
49.57466735054752 -0.029009569265121226 3.6030250538615154
49.572892667574415 -0.03143240319613402 3.637903785176953
49.57100583447815 -0.03301433126565563 3.673860765391089
49.56921122954709 -0.03252397439410694 3.7082419516803977
49.56693164308131 -0.033522780881611244 3.748877404355194
49.56444139917206 -0.03438963007678765 3.7918451344677
49.56174742356985 -0.035101269053436454 3.8369134369625435
49.55886328074416 -0.03563381816613505 3.8837837757401195
49.55581111219285 -0.03596474713371337 3.9320749066116316
49.55262341798546 -0.03607611431422336 3.981304371393874
49.54934408827039 -0.035958564568652956 4.030874948375467
49.54602809550683 -0.03561513240462439 4.080074887509099
49.542739526114495 -0.03506375526732632 4.128097740420264
49.53954809729065 -0.034337687799893615 4.174081326339229
49.53652476646017 -0.03348360397359678 4.217158851932152
49.53373728847228 -0.03255780505826057 4.256511454011716
49.53087598621837 -0.03290388376752971 4.289764481190162
49.530814668110494 0.03294842940970104 4.2900663271520045
49.53367292529757 0.03258039999418983 4.256847717183674
49.53646063239684 0.033506448243809966 4.2174881029685904
49.53948418515676 0.034360816917191644 4.1744028143905085
49.54267581351038 0.03508720748346358 4.128410819006608
49.54596454412612 0.03563895129096909 4.080379024586338
49.5492806441734 0.035982802499846804 4.031169734781438
49.552560013227826 0.03610083676576515 3.98158952832591
49.55574766823006 0.03599003745977762 3.9323502926739673
49.55879971394865 0.03565978219503832 3.884049393002603
49.56168365291543 0.03512803848207397 3.8371694333581807
49.56437735560804 0.03441736341239843 3.7920917974829114
49.566867279420634 0.03355166082139131 3.7491151399159066
49.56914652913624 0.032554201309128825 3.7084712440676193
49.570941211377274 0.03305389554151616 3.67407755792955
49.57282784580403 0.031473733548398206 3.638112606018814
49.574602480734015 0.029052827403076173 3.6032259646162
49.57617321643125 0.02767203049431841 3.571924800012065
49.577441636455646 0.02632998754012697 3.5445229148515334
49.57854009278875 0.024978032877347723 3.519745138486157
49.57948595715489 0.023631764470474895 3.497494648497872
49.580296940360405 0.02230235748716163 3.4776535585849646
49.58098882808033 0.020996260270785418 3.4600914008635635
49.5815738050295 0.019716452658228214 3.444671496590318
49.58192759800852 0.01831144400945853 3.4323692606039824
49.582454977594494 0.017244823590060937 3.4197055114653994
49.58276508828127 0.016061324839014318 3.4098933991694405
49.583000533859376 0.014919183363813447 3.401707602143828
49.58317264821859 0.013819590738837111 3.3950659605271345
49.58329127351172 0.01275843246613356 3.38992046918737
49.5833626361299 0.011727878503852728 3.3862502971875488
49.5832401844292 0.010127005466404977 3.384682886783658
49.583376409559705 0.009727303195311721 3.3832793554277214
49.58332545095284 0.008744502822973392 3.3839013968578824
49.58324035600893 0.007763621597441156 3.3858232299760354
49.583119014752334 0.00677368413516675 3.388955673811489
49.58287403166415 0.005634464851635954 3.3938995266739598
49.58262149792969 0.004518559916162451 3.3990979497580756
49.58233686445259 0.0036634150247474425 3.4057928831570847
49.58184416300612 0.002608161523788358 3.414493101563639
49.5812095182987 0.0015742225802517413 3.4253244892487817
49.58036944653658 0.0005286322974871692 3.4393325689390033
49.57941135427529 -0.00041083497403530435 3.4557036986845002
49.578167706924624 -0.0013131130612247107 3.476704132490356
49.57666393109322 -0.0020690914685311396 3.5022184345372276
49.57494108777973 -0.0025507988531970212 3.5311777515252207
49.57317107713791 -0.002498326508124583 3.559738767609018
49.57192669920171 -0.00196244406466146 3.5786237309697846
49.57150240642148 -0.0009841724018451283 3.5832062084486402
49.57176410742438 -0.000189727153103612 3.576726215785783
49.57176490400212 0.000245648576592588 3.5767324944353773
49.57150392389367 0.001046826023749556 3.5832406998827686
49.57192905170484 0.0020374010931844713 3.5787096480568037
49.57318050107051 0.002591934381911259 3.5598873097301196
49.574969132689596 0.0026564709818185425 3.5313699362930797
49.57671632817311 0.002173145236793156 3.502400644506316
49.57823592267031 0.001404403534988837 3.476799511625749
49.57948392271429 0.0004919746054450355 3.4556555401901976
49.580446846304696 -0.00045252092838657257 3.4391486373225524
49.58129623824781 -0.0015135382127513502 3.425060878416785
49.58193219539736 -0.0025672575203985045 3.4142138313844947
49.58241465432522 -0.0036384201744644545 3.4055309155241416
49.58268367091028 -0.004499128308077044 3.3988601752588767
49.58292334989766 -0.005616834519741216 3.3936821272539444
49.583159347436535 -0.006756941523410865 3.388750738188553
49.58327426016496 -0.00774393612834109 3.3856307508538706
49.58335519933723 -0.008721127188540533 3.3837207278156227
49.583403623423614 -0.009699771283863902 3.383110709139667
49.583265422381714 -0.010091873726144077 3.3845279368419376
49.58328350629373 -0.011055499724211746 3.3863220672560406
49.58331802665012 -0.0127157372516451 3.3897922951068282
49.58320196807558 -0.013771410070197915 3.394949732327562
49.583034100962436 -0.014866298979381617 3.4015982296704945
49.58280428054564 -0.016005331140800688 3.409783711098297
49.58250039193766 -0.017187729731747897 3.419588690035475
49.5819785314752 -0.018249931754859026 3.4322440894390476
49.58163002176205 -0.019662217221848778 3.4445297848998813
49.58104869725276 -0.02094483982323109 3.4599367496125466
49.580359289850236 -0.02225398215147402 3.4774873301835516
49.57954986284799 -0.023586370984837544 3.4973184310686243
49.57860490189365 -0.024935430369855884 3.5195602924775513
49.57750691367684 -0.026289955881289507 3.544330386092924
49.57623867282404 -0.027634358612014888 3.571725102899431
49.57466735054752 -0.029009569265121226 3.6030250538615154
49.572892667574415 -0.03143240319613402 3.637903785176953
49.57100583447815 -0.03301433126565563 3.673860765391089
49.56921122954709 -0.03252397439410694 3.7082419516803977
49.56693164308131 -0.033522780881611244 3.748877404355194
49.56444139917206 -0.03438963007678765 3.7918451344677
49.56174742356985 -0.035101269053436454 3.8369134369625435
49.55886328074416 -0.03563381816613505 3.8837837757401195
49.55581111219285 -0.03596474713371337 3.9320749066116316
49.55262341798546 -0.03607611431422336 3.981304371393874
49.54934408827039 -0.035958564568652956 4.030874948375467
49.54602809550683 -0.03561513240462439 4.080074887509099
49.542739526114495 -0.03506375526732632 4.128097740420264
49.53954809729065 -0.034337687799893615 4.174081326339229
49.53652476646017 -0.03348360397359678 4.217158851932152
49.53373728847228 -0.03255780505826057 4.256511454011716
49.53087598621837 -0.03290388376752971 4.289764481190162

VECTORS L float
-0.006630209457095902 0.0 0.09028627325531878
-0.011962896052891471 0.0 0.16290364715407077
-0.01767688563215188 0.0 0.24071337969261353
-0.023964283830167528 0.0 0.32633145185826773
-0.030867050352230432 0.0 0.42032924611522565
-0.03838693977899553 0.0 0.5227306553057101
-0.04650914576390353 0.0 0.6333340553543402
-0.05520966220322664 0.0 0.751812545330612
-0.0644580953378397 0.0 0.8777522409885768
-0.07421891137844829 0.0 1.010669264189725
-0.0844521214003805 0.0 1.1500190693954149
-0.0951138241590328 0.0 1.2952038354067588
-0.10615683487330946 0.0 1.4455810277658225
-0.11753160508780454 0.0 1.60047592489509
-0.12918821230168462 0.0 1.7592087116875106
-0.1410693627671555 0.0 1.920999195752085
-0.15312191192360802 0.0 2.085123685876303
-0.16529978672331733 0.0 2.2509547865301283
-0.17755897145967015 0.0 2.417893117838682
-0.18985450418986263 0.0 2.585326414641966
-0.20214606634916946 0.0 2.7527056425579413
-0.21439732581211024 0.0 2.919536052177817
-0.2265757484484531 0.0 3.0853746129470907
-0.23865253508378537 0.0 3.2498291547318656
-0.2506031669966068 0.0 3.4125657960758224
-0.262398568417845 0.0 3.5731886003424846
-0.27402510061341134 0.0 3.731511843312919
-0.2854638984862253 0.0 3.887278631246283
-0.2966988903897634 0.0 4.040270109960205
-0.30771554209417756 0.0 4.19028836090383
-0.31850022170810094 0.0 4.337147753038367
-0.32904024165960305 0.0 4.480675514508914
-0.3393145882677747 0.0 4.620585493430086
-0.349313043853845 0.0 4.756738551492072
-0.3590153732370693 0.0 4.888859137964553
-0.3683994931956195 0.0 5.016646536586113
-0.3774414962910785 0.0 5.13977518999213
-0.3861050544459572 0.0 5.257750403896961
-0.3943607997437796 0.0 5.370172263373477
-0.4021719898731269 0.0 5.4765404333432395
-0.4094913326253188 0.0 5.5762109164629665
-0.41626436184183996 0.0 5.668442024781064
-0.422415795002325 0.0 5.75220860543486
-0.42786966122947984 0.0 5.826476131923916
-0.4325221288786769 0.0 5.889830686286807
-0.4362470577678356 0.0 5.9405545660857
-0.43890868516942855 0.0 5.976799034746772
-0.4404043516946478 0.0 5.997166137395431
-0.4407718663095921 0.0 6.002170734183044
-0.4389693250370579 0.0 5.97762479261979
-0.43896944395886334 0.0 5.977626412026639
-0.44077302476399016 0.0 6.002186509330271
-0.44040658585289094 0.0 5.99719656084177
-0.43891166056617004 0.0 5.976839551940835
-0.4362499061303189 0.0 5.940593353402323
-0.43252354129001064 0.0 5.8898499196694685
-0.42786826384287924 0.0 5.8264571031391865
-0.42241073505111354 0.0 5.75213970201021
-0.4162556992535696 0.0 5.668324062774473
-0.40947983373904445 0.0 5.5760543314266995
-0.4021586418256103 0.0 5.476358667522218
-0.39434639394882676 0.0 5.369976093773106
-0.38609011235290935 0.0 5.257546931306139
-0.3774263450981409 0.0 5.139568870002608
-0.36838434301704276 0.0 5.016440230409559
-0.3590004027623318 0.0 4.888655278888658
-0.34929839321329037 0.0 4.756539047729025
-0.3393003793821284 0.0 4.620392005224259