# vtk DataFile Version 4.0
[MyVLM domain - lattices] 
ASCII
DATASET UNSTRUCTURED_GRID
POINTS 302 float
1.2444999999999997 -1.2445 0.0
1.2399745454545452 -1.2399745454545454 0.0
1.2346178849721705 -1.2346178849721707 0.0
1.2284300185528754 -1.2284300185528756 0.0
1.2214109461966602 -1.2214109461966605 0.0
1.2135606679035247 -1.213560667903525 0.0
1.2048791836734691 -1.2048791836734694 0.0
1.1953664935064932 -1.1953664935064934 0.0
1.1850225974025972 -1.1850225974025974 0.0
1.1738474953617808 -1.173847495361781 0.0
1.1618411873840442 -1.1618411873840444 0.0
1.1490036734693874 -1.1490036734693876 0.0
1.1353349536178106 -1.1353349536178108 0.0
1.1208350278293133 -1.1208350278293135 0.0
1.1055038961038959 -1.105503896103896 0.0
1.0893415584415582 -1.0893415584415584 0.0
1.0723480148423004 -1.0723480148423006 0.0
1.054523265306122 -1.0545232653061223 0.0
1.0358673098330238 -1.035867309833024 0.0
1.0163801484230053 -1.0163801484230055 0.0
0.9960617810760664 -0.9960617810760668 0.0
0.9749122077922076 -0.9749122077922077 0.0
0.9529314285714284 -0.9529314285714284 0.0
0.9301194434137288 -0.930119443413729 0.0
0.9064762523191091 -0.9064762523191096 0.0
0.8820018552875695 -0.8820018552875695 0.0
0.8566962523191093 -0.8566962523191094 0.0
0.8305594434137288 -0.8305594434137291 0.0
0.8035914285714284 -0.8035914285714285 0.0
0.7757922077922076 -0.7757922077922077 0.0
0.7471617810760666 -0.7471617810760667 0.0
0.7177001484230053 -0.7177001484230054 0.0
0.6874073098330239 -0.687407309833024 0.0
0.6562832653061222 -0.6562832653061225 0.0
0.6243280148423004 -0.6243280148423005 0.0
0.5915415584415582 -0.5915415584415583 0.0
0.5579238961038958 -0.5579238961038959 0.0
0.5234750278293133 -0.5234750278293134 0.0
0.48819495361781057 -0.48819495361781057 0.0
0.4520836734693877 -0.4520836734693877 0.0
0.4151411873840445 -0.4151411873840446 0.0
0.37736749536178105 -0.37736749536178116 0.0
0.3387625974025974 -0.3387625974025974 0.0
0.2993264935064933 -0.29932649350649343 0.0
0.25905918367346925 -0.25905918367346925 0.0
0.21796066790352486 -0.21796066790352486 0.0
0.17603094619666027 -0.1760309461966605 0.0
0.13327001855287546 -0.13327001855287568 0.0
0.08967788497217066 -0.08967788497217066 0.0
0.045254545454545436 -0.045254545454545436 0.0
0.0 0.0 0.0
0.04525454545454545 0.04525454545454546 0.0
0.08967788497217066 0.08967788497217068 0.0
0.13327001855287568 0.1332700185528757 0.0
0.17603094619666046 0.1760309461966605 0.0
0.21796066790352497 0.21796066790352508 0.0
0.2590591836734693 0.25905918367346936 0.0
0.29932649350649343 0.2993264935064935 0.0
0.3387625974025973 0.33876259740259734 0.0
0.37736749536178094 0.377367495361781 0.0
0.41514118738404443 0.4151411873840445 0.0
0.45208367346938766 0.4520836734693878 0.0
0.48819495361781057 0.4881949536178107 0.0
0.5234750278293133 0.5234750278293134 0.0
0.5579238961038959 0.557923896103896 0.0
0.5915415584415582 0.5915415584415583 0.0
0.6243280148423003 0.6243280148423004 0.0
0.6562832653061222 0.6562832653061225 0.0
0.687407309833024 0.6874073098330241 0.0
0.7177001484230054 0.7177001484230056 0.0
0.7471617810760667 0.7471617810760669 0.0
0.7757922077922076 0.7757922077922077 0.0
0.8035914285714284 0.8035914285714285 0.0
0.8305594434137288 0.830559443413729 0.0
0.8566962523191093 0.8566962523191094 0.0
0.8820018552875692 0.8820018552875695 0.0
0.9064762523191091 0.9064762523191093 0.0
0.9301194434137288 0.9301194434137292 0.0
0.9529314285714284 0.9529314285714284 0.0
0.9749122077922076 0.9749122077922077 0.0
0.9960617810760666 0.9960617810760668 0.0
1.0163801484230053 1.0163801484230055 0.0
1.0358673098330238 1.035867309833024 0.0
1.054523265306122 1.0545232653061223 0.0
1.0723480148423001 1.0723480148423004 0.0
1.0893415584415582 1.0893415584415584 0.0
1.1055038961038959 1.105503896103896 0.0
1.120835027829313 1.1208350278293133 0.0
1.1353349536178106 1.1353349536178106 0.0
1.1490036734693874 1.1490036734693876 0.0
1.1618411873840444 1.1618411873840446 0.0
1.1738474953617808 1.173847495361781 0.0
1.1850225974025972 1.1850225974025972 0.0
1.1953664935064932 1.1953664935064934 0.0
1.2048791836734691 1.2048791836734694 0.0
1.2135606679035245 1.2135606679035247 0.0
1.22141094619666 1.2214109461966602 0.0
1.2284300185528754 1.2284300185528756 0.0
1.2346178849721703 1.2346178849721705 0.0
1.2399745454545452 1.2399745454545454 0.0
1.2444999999999997 1.2445 0.0
1.7422999999999997 -1.2445 0.0
1.7377745454545452 -1.2399745454545454 0.0
1.7324178849721703 -1.2346178849721707 0.0
1.7262300185528754 -1.2284300185528756 0.0
1.7192109461966603 -1.2214109461966605 0.0
1.7113606679035245 -1.213560667903525 0.0
1.7026791836734692 -1.2048791836734694 0.0
1.6931664935064934 -1.1953664935064934 0.0
1.6828225974025972 -1.1850225974025974 0.0
1.6716474953617806 -1.173847495361781 0.0
1.6596411873840444 -1.1618411873840444 0.0
1.6468036734693878 -1.1490036734693876 0.0
1.6331349536178106 -1.1353349536178108 0.0
1.6186350278293133 -1.1208350278293135 0.0
1.603303896103896 -1.105503896103896 0.0
1.5871415584415582 -1.0893415584415584 0.0
1.5701480148423004 -1.0723480148423006 0.0
1.552323265306122 -1.0545232653061223 0.0
1.5336673098330238 -1.035867309833024 0.0
1.5141801484230053 -1.0163801484230055 0.0
1.4938617810760666 -0.9960617810760668 0.0
1.4727122077922075 -0.9749122077922077 0.0
1.4507314285714283 -0.9529314285714284 0.0
1.4279194434137288 -0.930119443413729 0.0
1.4042762523191092 -0.9064762523191096 0.0
1.3798018552875693 -0.8820018552875695 0.0
1.3544962523191093 -0.8566962523191094 0.0
1.328359443413729 -0.8305594434137291 0.0
1.3013914285714283 -0.8035914285714285 0.0
1.2735922077922077 -0.7757922077922077 0.0
1.2449617810760665 -0.7471617810760667 0.0
1.2155001484230055 -0.7177001484230054 0.0
1.1852073098330238 -0.687407309833024 0.0
1.1540832653061224 -0.6562832653061225 0.0
1.1221280148423003 -0.6243280148423005 0.0
1.0893415584415582 -0.5915415584415583 0.0
1.055723896103896 -0.5579238961038959 0.0
1.0212750278293132 -0.5234750278293134 0.0
0.9859949536178108 -0.48819495361781057 0.0
0.9498836734693876 -0.4520836734693877 0.0
0.9129411873840445 -0.4151411873840446 0.0
0.875167495361781 -0.37736749536178116 0.0
0.8365625974025973 -0.3387625974025974 0.0
0.7971264935064933 -0.29932649350649343 0.0
0.7568591836734693 -0.25905918367346925 0.0
0.7157606679035249 -0.21796066790352486 0.0
0.6738309461966603 -0.1760309461966605 0.0
0.6310700185528755 -0.13327001855287568 0.0
0.5874778849721707 -0.08967788497217066 0.0
0.5430545454545455 -0.045254545454545436 0.0
0.4978 0.0 0.0
0.5430545454545455 0.04525454545454546 0.0
0.5874778849721707 0.08967788497217068 0.0
0.6310700185528757 0.1332700185528757 0.0
0.6738309461966605 0.1760309461966605 0.0
0.715760667903525 0.21796066790352508 0.0
0.7568591836734693 0.25905918367346936 0.0
0.7971264935064934 0.2993264935064935 0.0
0.8365625974025973 0.33876259740259734 0.0
0.875167495361781 0.377367495361781 0.0
0.9129411873840445 0.4151411873840445 0.0
0.9498836734693876 0.4520836734693878 0.0
0.9859949536178105 0.4881949536178107 0.0
1.0212750278293132 0.5234750278293134 0.0
1.055723896103896 0.557923896103896 0.0
1.0893415584415582 0.5915415584415583 0.0
1.1221280148423003 0.6243280148423004 0.0
1.1540832653061224 0.6562832653061225 0.0
1.185207309833024 0.6874073098330241 0.0
1.2155001484230055 0.7177001484230056 0.0
1.2449617810760667 0.7471617810760669 0.0
1.2735922077922077 0.7757922077922077 0.0
1.3013914285714283 0.8035914285714285 0.0
1.3283594434137287 0.830559443413729 0.0
1.3544962523191093 0.8566962523191094 0.0
1.3798018552875693 0.8820018552875695 0.0
1.4042762523191092 0.9064762523191093 0.0
1.427919443413729 0.9301194434137292 0.0
1.4507314285714283 0.9529314285714284 0.0
1.4727122077922075 0.9749122077922077 0.0
1.4938617810760666 0.9960617810760668 0.0
1.5141801484230053 1.0163801484230055 0.0
1.5336673098330238 1.035867309833024 0.0
1.552323265306122 1.0545232653061223 0.0
1.5701480148423002 1.0723480148423004 0.0
1.5871415584415582 1.0893415584415584 0.0
1.603303896103896 1.105503896103896 0.0
1.6186350278293131 1.1208350278293133 0.0
1.6331349536178106 1.1353349536178106 0.0
1.6468036734693874 1.1490036734693876 0.0
1.6596411873840444 1.1618411873840446 0.0
1.6716474953617806 1.173847495361781 0.0
1.6828225974025972 1.1850225974025972 0.0
1.6931664935064934 1.1953664935064934 0.0
1.7026791836734692 1.2048791836734694 0.0
1.7113606679035245 1.2135606679035247 0.0
1.71921094619666 1.2214109461966602 0.0
1.7262300185528754 1.2284300185528756 0.0
1.7324178849721703 1.2346178849721705 0.0
1.7377745454545452 1.2399745454545454 0.0
1.7422999999999997 1.2445 0.0
1.6155872727272724 -1.2422372727272726 0.0
1.6106462152133578 -1.237296215213358 0.0
1.604873951762523 -1.2315239517625232 0.0
1.598270482374768 -1.224920482374768 0.0
1.5908358070500925 -1.2174858070500927 0.0
1.582569925788497 -1.2092199257884972 0.0
1.5734728385899812 -1.2001228385899814 0.0
1.5635445454545454 -1.1901945454545453 0.0
1.552785046382189 -1.1794350463821892 0.0
1.5411943413729126 -1.1678443413729127 0.0
1.5287724304267158 -1.155422430426716 0.0
1.5155193135435991 -1.142169313543599 0.0
1.501434990723562 -1.1280849907235622 0.0
1.4865194619666047 -1.1131694619666048 0.0
1.4707727272727271 -1.0974227272727273 0.0
1.4541947866419294 -1.0808447866419293 0.0
1.4367856400742112 -1.0634356400742113 0.0
1.418545287569573 -1.0451952875695731 0.0
1.3994737291280146 -1.0261237291280147 0.0
1.379570964749536 -1.0062209647495362 0.0
1.358836994434137 -0.9854869944341371 0.0
1.337271818181818 -0.9639218181818181 0.0
1.3148754359925787 -0.9415254359925787 0.0
1.291647847866419 -0.9182978478664192 0.0
1.2675890538033394 -0.8942390538033393 0.0
1.2426990538033393 -0.8693490538033395 0.0
1.2169778478664193 -0.8436278478664192 0.0
1.1904254359925788 -0.8170754359925788 0.0
1.163041818181818 -0.7896918181818181 0.0
1.1348269944341371 -0.7614769944341371 0.0
1.105780964749536 -0.7324309647495362 0.0
1.0759037291280147 -0.7025537291280148 0.0
1.0451952875695731 -0.6718452875695733 0.0
1.0136556400742114 -0.6403056400742114 0.0
0.9812847866419293 -0.6079347866419293 0.0
0.9480827272727271 -0.5747327272727272 0.0
0.9140494619666047 -0.5406994619666048 0.0
0.8791849907235622 -0.5058349907235622 0.0
0.8434893135435992 -0.47013931354359917 0.0
0.8069624304267162 -0.43361243042671627 0.0
0.7696043413729128 -0.3962543413729128 0.0
0.7314150463821893 -0.3580650463821894 0.0
0.6923945454545455 -0.3190445454545454 0.0
0.6525428385899814 -0.27919283858998134 0.0
0.6118599257884971 -0.23850992578849706 0.0
0.5703458070500929 -0.19699580705009279 0.0
0.5280004823747682 -0.15465048237476808 0.0
0.4848239517625232 -0.11147395176252317 0.0
0.4408162152133581 -0.06746621521335805 0.0
0.39597727272727273 -0.022627272727272718 0.0
0.39597727272727273 0.02262727272727273 0.0
0.4408162152133581 0.06746621521335806 0.0
0.4848239517625232 0.11147395176252319 0.0
0.528000482374768 0.15465048237476808 0.0
0.5703458070500929 0.19699580705009276 0.0
0.6118599257884971 0.23850992578849717 0.0
0.6525428385899814 0.2791928385899814 0.0
0.6923945454545455 0.3190445454545454 0.0
0.7314150463821891 0.3580650463821891 0.0
0.7696043413729128 0.39625434137291277 0.0
0.8069624304267162 0.43361243042671616 0.0
0.8434893135435992 0.4701393135435992 0.0
0.8791849907235619 0.5058349907235621 0.0
0.9140494619666046 0.5406994619666047 0.0
0.9480827272727271 0.5747327272727272 0.0
0.9812847866419294 0.6079347866419295 0.0
1.0136556400742114 0.6403056400742114 0.0
1.0451952875695731 0.6718452875695732 0.0
1.0759037291280147 0.7025537291280147 0.0
1.105780964749536 0.7324309647495362 0.0
1.1348269944341371 0.7614769944341373 0.0
1.163041818181818 0.789691818181818 0.0
1.1904254359925786 0.8170754359925786 0.0
1.216977847866419 0.843627847866419 0.0
1.2426990538033393 0.8693490538033394 0.0
1.2675890538033392 0.8942390538033393 0.0
1.291647847866419 0.9182978478664192 0.0
1.3148754359925787 0.9415254359925787 0.0
1.3372718181818182 0.9639218181818181 0.0
1.3588369944341372 0.9854869944341373 0.0
1.379570964749536 1.0062209647495362 0.0
1.3994737291280148 1.0261237291280147 0.0
1.418545287569573 1.0451952875695731 0.0
1.4367856400742112 1.0634356400742113 0.0
1.4541947866419291 1.0808447866419293 0.0
1.470772727272727 1.097422727272727 0.0
1.4865194619666047 1.1131694619666048 0.0
1.501434990723562 1.128084990723562 0.0
1.5155193135435991 1.1421693135435993 0.0
1.528772430426716 1.1554224304267162 0.0
1.5411943413729128 1.1678443413729127 0.0
1.5527850463821888 1.179435046382189 0.0
1.5635445454545451 1.1901945454545453 0.0
1.573472838589981 1.2001228385899811 0.0
1.5825699257884969 1.209219925788497 0.0
1.5908358070500925 1.2174858070500927 0.0
1.5982704823747678 1.224920482374768 0.0
1.604873951762523 1.2315239517625232 0.0
1.6106462152133578 1.237296215213358 0.0
1.6155872727272724 1.2422372727272726 0.0

CELLS 200 700
4 0 101 102 1
4 1 102 103 2
4 2 103 104 3
4 3 104 105 4
4 4 105 106 5
4 5 106 107 6
4 6 107 108 7
4 7 108 109 8
4 8 109 110 9
4 9 110 111 10
4 10 111 112 11
4 11 112 113 12
4 12 113 114 13
4 13 114 115 14
4 14 115 116 15
4 15 116 117 16
4 16 117 118 17
4 17 118 119 18
4 18 119 120 19
4 19 120 121 20
4 20 121 122 21
4 21 122 123 22
4 22 123 124 23
4 23 124 125 24
4 24 125 126 25
4 25 126 127 26
4 26 127 128 27
4 27 128 129 28
4 28 129 130 29
4 29 130 131 30
4 30 131 132 31
4 31 132 133 32
4 32 133 134 33
4 33 134 135 34
4 34 135 136 35
4 35 136 137 36
4 36 137 138 37
4 37 138 139 38
4 38 139 140 39
4 39 140 141 40
4 40 141 142 41
4 41 142 143 42
4 42 143 144 43
4 43 144 145 44
4 44 145 146 45
4 45 146 147 46
4 46 147 148 47
4 47 148 149 48
4 48 149 150 49
4 49 150 151 50
4 50 151 152 51
4 51 152 153 52
4 52 153 154 53
4 53 154 155 54
4 54 155 156 55
4 55 156 157 56
4 56 157 158 57
4 57 158 159 58
4 58 159 160 59
4 59 160 161 60
4 60 161 162 61
4 61 162 163 62
4 62 163 164 63
4 63 164 165 64
4 64 165 166 65
4 65 166 167 66
4 66 167 168 67
4 67 168 169 68
4 68 169 170 69
4 69 170 171 70
4 70 171 172 71
4 71 172 173 72
4 72 173 174 73
4 73 174 175 74
4 74 175 176 75
4 75 176 177 76
4 76 177 178 77
4 77 178 179 78
4 78 179 180 79
4 79 180 181 80
4 80 181 182 81
4 81 182 183 82
4 82 183 184 83
4 83 184 185 84
4 84 185 186 85
4 85 186 187 86
4 86 187 188 87
4 87 188 189 88
4 88 189 190 89
4 89 190 191 90
4 90 191 192 91
4 91 192 193 92
4 92 193 194 93
4 93 194 195 94
4 94 195 196 95
4 95 196 197 96
4 96 197 198 97
4 97 198 199 98
4 98 199 200 99
4 99 200 201 100
1 202
1 203
1 204
1 205
1 206
1 207
1 208
1 209
1 210
1 211
1 212
1 213
1 214
1 215
1 216
1 217
1 218
1 219
1 220
1 221
1 222
1 223
1 224
1 225
1 226
1 227
1 228
1 229
1 230
1 231
1 232
1 233
1 234
1 235
1 236
1 237
1 238
1 239
1 240
1 241
1 242
1 243
1 244
1 245
1 246
1 247
1 248
1 249
1 250
1 251
1 252
1 253
1 254
1 255
1 256
1 257
1 258
1 259
1 260
1 261
1 262
1 263
1 264
1 265
1 266
1 267
1 268
1 269
1 270
1 271
1 272
1 273
1 274
1 275
1 276
1 277
1 278
1 279
1 280
1 281
1 282
1 283
1 284
1 285
1 286
1 287
1 288
1 289
1 290
1 291
1 292
1 293
1 294
1 295
1 296
1 297
1 298
1 299
1 300
1 301

CELL_TYPES 200
9
9
9
9
9
9
9
9
9
9
9
9
9
9
9
9
9
9
9
9
9
9
9
9
9
9
9
9
9
9
9
9
9
9
9
9
9
9
9
9
9
9
9
9
9
9
9
9
9
9
9
9
9
9
9
9
9
9
9
9
9
9
9
9
9
9
9
9
9
9
9
9
9
9
9
9
9
9
9
9
9
9
9
9
9
9
9
9
9
9
9
9
9
9
9
9
9
9
9
9
1
1
1
1
1
1
1
1
1
1
1
1
1
1
1
1
1
1
1
1
1
1
1
1
1
1
1
1
1
1
1
1
1
1
1
1
1
1
1
1
1
1
1
1
1
1
1
1
1
1
1
1
1
1
1
1
1
1
1
1
1
1
1
1
1
1
1
1
1
1
1
1
1
1
1
1
1
1
1
1
1
1
1
1
1
1
1
1
1
1
1
1
1
1
1
1
1
1
1
1

CELL_DATA 200

VECTORS Vinf float
49.53907368822662 0.03122721975184104 4.2045299114183985
49.54139941288028 0.032393122354927376 4.170621774899216
49.54399820436364 0.03360977925357886 4.132449204287121
49.546810225528134 0.034825148611425515 4.090755295821129
49.54980153691301 0.0324866882590723 4.046433822703176
49.55287215206326 0.033075544227834514 3.999713080444951
49.55596358208323 0.033465090716363846 3.951875077527476
49.5590140346471 0.03363694855850804 3.9037123844427746
49.56253854466928 0.03656305089043796 3.8574177840343924
49.56535737893229 0.03583247900709309 3.811557710117681
49.56805794710331 0.03512568140405316 3.7665974536602542
49.57061217605481 0.034505780955269016 3.72301199476271
49.572997837834876 0.034039381329401285 3.6812382730194724
49.57519761397367 0.03379479719359954 3.641686146067608
49.577198344991 0.033841095386675686 3.6047435395613583
49.57766558768087 0.02849693055793909 3.5686038199839873
49.57911021767002 0.02737036674225271 3.5371099562795507
49.57926932141739 0.022334326036489313 3.4978817320346582
49.58014872850955 0.02262436887152238 3.4752021967453572
49.5809232173985 0.022638104613506835 3.4540307168042133
49.58158953417994 0.022357266813930764 3.434515934808499
49.58214498738457 0.021762200286477178 3.4167479205942413
49.58258771544669 0.020832747684263804 3.400768962578315
49.582917635329224 0.019548440530417075 3.3865846743488404
49.58313755069777 0.017887586657322683 3.374175610706726
49.583253595375254 0.01582532407765248 3.363510056685591
49.58327419933065 0.013331322400753916 3.354557076988429
49.58602016249208 0.014541226620520063 3.348525478583554
49.58612935635056 0.013509585192317356 3.34278690459026
49.58513897531483 0.014029310494099799 3.3396763719176006
49.58523286500461 0.012775013141713707 3.337457646337826
49.58528688733176 0.011492720263511348 3.336322640837251
49.585295778287545 0.010194755924703322 3.3363654874960407
49.58525565721698 0.008892981595795149 3.3376225550741454
49.585163235934324 0.007599388161328353 3.3400646835866437
49.585016506739485 0.006326368269954103 3.3436283547250376
49.585226924406015 0.005533659376869677 3.346995041390671
49.58257470570641 0.0047884162230019895 3.353136314189379
49.58204169118705 0.0036406855293708578 3.3619788501640224
49.581447150661496 0.002503826492004811 3.37234210698974
49.58076052270052 0.0013851135123885898 3.3847329773320842
49.57994079424058 0.0003029483461795687 3.399771539715639
49.57894365181777 -0.0007059170471137912 3.418133069480046
49.5798135906111 -0.0013896303153530785 3.4367926440371153
49.578195700758556 -0.0022782462186275447 3.4626220135627883
49.576292737080884 -0.002870851832708537 3.491940125596242
49.574333520754834 -0.0029309966457427695 3.5205476536540483
49.572831397392456 -0.002310778667425599 3.540659448658495
49.572237089404446 -0.0012795942980044263 3.5463607731685034
49.57236542678548 -0.0004433935733275509 3.5412214506422237
49.572384961310576 0.0006132276969167509 3.5413002595199083
49.572259862411464 0.0013555351830287106 3.5463728897202045
49.57285497850964 0.00228476222874171 3.540644148989491
49.574350988344264 0.0027924917281106965 3.520539649298343
49.57629032018888 0.002614582511803378 3.4919731392345112
49.57815923135892 0.0019084795677496668 3.4627456191848123
49.57973493010262 0.0009147877830669043 3.4370785534154416
49.57898309933539 0.000814077631259815 3.4180575664075303
49.57999367036692 -0.00022622196930218312 3.3997779215532544
49.580831435956874 -0.001318802308792431 3.384736258016564
49.581536854269736 -0.0024314526634752385 3.3722917358702316
49.58214758421556 -0.0035474804223238014 3.3618451091258135
49.58269361281855 -0.004660234289351879 3.3528876038959696
49.585256542617635 -0.005473941226801287 3.3468020290987197
49.58504602111855 -0.00623719308565745 3.3432386982193463
49.58519899550601 -0.007523543534661263 3.3396295515336627
49.58529850943139 -0.008827848470031015 3.337134608762786
49.585346099345344 -0.010138912189955284 3.335829080968104
49.585343762463246 -0.011445340030018823 3.335763600150852
49.58529368268277 -0.012735283877007572 3.3369282925114057
49.58519942611857 -0.01399598900260295 3.339254616195337
49.586194775045314 -0.013424708946746295 3.3421275235230516
49.58609364313119 -0.014454896492733614 3.34780927909114
49.583279516150654 -0.013170640776322028 3.353719721805717
49.583270994198294 -0.01566363685707842 3.362612442172557
49.583166483727865 -0.01772549298734723 3.3732177338890463
49.582957610203295 -0.01938643198745273 3.385566143388856
49.582638311243315 -0.02067123527350872 3.3996891560854325
49.58220585279784 -0.021601545148921132 3.4156061900764647
49.581660369205196 -0.022197804845464728 3.4333117354458325
49.58100374813448 -0.022480158065227202 3.452763664300633
49.58023868481744 -0.022468245414074658 3.4738720975244903
49.57936842227785 -0.022180310402356775 3.4964886172062783
49.579262941013404 -0.02728013741992856 3.5357689845393923
49.57782539162148 -0.028406662940749162 3.5672039735839647
49.57732504445007 -0.033775032183357465 3.603087720270476
49.57533819672395 -0.033729224492092875 3.639973652483466
49.573152128239926 -0.033974065744800434 3.6794681557385625
49.570779945297545 -0.03444054384103391 3.721183567474628
49.56823891113511 -0.0350604018975047 3.7647103227783436
49.565551192992466 -0.03576709205154623 3.8096118459574853
49.56274479661343 -0.036497540749203757 3.8554136085557076
49.55923054264332 -0.03354991004183108 3.9018412203490596
49.556186884452465 -0.0333791538338052 3.9499473990215974
49.55310201618684 -0.03299086342943128 3.997730852240725
49.55003765590196 -0.03240338542123977 4.0443996488199145
49.54705247107133 -0.0347411039114616 4.088627487681139
49.54424585492232 -0.03352764941358241 4.130278094704803
49.54165195090758 -0.03231278767727535 4.168411531693593
49.53933052877238 -0.031148517357708305 4.20228524905292
49.53907368822662 0.03122721975184104 4.2045299114183985
49.54139941288028 0.032393122354927376 4.170621774899216
49.54399820436364 0.03360977925357886 4.132449204287121
49.546810225528134 0.034825148611425515 4.090755295821129
49.54980153691301 0.0324866882590723 4.046433822703176
49.55287215206326 0.033075544227834514 3.999713080444951
49.55596358208323 0.033465090716363846 3.951875077527476
49.5590140346471 0.03363694855850804 3.9037123844427746
49.56253854466928 0.03656305089043796 3.8574177840343924
49.56535737893229 0.03583247900709309 3.811557710117681
49.56805794710331 0.03512568140405316 3.7665974536602542
49.57061217605481 0.034505780955269016 3.72301199476271
49.572997837834876 0.034039381329401285 3.6812382730194724
49.57519761397367 0.03379479719359954 3.641686146067608
49.577198344991 0.033841095386675686 3.6047435395613583
49.57766558768087 0.02849693055793909 3.5686038199839873
49.57911021767002 0.02737036674225271 3.5371099562795507
49.57926932141739 0.022334326036489313 3.4978817320346582
49.58014872850955 0.02262436887152238 3.4752021967453572
49.5809232173985 0.022638104613506835 3.4540307168042133
49.58158953417994 0.022357266813930764 3.434515934808499
49.58214498738457 0.021762200286477178 3.4167479205942413
49.58258771544669 0.020832747684263804 3.400768962578315
49.582917635329224 0.019548440530417075 3.3865846743488404
49.58313755069777 0.017887586657322683 3.374175610706726
49.583253595375254 0.01582532407765248 3.363510056685591
49.58327419933065 0.013331322400753916 3.354557076988429
49.58602016249208 0.014541226620520063 3.348525478583554
49.58612935635056 0.013509585192317356 3.34278690459026
49.58513897531483 0.014029310494099799 3.3396763719176006
49.58523286500461 0.012775013141713707 3.337457646337826
49.58528688733176 0.011492720263511348 3.336322640837251
49.585295778287545 0.010194755924703322 3.3363654874960407
49.58525565721698 0.008892981595795149 3.3376225550741454
49.585163235934324 0.007599388161328353 3.3400646835866437
49.585016506739485 0.006326368269954103 3.3436283547250376
49.585226924406015 0.005533659376869677 3.346995041390671
49.58257470570641 0.0047884162230019895 3.353136314189379
49.58204169118705 0.0036406855293708578 3.3619788501640224
49.581447150661496 0.002503826492004811 3.37234210698974
49.58076052270052 0.0013851135123885898 3.3847329773320842
49.57994079424058 0.0003029483461795687 3.399771539715639
49.57894365181777 -0.0007059170471137912 3.418133069480046
49.5798135906111 -0.0013896303153530785 3.4367926440371153
49.578195700758556 -0.0022782462186275447 3.4626220135627883
49.576292737080884 -0.002870851832708537 3.491940125596242
49.574333520754834 -0.0029309966457427695 3.5205476536540483
49.572831397392456 -0.002310778667425599 3.540659448658495
49.572237089404446 -0.0012795942980044263 3.5463607731685034
49.57236542678548 -0.0004433935733275509 3.5412214506422237
49.572384961310576 0.0006132276969167509 3.5413002595199083
49.572259862411464 0.0013555351830287106 3.5463728897202045
49.57285497850964 0.00228476222874171 3.540644148989491
49.574350988344264 0.0027924917281106965 3.520539649298343
49.57629032018888 0.002614582511803378 3.4919731392345112
49.57815923135892 0.0019084795677496668 3.4627456191848123
49.57973493010262 0.0009147877830669043 3.4370785534154416
49.57898309933539 0.000814077631259815 3.4180575664075303
49.57999367036692 -0.00022622196930218312 3.3997779215532544
49.580831435956874 -0.001318802308792431 3.384736258016564
49.581536854269736 -0.0024314526634752385 3.3722917358702316
49.58214758421556 -0.0035474804223238014 3.3618451091258135
49.58269361281855 -0.004660234289351879 3.3528876038959696
49.585256542617635 -0.005473941226801287 3.3468020290987197
49.58504602111855 -0.00623719308565745 3.3432386982193463
49.58519899550601 -0.007523543534661263 3.3396295515336627
49.58529850943139 -0.008827848470031015 3.337134608762786
49.585346099345344 -0.010138912189955284 3.335829080968104
49.585343762463246 -0.011445340030018823 3.335763600150852
49.58529368268277 -0.012735283877007572 3.3369282925114057
49.58519942611857 -0.01399598900260295 3.339254616195337
49.586194775045314 -0.013424708946746295 3.3421275235230516
49.58609364313119 -0.014454896492733614 3.34780927909114
49.583279516150654 -0.013170640776322028 3.353719721805717
49.583270994198294 -0.01566363685707842 3.362612442172557
49.583166483727865 -0.01772549298734723 3.3732177338890463
49.582957610203295 -0.01938643198745273 3.385566143388856
49.582638311243315 -0.02067123527350872 3.3996891560854325
49.58220585279784 -0.021601545148921132 3.4156061900764647
49.581660369205196 -0.022197804845464728 3.4333117354458325
49.58100374813448 -0.022480158065227202 3.452763664300633
49.58023868481744 -0.022468245414074658 3.4738720975244903
49.57936842227785 -0.022180310402356775 3.4964886172062783
49.579262941013404 -0.02728013741992856 3.5357689845393923
49.57782539162148 -0.028406662940749162 3.5672039735839647
49.57732504445007 -0.033775032183357465 3.603087720270476
49.57533819672395 -0.033729224492092875 3.639973652483466
49.573152128239926 -0.033974065744800434 3.6794681557385625
49.570779945297545 -0.03444054384103391 3.721183567474628
49.56823891113511 -0.0350604018975047 3.7647103227783436
49.565551192992466 -0.03576709205154623 3.8096118459574853
49.56274479661343 -0.036497540749203757 3.8554136085557076
49.55923054264332 -0.03354991004183108 3.9018412203490596
49.556186884452465 -0.0333791538338052 3.9499473990215974
49.55310201618684 -0.03299086342943128 3.997730852240725
49.55003765590196 -0.03240338542123977 4.0443996488199145
49.54705247107133 -0.0347411039114616 4.088627487681139
49.54424585492232 -0.03352764941358241 4.130278094704803
49.54165195090758 -0.03231278767727535 4.168411531693593
49.53933052877238 -0.031148517357708305 4.20228524905292

VECTORS L float
-0.006503075309074617 0.0 0.08855503557683984
-0.011735660399985824 0.0 0.15980928635229658
-0.01734332852260647 0.0 0.2361711961411663
-0.023514547287743645 0.0 0.3202072054638001
-0.03029079204820465 0.0 0.41248210115855544
-0.03767391649677829 0.0 0.5130211257181082
-0.04564965934097166 0.0 0.6216300772911717
-0.0541948455097148 0.0 0.7379933714587505
-0.06328035975216025 0.0 0.861714533944893
-0.07287110414184496 0.0 0.9923156219334867
-0.08292719230740958 0.0 1.1292534863962824
-0.09340515318667668 0.0 1.2719361641043883
-0.10425846147891357 0.0 1.419730101013634
-0.11543820649077202 0.0 1.5719692602132225
-0.12689374425965366 0.0 1.7279640021562466
-0.13857272169011117 0.0 1.8870014133349347
-0.15042580477530088 0.0 2.0484096924055297
-0.16239942810057348 0.0 2.2114594172139723
-0.17446780805948414 0.0 2.3757994818484436
-0.18658470665599322 0.0 2.540800244610256
-0.19870552446767412 0.0 2.7058543769276215
-0.210792492160544 0.0 2.8704475583358984
-0.2228128568848841 0.0 3.0341337798878985
-0.23473802681169384 0.0 3.1965236949569853
-0.24654310429112147 0.0 3.357278262064531
-0.25820649546620256 0.0 3.5161034288305735
-0.26970963443298024 0.0 3.6727463757493726
-0.2810375640936487 0.0 3.827003425904184
-0.29217104948335987 0.0 3.9786126489135345
-0.3030976083864567 0.0 4.127404069342874
-0.313798003472119 0.0 4.27311572459232
-0.32425727136278476 0.0 4.41554385223112
-0.33446040641702696 0.0 4.554484114304187
-0.34439109895365083 0.0 4.689714415213699
-0.35403071824490995 0.0 4.820981052721872
-0.36335740017339924 0.0 4.947986294201809
-0.3723430553764596 0.0 5.070347635316503
-0.38097703925539084 0.0 5.187920124212901
-0.38922249588931407 0.0 5.300201878746091
-0.39703282379759963 0.0 5.406558307499095
-0.4043573491857987 0.0 5.5062993646925005
-0.4111364731034609 0.0 5.598613467048145
-0.4172966493789346 0.0 5.682499106273783
-0.42273540272367527 0.0 5.756560834463379
-0.4273925727070069 0.0 5.819979422432955
-0.4311337030400719 0.0 5.870923923918255
-0.43382097258444496 0.0 5.90751757212258
-0.43535969199976565 0.0 5.928470943579982
-0.4357767640490111 0.0 5.934150384214399
-0.43405946754111346 0.0 5.910765255467599
-0.4340572931708648 0.0 5.910735646178826
-0.4357720273952186 0.0 5.9340858832629
-0.43535252628723425 0.0 5.928373365142398
-0.43381178217625904 0.0 5.9073924225763745
-0.43112285451567495 0.0 5.870776195125604
-0.4273801947105529 0.0 5.819810866193905
-0.4227208725208457 0.0 5.756362970750082
-0.41727602630020544 0.0 5.6822182733779965
-0.4111120853799825 0.0 5.598281369445454
-0.40432903373210893 0.0 5.50591378158148
-0.39700024016871527 0.0 5.406114602901202
-0.3891854409342706 0.0 5.299697286271575
-0.38093552070131176 0.0 5.187354749085162
-0.3722973268275592 0.0 5.0697249309678245
-0.3633064980564322 0.0 4.947293139261305
-0.3539759996343534 0.0 4.820235927027604
-0.34433323542444394 0.0 4.68892646387622