# vtk DataFile Version 4.0
[MyVLM domain - lattices] 
ASCII
DATASET UNSTRUCTURED_GRID
POINTS 302 float
1.2444999999999997 -1.2445 0.0
1.2399745454545452 -1.2399745454545454 0.0
1.2346178849721705 -1.2346178849721707 0.0
1.2284300185528754 -1.2284300185528756 0.0
1.2214109461966602 -1.2214109461966605 0.0
1.2135606679035247 -1.213560667903525 0.0
1.2048791836734691 -1.2048791836734694 0.0
1.1953664935064932 -1.1953664935064934 0.0
1.1850225974025972 -1.1850225974025974 0.0
1.1738474953617808 -1.173847495361781 0.0
1.1618411873840442 -1.1618411873840444 0.0
1.1490036734693874 -1.1490036734693876 0.0
1.1353349536178106 -1.1353349536178108 0.0
1.1208350278293133 -1.1208350278293135 0.0
1.1055038961038959 -1.105503896103896 0.0
1.0893415584415582 -1.0893415584415584 0.0
1.0723480148423004 -1.0723480148423006 0.0
1.054523265306122 -1.0545232653061223 0.0
1.0358673098330238 -1.035867309833024 0.0
1.0163801484230053 -1.0163801484230055 0.0
0.9960617810760664 -0.9960617810760668 0.0
0.9749122077922076 -0.9749122077922077 0.0
0.9529314285714284 -0.9529314285714284 0.0
0.9301194434137288 -0.930119443413729 0.0
0.9064762523191091 -0.9064762523191096 0.0
0.8820018552875695 -0.8820018552875695 0.0
0.8566962523191093 -0.8566962523191094 0.0
0.8305594434137288 -0.8305594434137291 0.0
0.8035914285714284 -0.8035914285714285 0.0
0.7757922077922076 -0.7757922077922077 0.0
0.7471617810760666 -0.7471617810760667 0.0
0.7177001484230053 -0.7177001484230054 0.0
0.6874073098330239 -0.687407309833024 0.0
0.6562832653061222 -0.6562832653061225 0.0
0.6243280148423004 -0.6243280148423005 0.0
0.5915415584415582 -0.5915415584415583 0.0
0.5579238961038958 -0.5579238961038959 0.0
0.5234750278293133 -0.5234750278293134 0.0
0.48819495361781057 -0.48819495361781057 0.0
0.4520836734693877 -0.4520836734693877 0.0
0.4151411873840445 -0.4151411873840446 0.0
0.37736749536178105 -0.37736749536178116 0.0
0.3387625974025974 -0.3387625974025974 0.0
0.2993264935064933 -0.29932649350649343 0.0
0.25905918367346925 -0.25905918367346925 0.0
0.21796066790352486 -0.21796066790352486 0.0
0.17603094619666027 -0.1760309461966605 0.0
0.13327001855287546 -0.13327001855287568 0.0
0.08967788497217066 -0.08967788497217066 0.0
0.045254545454545436 -0.045254545454545436 0.0
0.0 0.0 0.0
0.04525454545454545 0.04525454545454546 0.0
0.08967788497217066 0.08967788497217068 0.0
0.13327001855287568 0.1332700185528757 0.0
0.17603094619666046 0.1760309461966605 0.0
0.21796066790352497 0.21796066790352508 0.0
0.2590591836734693 0.25905918367346936 0.0
0.29932649350649343 0.2993264935064935 0.0
0.3387625974025973 0.33876259740259734 0.0
0.37736749536178094 0.377367495361781 0.0
0.41514118738404443 0.4151411873840445 0.0
0.45208367346938766 0.4520836734693878 0.0
0.48819495361781057 0.4881949536178107 0.0
0.5234750278293133 0.5234750278293134 0.0
0.5579238961038959 0.557923896103896 0.0
0.5915415584415582 0.5915415584415583 0.0
0.6243280148423003 0.6243280148423004 0.0
0.6562832653061222 0.6562832653061225 0.0
0.687407309833024 0.6874073098330241 0.0
0.7177001484230054 0.7177001484230056 0.0
0.7471617810760667 0.7471617810760669 0.0
0.7757922077922076 0.7757922077922077 0.0
0.8035914285714284 0.8035914285714285 0.0
0.8305594434137288 0.830559443413729 0.0
0.8566962523191093 0.8566962523191094 0.0
0.8820018552875692 0.8820018552875695 0.0
0.9064762523191091 0.9064762523191093 0.0
0.9301194434137288 0.9301194434137292 0.0
0.9529314285714284 0.9529314285714284 0.0
0.9749122077922076 0.9749122077922077 0.0
0.9960617810760666 0.9960617810760668 0.0
1.0163801484230053 1.0163801484230055 0.0
1.0358673098330238 1.035867309833024 0.0
1.054523265306122 1.0545232653061223 0.0
1.0723480148423001 1.0723480148423004 0.0
1.0893415584415582 1.0893415584415584 0.0
1.1055038961038959 1.105503896103896 0.0
1.120835027829313 1.1208350278293133 0.0
1.1353349536178106 1.1353349536178106 0.0
1.1490036734693874 1.1490036734693876 0.0
1.1618411873840444 1.1618411873840446 0.0
1.1738474953617808 1.173847495361781 0.0
1.1850225974025972 1.1850225974025972 0.0
1.1953664935064932 1.1953664935064934 0.0
1.2048791836734691 1.2048791836734694 0.0
1.2135606679035245 1.2135606679035247 0.0
1.22141094619666 1.2214109461966602 0.0
1.2284300185528754 1.2284300185528756 0.0
1.2346178849721703 1.2346178849721705 0.0
1.2399745454545452 1.2399745454545454 0.0
1.2444999999999997 1.2445 0.0
1.7422999999999997 -1.2445 0.0
1.7377745454545452 -1.2399745454545454 0.0
1.7324178849721703 -1.2346178849721707 0.0
1.7262300185528754 -1.2284300185528756 0.0
1.7192109461966603 -1.2214109461966605 0.0
1.7113606679035245 -1.213560667903525 0.0
1.7026791836734692 -1.2048791836734694 0.0
1.6931664935064934 -1.1953664935064934 0.0
1.6828225974025972 -1.1850225974025974 0.0
1.6716474953617806 -1.173847495361781 0.0
1.6596411873840444 -1.1618411873840444 0.0
1.6468036734693878 -1.1490036734693876 0.0
1.6331349536178106 -1.1353349536178108 0.0
1.6186350278293133 -1.1208350278293135 0.0
1.603303896103896 -1.105503896103896 0.0
1.5871415584415582 -1.0893415584415584 0.0
1.5701480148423004 -1.0723480148423006 0.0
1.552323265306122 -1.0545232653061223 0.0
1.5336673098330238 -1.035867309833024 0.0
1.5141801484230053 -1.0163801484230055 0.0
1.4938617810760666 -0.9960617810760668 0.0
1.4727122077922075 -0.9749122077922077 0.0
1.4507314285714283 -0.9529314285714284 0.0
1.4279194434137288 -0.930119443413729 0.0
1.4042762523191092 -0.9064762523191096 0.0
1.3798018552875693 -0.8820018552875695 0.0
1.3544962523191093 -0.8566962523191094 0.0
1.328359443413729 -0.8305594434137291 0.0
1.3013914285714283 -0.8035914285714285 0.0
1.2735922077922077 -0.7757922077922077 0.0
1.2449617810760665 -0.7471617810760667 0.0
1.2155001484230055 -0.7177001484230054 0.0
1.1852073098330238 -0.687407309833024 0.0
1.1540832653061224 -0.6562832653061225 0.0
1.1221280148423003 -0.6243280148423005 0.0
1.0893415584415582 -0.5915415584415583 0.0
1.055723896103896 -0.5579238961038959 0.0
1.0212750278293132 -0.5234750278293134 0.0
0.9859949536178108 -0.48819495361781057 0.0
0.9498836734693876 -0.4520836734693877 0.0
0.9129411873840445 -0.4151411873840446 0.0
0.875167495361781 -0.37736749536178116 0.0
0.8365625974025973 -0.3387625974025974 0.0
0.7971264935064933 -0.29932649350649343 0.0
0.7568591836734693 -0.25905918367346925 0.0
0.7157606679035249 -0.21796066790352486 0.0
0.6738309461966603 -0.1760309461966605 0.0
0.6310700185528755 -0.13327001855287568 0.0
0.5874778849721707 -0.08967788497217066 0.0
0.5430545454545455 -0.045254545454545436 0.0
0.4978 0.0 0.0
0.5430545454545455 0.04525454545454546 0.0
0.5874778849721707 0.08967788497217068 0.0
0.6310700185528757 0.1332700185528757 0.0
0.6738309461966605 0.1760309461966605 0.0
0.715760667903525 0.21796066790352508 0.0
0.7568591836734693 0.25905918367346936 0.0
0.7971264935064934 0.2993264935064935 0.0
0.8365625974025973 0.33876259740259734 0.0
0.875167495361781 0.377367495361781 0.0
0.9129411873840445 0.4151411873840445 0.0
0.9498836734693876 0.4520836734693878 0.0
0.9859949536178105 0.4881949536178107 0.0
1.0212750278293132 0.5234750278293134 0.0
1.055723896103896 0.557923896103896 0.0
1.0893415584415582 0.5915415584415583 0.0
1.1221280148423003 0.6243280148423004 0.0
1.1540832653061224 0.6562832653061225 0.0
1.185207309833024 0.6874073098330241 0.0
1.2155001484230055 0.7177001484230056 0.0
1.2449617810760667 0.7471617810760669 0.0
1.2735922077922077 0.7757922077922077 0.0
1.3013914285714283 0.8035914285714285 0.0
1.3283594434137287 0.830559443413729 0.0
1.3544962523191093 0.8566962523191094 0.0
1.3798018552875693 0.8820018552875695 0.0
1.4042762523191092 0.9064762523191093 0.0
1.427919443413729 0.9301194434137292 0.0
1.4507314285714283 0.9529314285714284 0.0
1.4727122077922075 0.9749122077922077 0.0
1.4938617810760666 0.9960617810760668 0.0
1.5141801484230053 1.0163801484230055 0.0
1.5336673098330238 1.035867309833024 0.0
1.552323265306122 1.0545232653061223 0.0
1.5701480148423002 1.0723480148423004 0.0
1.5871415584415582 1.0893415584415584 0.0
1.603303896103896 1.105503896103896 0.0
1.6186350278293131 1.1208350278293133 0.0
1.6331349536178106 1.1353349536178106 0.0
1.6468036734693874 1.1490036734693876 0.0
1.6596411873840444 1.1618411873840446 0.0
1.6716474953617806 1.173847495361781 0.0
1.6828225974025972 1.1850225974025972 0.0
1.6931664935064934 1.1953664935064934 0.0
1.7026791836734692 1.2048791836734694 0.0
1.7113606679035245 1.2135606679035247 0.0
1.71921094619666 1.2214109461966602 0.0
1.7262300185528754 1.2284300185528756 0.0
1.7324178849721703 1.2346178849721705 0.0
1.7377745454545452 1.2399745454545454 0.0
1.7422999999999997 1.2445 0.0
1.6155872727272724 -1.2422372727272726 0.0
1.6106462152133578 -1.237296215213358 0.0
1.604873951762523 -1.2315239517625232 0.0
1.598270482374768 -1.224920482374768 0.0
1.5908358070500925 -1.2174858070500927 0.0
1.582569925788497 -1.2092199257884972 0.0
1.5734728385899812 -1.2001228385899814 0.0
1.5635445454545454 -1.1901945454545453 0.0
1.552785046382189 -1.1794350463821892 0.0
1.5411943413729126 -1.1678443413729127 0.0
1.5287724304267158 -1.155422430426716 0.0
1.5155193135435991 -1.142169313543599 0.0
1.501434990723562 -1.1280849907235622 0.0
1.4865194619666047 -1.1131694619666048 0.0
1.4707727272727271 -1.0974227272727273 0.0
1.4541947866419294 -1.0808447866419293 0.0
1.4367856400742112 -1.0634356400742113 0.0
1.418545287569573 -1.0451952875695731 0.0
1.3994737291280146 -1.0261237291280147 0.0
1.379570964749536 -1.0062209647495362 0.0
1.358836994434137 -0.9854869944341371 0.0
1.337271818181818 -0.9639218181818181 0.0
1.3148754359925787 -0.9415254359925787 0.0
1.291647847866419 -0.9182978478664192 0.0
1.2675890538033394 -0.8942390538033393 0.0
1.2426990538033393 -0.8693490538033395 0.0
1.2169778478664193 -0.8436278478664192 0.0
1.1904254359925788 -0.8170754359925788 0.0
1.163041818181818 -0.7896918181818181 0.0
1.1348269944341371 -0.7614769944341371 0.0
1.105780964749536 -0.7324309647495362 0.0
1.0759037291280147 -0.7025537291280148 0.0
1.0451952875695731 -0.6718452875695733 0.0
1.0136556400742114 -0.6403056400742114 0.0
0.9812847866419293 -0.6079347866419293 0.0
0.9480827272727271 -0.5747327272727272 0.0
0.9140494619666047 -0.5406994619666048 0.0
0.8791849907235622 -0.5058349907235622 0.0
0.8434893135435992 -0.47013931354359917 0.0
0.8069624304267162 -0.43361243042671627 0.0
0.7696043413729128 -0.3962543413729128 0.0
0.7314150463821893 -0.3580650463821894 0.0
0.6923945454545455 -0.3190445454545454 0.0
0.6525428385899814 -0.27919283858998134 0.0
0.6118599257884971 -0.23850992578849706 0.0
0.5703458070500929 -0.19699580705009279 0.0
0.5280004823747682 -0.15465048237476808 0.0
0.4848239517625232 -0.11147395176252317 0.0
0.4408162152133581 -0.06746621521335805 0.0
0.39597727272727273 -0.022627272727272718 0.0
0.39597727272727273 0.02262727272727273 0.0
0.4408162152133581 0.06746621521335806 0.0
0.4848239517625232 0.11147395176252319 0.0
0.528000482374768 0.15465048237476808 0.0
0.5703458070500929 0.19699580705009276 0.0
0.6118599257884971 0.23850992578849717 0.0
0.6525428385899814 0.2791928385899814 0.0
0.6923945454545455 0.3190445454545454 0.0
0.7314150463821891 0.3580650463821891 0.0
0.7696043413729128 0.39625434137291277 0.0
0.8069624304267162 0.43361243042671616 0.0
0.8434893135435992 0.4701393135435992 0.0
0.8791849907235619 0.5058349907235621 0.0
0.9140494619666046 0.5406994619666047 0.0
0.9480827272727271 0.5747327272727272 0.0
0.9812847866419294 0.6079347866419295 0.0
1.0136556400742114 0.6403056400742114 0.0
1.0451952875695731 0.6718452875695732 0.0
1.0759037291280147 0.7025537291280147 0.0
1.105780964749536 0.7324309647495362 0.0
1.1348269944341371 0.7614769944341373 0.0
1.163041818181818 0.789691818181818 0.0
1.1904254359925786 0.8170754359925786 0.0
1.216977847866419 0.843627847866419 0.0
1.2426990538033393 0.8693490538033394 0.0
1.2675890538033392 0.8942390538033393 0.0
1.291647847866419 0.9182978478664192 0.0
1.3148754359925787 0.9415254359925787 0.0
1.3372718181818182 0.9639218181818181 0.0
1.3588369944341372 0.9854869944341373 0.0
1.379570964749536 1.0062209647495362 0.0
1.3994737291280148 1.0261237291280147 0.0
1.418545287569573 1.0451952875695731 0.0
1.4367856400742112 1.0634356400742113 0.0
1.4541947866419291 1.0808447866419293 0.0
1.470772727272727 1.097422727272727 0.0
1.4865194619666047 1.1131694619666048 0.0
1.501434990723562 1.128084990723562 0.0
1.5155193135435991 1.1421693135435993 0.0
1.528772430426716 1.1554224304267162 0.0
1.5411943413729128 1.1678443413729127 0.0
1.5527850463821888 1.179435046382189 0.0
1.5635445454545451 1.1901945454545453 0.0
1.573472838589981 1.2001228385899811 0.0
1.5825699257884969 1.209219925788497 0.0
1.5908358070500925 1.2174858070500927 0.0
1.5982704823747678 1.224920482374768 0.0
1.604873951762523 1.2315239517625232 0.0
1.6106462152133578 1.237296215213358 0.0
1.6155872727272724 1.2422372727272726 0.0

CELLS 200 700
4 0 101 102 1
4 1 102 103 2
4 2 103 104 3
4 3 104 105 4
4 4 105 106 5
4 5 106 107 6
4 6 107 108 7
4 7 108 109 8
4 8 109 110 9
4 9 110 111 10
4 10 111 112 11
4 11 112 113 12
4 12 113 114 13
4 13 114 115 14
4 14 115 116 15
4 15 116 117 16
4 16 117 118 17
4 17 118 119 18
4 18 119 120 19
4 19 120 121 20
4 20 121 122 21
4 21 122 123 22
4 22 123 124 23
4 23 124 125 24
4 24 125 126 25
4 25 126 127 26
4 26 127 128 27
4 27 128 129 28
4 28 129 130 29
4 29 130 131 30
4 30 131 132 31
4 31 132 133 32
4 32 133 134 33
4 33 134 135 34
4 34 135 136 35
4 35 136 137 36
4 36 137 138 37
4 37 138 139 38
4 38 139 140 39
4 39 140 141 40
4 40 141 142 41
4 41 142 143 42
4 42 143 144 43
4 43 144 145 44
4 44 145 146 45
4 45 146 147 46
4 46 147 148 47
4 47 148 149 48
4 48 149 150 49
4 49 150 151 50
4 50 151 152 51
4 51 152 153 52
4 52 153 154 53
4 53 154 155 54
4 54 155 156 55
4 55 156 157 56
4 56 157 158 57
4 57 158 159 58
4 58 159 160 59
4 59 160 161 60
4 60 161 162 61
4 61 162 163 62
4 62 163 164 63
4 63 164 165 64
4 64 165 166 65
4 65 166 167 66
4 66 167 168 67
4 67 168 169 68
4 68 169 170 69
4 69 170 171 70
4 70 171 172 71
4 71 172 173 72
4 72 173 174 73
4 73 174 175 74
4 74 175 176 75
4 75 176 177 76
4 76 177 178 77
4 77 178 179 78
4 78 179 180 79
4 79 180 181 80
4 80 181 182 81
4 81 182 183 82
4 82 183 184 83
4 83 184 185 84
4 84 185 186 85
4 85 186 187 86
4 86 187 188 87
4 87 188 189 88
4 88 189 190 89
4 89 190 191 90
4 90 191 192 91
4 91 192 193 92
4 92 193 194 93
4 93 194 195 94
4 94 195 196 95
4 95 196 197 96
4 96 197 198 97
4 97 198 199 98
4 98 199 200 99
4 99 200 201 100
1 202
1 203
1 204
1 205
1 206
1 207
1 208
1 209
1 210
1 211
1 212
1 213
1 214
1 215
1 216
1 217
1 218
1 219
1 220
1 221
1 222
1 223
1 224
1 225
1 226
1 227
1 228
1 229
1 230
1 231
1 232
1 233
1 234
1 235
1 236
1 237
1 238
1 239
1 240
1 241
1 242
1 243
1 244
1 245
1 246
1 247
1 248
1 249
1 250
1 251
1 252
1 253
1 254
1 255
1 256
1 257
1 258
1 259
1 260
1 261
1 262
1 263
1 264
1 265
1 266
1 267
1 268
1 269
1 270
1 271
1 272
1 273
1 274
1 275
1 276
1 277
1 278
1 279
1 280
1 281
1 282
1 283
1 284
1 285
1 286
1 287
1 288
1 289
1 290
1 291
1 292
1 293
1 294
1 295
1 296
1 297
1 298
1 299
1 300
1 301

CELL_TYPES 200
9
9
9
9
9
9
9
9
9
9
9
9
9
9
9
9
9
9
9
9
9
9
9
9
9
9
9
9
9
9
9
9
9
9
9
9
9
9
9
9
9
9
9
9
9
9
9
9
9
9
9
9
9
9
9
9
9
9
9
9
9
9
9
9
9
9
9
9
9
9
9
9
9
9
9
9
9
9
9
9
9
9
9
9
9
9
9
9
9
9
9
9
9
9
9
9
9
9
9
9
1
1
1
1
1
1
1
1
1
1
1
1
1
1
1
1
1
1
1
1
1
1
1
1
1
1
1
1
1
1
1
1
1
1
1
1
1
1
1
1
1
1
1
1
1
1
1
1
1
1
1
1
1
1
1
1
1
1
1
1
1
1
1
1
1
1
1
1
1
1
1
1
1
1
1
1
1
1
1
1
1
1
1
1
1
1
1
1
1
1
1
1
1
1
1
1
1
1
1
1

CELL_DATA 200

VECTORS Vinf float
49.54141659587334 0.029609730467494787 4.175831122635298
49.543684135455756 0.030540304066677425 4.142168808660712
49.54622126315069 0.03146896987182693 4.104218732519803
49.548972217872596 0.0323379825750341 4.06268666788668
49.551874980177125 0.033093898387240334 4.018367528037162
49.554864719458024 0.033692060471236275 3.9721030672692543
49.5578778891384 0.034100059667314477 3.9247307917899477
49.56085619137458 0.034299413700860176 3.87703416967266
49.563749604400286 0.03428512181547218 3.8297045772885716
49.56651793993748 0.034063366985428174 3.7833218132952013
49.56913088342074 0.033648192671124164 3.7383537145680843
49.57156694493655 0.033058196130467905 3.6951693370196335
49.57381198751902 0.03231404342936397 3.654057186308253
49.5759286593057 0.035029336212031185 3.6183845107609014
49.57783637787107 0.03320137009411069 3.5828873660642
49.57960329967372 0.03163610515072138 3.5493500741645194
49.58121204642609 0.03040828760594819 3.5182308397056095
49.58264891073814 0.029595986023931545 3.489948172533114
49.58390368580159 0.029279792834738465 3.4648730771580825
49.584087832061115 0.024553083709298793 3.4364756876487546
49.58315817820529 0.02165524434153326 3.406951698786337
49.58360011919716 0.021620085774579193 3.391411091812111
49.583952990534435 0.021298897000404923 3.377085880562141
49.58421173330446 0.020685486906039063 3.36415662825116
49.58437266191633 0.019770362570558253 3.3527306845536806
49.58443288825679 0.018542180835125578 3.3428634055126447
49.584390919159254 0.01698855047789321 3.3345795796208
49.58424761775888 0.015095371108546751 3.3278954312521605
49.58400644989507 0.012844971882049557 3.322836235492329
49.587557320046386 0.012860320125190403 3.320045657000152
49.58587372525788 0.012902977551492945 3.3184766126878964
49.58587945674705 0.011660418366634421 3.3183052300446367
49.58586295762722 0.01048976276579812 3.3191135769709983
49.585815520198146 0.009405647094669189 3.3210022488616318
49.58572420450694 0.008425298917307391 3.3239913693597267
49.585574882242376 0.00757258305785499 3.328060460586621
49.58535830635283 0.006876777862887558 3.3332096660264323
49.58581067858587 0.004737863524877895 3.338330834831585
49.58195075112876 0.003746073704628969 3.3467497263126473
49.58125711961977 0.0025749639437998954 3.3575532771420855
49.580490400977915 0.0014746698199990232 3.370421513858544
49.57961485297459 0.00045565669018406856 3.3859189842387027
49.5785832750879 -0.000451889485464818 3.4046949044980286
49.577350665265094 -0.001186931638624645 3.42735892275091
49.57862765722516 -0.002008639496916738 3.449558019969325
49.57668919084209 -0.0025895037792715713 3.479098087651801
49.5747257232983 -0.0026593210913248007 3.507888966182121
49.57320768475721 -0.002083682684395317 3.528228036182621
49.57255266735663 -0.0011002723119449393 3.5343219714724547
49.57259032440493 -0.0002750895136382214 3.529729070281018
49.57258916823539 0.0003769309615316351 3.5297010803411997
49.572558487470715 0.001200432351125453 3.534272591649825
49.573220576976986 0.0021821973661807197 3.528163846612203
49.574746039819594 0.0027556383735627818 3.50781080202328
49.5767169958479 0.0026825514834368258 3.4790024121579983
49.57866253108902 0.0020973162222039 3.4494399446265693
49.57743342326563 0.0013246372106827382 3.427152264340969
49.57867558927604 0.0005916635915399101 3.4044381873582354
49.57971555267053 -0.00031472613147673015 3.385611481930389
49.58059845984816 -0.0013333965684097753 3.3700625041883945
49.58137160097058 -0.0024341006612428264 3.3571419900741546
49.582070757358444 -0.003606292099087485 3.346285616333648
49.58587820121754 -0.00462373566186167 3.3378605695826145
49.58545808570829 -0.006763847410341074 3.332580658868898
49.58568750879225 -0.007458541119572743 3.3273738588426367
49.585849035710304 -0.008309871841449008 3.3232499986178903
49.58595200279224 -0.009288597605453272 3.320209042447952
49.58601059254284 -0.010370902659225727 3.318270386746369
49.58603779632251 -0.011539599502874118 3.3174123103983146
49.586042380208866 -0.01278009117812135 3.317532971259723
49.58767348406345 -0.012741569841195599 3.3191025342685934
49.58407887763896 -0.012642948794335609 3.321779598410689
49.58433194574252 -0.014897354613248346 3.326769380621005
49.58448697047279 -0.016794628911724774 3.333382938776666
49.58454047621496 -0.01835243805257894 3.341594993182311
49.58449158951902 -0.019584878672268265 3.3513893417183205
49.584341790482654 -0.02050433761735852 3.362741271903727
49.584093952029185 -0.021122152091817045 3.3755955255737327
49.583751744264696 -0.021447807285177922 3.38984484443926
49.583320211555204 -0.021487485318449517 3.4053087586668807
49.584282396588804 -0.02442434274444426 3.434863777688362
49.584143579296054 -0.029164508011572058 3.4630433361787407
49.58290051140428 -0.029478605035504694 3.488038544845548
49.58147551825802 -0.030288396544986648 3.516239429644854
49.579878732793304 -0.03151337669282262 3.547275675651307
49.578123787897866 -0.03307556210242087 3.58072936803661
49.576227986003126 -0.034900286809235605 3.6161428304962566
49.57407037255845 -0.03218010576750094 3.6519232666836405
49.571834994913154 -0.032924166699844805 3.6929586721504117
49.56940864652335 -0.03351432095270466 3.7360662737185577
49.566805411618404 -0.0339299156939482 3.7809579027143028
49.5640467181251 -0.034152358549352925 3.827264925614702
49.56116280888655 -0.0341676014444746 3.874520017630162
49.558193790543875 -0.03396944568272394 3.9221439827959204
49.555189594005505 -0.033562863644358204 3.9694461312993323
49.55220841898291 -0.032966295842395986 4.015643747675927
49.54931370985372 -0.032212096985706984 4.059900115329323
49.546570195035834 -0.0313448591022004 4.101374270001793
49.544039796101316 -0.030417954515775298 4.139272051005396
49.54177818444677 -0.029489054895813577 4.17288836696469
49.54141659587334 0.029609730467494787 4.175831122635298
49.543684135455756 0.030540304066677425 4.142168808660712
49.54622126315069 0.03146896987182693 4.104218732519803
49.548972217872596 0.0323379825750341 4.06268666788668
49.551874980177125 0.033093898387240334 4.018367528037162
49.554864719458024 0.033692060471236275 3.9721030672692543
49.5578778891384 0.034100059667314477 3.9247307917899477
49.56085619137458 0.034299413700860176 3.87703416967266
49.563749604400286 0.03428512181547218 3.8297045772885716
49.56651793993748 0.034063366985428174 3.7833218132952013
49.56913088342074 0.033648192671124164 3.7383537145680843
49.57156694493655 0.033058196130467905 3.6951693370196335
49.57381198751902 0.03231404342936397 3.654057186308253
49.5759286593057 0.035029336212031185 3.6183845107609014
49.57783637787107 0.03320137009411069 3.5828873660642
49.57960329967372 0.03163610515072138 3.5493500741645194
49.58121204642609 0.03040828760594819 3.5182308397056095
49.58264891073814 0.029595986023931545 3.489948172533114
49.58390368580159 0.029279792834738465 3.4648730771580825
49.584087832061115 0.024553083709298793 3.4364756876487546
49.58315817820529 0.02165524434153326 3.406951698786337
49.58360011919716 0.021620085774579193 3.391411091812111
49.583952990534435 0.021298897000404923 3.377085880562141
49.58421173330446 0.020685486906039063 3.36415662825116
49.58437266191633 0.019770362570558253 3.3527306845536806
49.58443288825679 0.018542180835125578 3.3428634055126447
49.584390919159254 0.01698855047789321 3.3345795796208
49.58424761775888 0.015095371108546751 3.3278954312521605
49.58400644989507 0.012844971882049557 3.322836235492329
49.587557320046386 0.012860320125190403 3.320045657000152
49.58587372525788 0.012902977551492945 3.3184766126878964
49.58587945674705 0.011660418366634421 3.3183052300446367
49.58586295762722 0.01048976276579812 3.3191135769709983
49.585815520198146 0.009405647094669189 3.3210022488616318
49.58572420450694 0.008425298917307391 3.3239913693597267
49.585574882242376 0.00757258305785499 3.328060460586621
49.58535830635283 0.006876777862887558 3.3332096660264323
49.58581067858587 0.004737863524877895 3.338330834831585
49.58195075112876 0.003746073704628969 3.3467497263126473
49.58125711961977 0.0025749639437998954 3.3575532771420855
49.580490400977915 0.0014746698199990232 3.370421513858544
49.57961485297459 0.00045565669018406856 3.3859189842387027
49.5785832750879 -0.000451889485464818 3.4046949044980286
49.577350665265094 -0.001186931638624645 3.42735892275091
49.57862765722516 -0.002008639496916738 3.449558019969325
49.57668919084209 -0.0025895037792715713 3.479098087651801
49.5747257232983 -0.0026593210913248007 3.507888966182121
49.57320768475721 -0.002083682684395317 3.528228036182621
49.57255266735663 -0.0011002723119449393 3.5343219714724547
49.57259032440493 -0.0002750895136382214 3.529729070281018
49.57258916823539 0.0003769309615316351 3.5297010803411997
49.572558487470715 0.001200432351125453 3.534272591649825
49.573220576976986 0.0021821973661807197 3.528163846612203
49.574746039819594 0.0027556383735627818 3.50781080202328
49.5767169958479 0.0026825514834368258 3.4790024121579983
49.57866253108902 0.0020973162222039 3.4494399446265693
49.57743342326563 0.0013246372106827382 3.427152264340969
49.57867558927604 0.0005916635915399101 3.4044381873582354
49.57971555267053 -0.00031472613147673015 3.385611481930389
49.58059845984816 -0.0013333965684097753 3.3700625041883945
49.58137160097058 -0.0024341006612428264 3.3571419900741546
49.582070757358444 -0.003606292099087485 3.346285616333648
49.58587820121754 -0.00462373566186167 3.3378605695826145
49.58545808570829 -0.006763847410341074 3.332580658868898
49.58568750879225 -0.007458541119572743 3.3273738588426367
49.585849035710304 -0.008309871841449008 3.3232499986178903
49.58595200279224 -0.009288597605453272 3.320209042447952
49.58601059254284 -0.010370902659225727 3.318270386746369
49.58603779632251 -0.011539599502874118 3.3174123103983146
49.586042380208866 -0.01278009117812135 3.317532971259723
49.58767348406345 -0.012741569841195599 3.3191025342685934
49.58407887763896 -0.012642948794335609 3.321779598410689
49.58433194574252 -0.014897354613248346 3.326769380621005
49.58448697047279 -0.016794628911724774 3.333382938776666
49.58454047621496 -0.01835243805257894 3.341594993182311
49.58449158951902 -0.019584878672268265 3.3513893417183205
49.584341790482654 -0.02050433761735852 3.362741271903727
49.584093952029185 -0.021122152091817045 3.3755955255737327
49.583751744264696 -0.021447807285177922 3.38984484443926
49.583320211555204 -0.021487485318449517 3.4053087586668807
49.584282396588804 -0.02442434274444426 3.434863777688362
49.584143579296054 -0.029164508011572058 3.4630433361787407
49.58290051140428 -0.029478605035504694 3.488038544845548
49.58147551825802 -0.030288396544986648 3.516239429644854
49.579878732793304 -0.03151337669282262 3.547275675651307
49.578123787897866 -0.03307556210242087 3.58072936803661
49.576227986003126 -0.034900286809235605 3.6161428304962566
49.57407037255845 -0.03218010576750094 3.6519232666836405
49.571834994913154 -0.032924166699844805 3.6929586721504117
49.56940864652335 -0.03351432095270466 3.7360662737185577
49.566805411618404 -0.0339299156939482 3.7809579027143028
49.5640467181251 -0.034152358549352925 3.827264925614702
49.56116280888655 -0.0341676014444746 3.874520017630162
49.558193790543875 -0.03396944568272394 3.9221439827959204
49.555189594005505 -0.033562863644358204 3.9694461312993323
49.55220841898291 -0.032966295842395986 4.015643747675927
49.54931370985372 -0.032212096985706984 4.059900115329323
49.546570195035834 -0.0313448591022004 4.101374270001793
49.544039796101316 -0.030417954515775298 4.139272051005396
49.54177818444677 -0.029489054895813577 4.17288836696469

VECTORS L float
-0.006459156296297512 0.0 0.0879569724214664
-0.011657163505642375 0.0 0.15874036204481462
-0.01722808074586316 0.0 0.23460182004069052
-0.023358985775140305 0.0 0.3180888607379205
-0.030091168057538146 0.0 0.40976373965183943
-0.037426576838560634 0.0 0.5096530004555169
-0.04535106364270193 0.0 0.6175639775727093
-0.05384154351708977 0.0 0.7331823137607688
-0.06286873478639554 0.0 0.856109268473533
-0.0723983620362748 0.0 0.9858780993787322
-0.08239179915493035 0.0 1.121962818917892
-0.09280663884456995 0.0 1.2637859495767247
-0.10359739802952429 0.0 1.410728129715912
-0.11471707067829053 0.0 1.5621492589838164
-0.12611206939164182 0.0 1.7173196158533977
-0.13773173634177105 0.0 1.8755493719695306
-0.14952609982150097 0.0 2.036158042162263
-0.16144683672289667 0.0 2.1984875909116313
-0.17344717899013481 0.0 2.361901158478135
-0.18547812081294843 0.0 2.5257314127050012
-0.19750620945090808 0.0 2.6895228139470495
-0.2095151287725388 0.0 2.8530531787703564
-0.22146991859949033 0.0 3.015846440131185
-0.23333591673028162 0.0 3.177430588658671
-0.24508635903813294 0.0 3.337441166294661
-0.2566987913532165 0.0 3.4955724054271506
-0.26815397338227126 0.0 3.6515623031154907
-0.27943518981326954 0.0 3.805183240120946
-0.29052771564647617 0.0 3.9562347001011027
-0.3014188474719441 0.0 4.1045436955283146
-0.312094096726531 0.0 4.249912929713933
-0.3225308007385961 0.0 4.392033795791507
-0.3327147305777552 0.0 4.530712532597818
-0.34263028825139036 0.0 4.665736735889401
-0.3522593566357475 0.0 4.796859697384046
-0.36158083641755073 0.0 4.923794099105413
-0.3705700857988609 0.0 5.046204383614986
-0.37919688986300804 0.0 5.163679102037659
-0.3874377828352313 0.0 5.275898711323409
-0.3952523950224007 0.0 5.3823134808538065
-0.4025872084531028 0.0 5.482194634528733
-0.40938180273751895 0.0 5.574719403194266
-0.41556307531044817 0.0 5.658892319328585
-0.42103998943434107 0.0 5.733473698451755
-0.4256862252843829 0.0 5.796743391857381
-0.4294349374835405 0.0 5.847791138713472
-0.432134751492305 0.0 5.884555610018821
-0.43368902954091126 0.0 5.905720849747563
-0.4341242321922868 0.0 5.9116471822047485
-0.4324367215508717 0.0 5.888667659781214
-0.43243315623446793 0.0 5.888619109409894
-0.4341154933377891 0.0 5.911528181649755
-0.43367508818181466 0.0 5.905531004560153
-0.432115591038227 0.0 5.884294694280973
-0.42941047905797014 0.0 5.847458078331484
-0.4256562956269021 0.0 5.796335827473294
-0.42100413144792687 0.0 5.732985405588503
-0.4155215223258127 0.0 5.658326475345879
-0.4093347209780956 0.0 5.574078271624571
-0.40253479189122654 0.0 5.481480856772648
-0.39519486694375766 0.0 5.38153009748382
-0.38737539640280083 0.0 5.275049169763329
-0.37912971580904803 0.0 5.162764365477563
-0.3704981875332611 0.0 5.045225315533272
-0.36150489326282564 0.0 4.922759950114532
-0.35217987376209686 0.0 4.795777346593173
-0.3425477435090776 0.0 4.664612690380965