# vtk DataFile Version 4.0
[MyVLM domain - lattices] 
ASCII
DATASET UNSTRUCTURED_GRID
POINTS 302 float
1.2444999999999997 -1.2445 0.0
1.2399745454545452 -1.2399745454545454 0.0
1.2346178849721705 -1.2346178849721707 0.0
1.2284300185528754 -1.2284300185528756 0.0
1.2214109461966602 -1.2214109461966605 0.0
1.2135606679035247 -1.213560667903525 0.0
1.2048791836734691 -1.2048791836734694 0.0
1.1953664935064932 -1.1953664935064934 0.0
1.1850225974025972 -1.1850225974025974 0.0
1.1738474953617808 -1.173847495361781 0.0
1.1618411873840442 -1.1618411873840444 0.0
1.1490036734693874 -1.1490036734693876 0.0
1.1353349536178106 -1.1353349536178108 0.0
1.1208350278293133 -1.1208350278293135 0.0
1.1055038961038959 -1.105503896103896 0.0
1.0893415584415582 -1.0893415584415584 0.0
1.0723480148423004 -1.0723480148423006 0.0
1.054523265306122 -1.0545232653061223 0.0
1.0358673098330238 -1.035867309833024 0.0
1.0163801484230053 -1.0163801484230055 0.0
0.9960617810760664 -0.9960617810760668 0.0
0.9749122077922076 -0.9749122077922077 0.0
0.9529314285714284 -0.9529314285714284 0.0
0.9301194434137288 -0.930119443413729 0.0
0.9064762523191091 -0.9064762523191096 0.0
0.8820018552875695 -0.8820018552875695 0.0
0.8566962523191093 -0.8566962523191094 0.0
0.8305594434137288 -0.8305594434137291 0.0
0.8035914285714284 -0.8035914285714285 0.0
0.7757922077922076 -0.7757922077922077 0.0
0.7471617810760666 -0.7471617810760667 0.0
0.7177001484230053 -0.7177001484230054 0.0
0.6874073098330239 -0.687407309833024 0.0
0.6562832653061222 -0.6562832653061225 0.0
0.6243280148423004 -0.6243280148423005 0.0
0.5915415584415582 -0.5915415584415583 0.0
0.5579238961038958 -0.5579238961038959 0.0
0.5234750278293133 -0.5234750278293134 0.0
0.48819495361781057 -0.48819495361781057 0.0
0.4520836734693877 -0.4520836734693877 0.0
0.4151411873840445 -0.4151411873840446 0.0
0.37736749536178105 -0.37736749536178116 0.0
0.3387625974025974 -0.3387625974025974 0.0
0.2993264935064933 -0.29932649350649343 0.0
0.25905918367346925 -0.25905918367346925 0.0
0.21796066790352486 -0.21796066790352486 0.0
0.17603094619666027 -0.1760309461966605 0.0
0.13327001855287546 -0.13327001855287568 0.0
0.08967788497217066 -0.08967788497217066 0.0
0.045254545454545436 -0.045254545454545436 0.0
0.0 0.0 0.0
0.04525454545454545 0.04525454545454546 0.0
0.08967788497217066 0.08967788497217068 0.0
0.13327001855287568 0.1332700185528757 0.0
0.17603094619666046 0.1760309461966605 0.0
0.21796066790352497 0.21796066790352508 0.0
0.2590591836734693 0.25905918367346936 0.0
0.29932649350649343 0.2993264935064935 0.0
0.3387625974025973 0.33876259740259734 0.0
0.37736749536178094 0.377367495361781 0.0
0.41514118738404443 0.4151411873840445 0.0
0.45208367346938766 0.4520836734693878 0.0
0.48819495361781057 0.4881949536178107 0.0
0.5234750278293133 0.5234750278293134 0.0
0.5579238961038959 0.557923896103896 0.0
0.5915415584415582 0.5915415584415583 0.0
0.6243280148423003 0.6243280148423004 0.0
0.6562832653061222 0.6562832653061225 0.0
0.687407309833024 0.6874073098330241 0.0
0.7177001484230054 0.7177001484230056 0.0
0.7471617810760667 0.7471617810760669 0.0
0.7757922077922076 0.7757922077922077 0.0
0.8035914285714284 0.8035914285714285 0.0
0.8305594434137288 0.830559443413729 0.0
0.8566962523191093 0.8566962523191094 0.0
0.8820018552875692 0.8820018552875695 0.0
0.9064762523191091 0.9064762523191093 0.0
0.9301194434137288 0.9301194434137292 0.0
0.9529314285714284 0.9529314285714284 0.0
0.9749122077922076 0.9749122077922077 0.0
0.9960617810760666 0.9960617810760668 0.0
1.0163801484230053 1.0163801484230055 0.0
1.0358673098330238 1.035867309833024 0.0
1.054523265306122 1.0545232653061223 0.0
1.0723480148423001 1.0723480148423004 0.0
1.0893415584415582 1.0893415584415584 0.0
1.1055038961038959 1.105503896103896 0.0
1.120835027829313 1.1208350278293133 0.0
1.1353349536178106 1.1353349536178106 0.0
1.1490036734693874 1.1490036734693876 0.0
1.1618411873840444 1.1618411873840446 0.0
1.1738474953617808 1.173847495361781 0.0
1.1850225974025972 1.1850225974025972 0.0
1.1953664935064932 1.1953664935064934 0.0
1.2048791836734691 1.2048791836734694 0.0
1.2135606679035245 1.2135606679035247 0.0
1.22141094619666 1.2214109461966602 0.0
1.2284300185528754 1.2284300185528756 0.0
1.2346178849721703 1.2346178849721705 0.0
1.2399745454545452 1.2399745454545454 0.0
1.2444999999999997 1.2445 0.0
1.7422999999999997 -1.2445 0.0
1.7377745454545452 -1.2399745454545454 0.0
1.7324178849721703 -1.2346178849721707 0.0
1.7262300185528754 -1.2284300185528756 0.0
1.7192109461966603 -1.2214109461966605 0.0
1.7113606679035245 -1.213560667903525 0.0
1.7026791836734692 -1.2048791836734694 0.0
1.6931664935064934 -1.1953664935064934 0.0
1.6828225974025972 -1.1850225974025974 0.0
1.6716474953617806 -1.173847495361781 0.0
1.6596411873840444 -1.1618411873840444 0.0
1.6468036734693878 -1.1490036734693876 0.0
1.6331349536178106 -1.1353349536178108 0.0
1.6186350278293133 -1.1208350278293135 0.0
1.603303896103896 -1.105503896103896 0.0
1.5871415584415582 -1.0893415584415584 0.0
1.5701480148423004 -1.0723480148423006 0.0
1.552323265306122 -1.0545232653061223 0.0
1.5336673098330238 -1.035867309833024 0.0
1.5141801484230053 -1.0163801484230055 0.0
1.4938617810760666 -0.9960617810760668 0.0
1.4727122077922075 -0.9749122077922077 0.0
1.4507314285714283 -0.9529314285714284 0.0
1.4279194434137288 -0.930119443413729 0.0
1.4042762523191092 -0.9064762523191096 0.0
1.3798018552875693 -0.8820018552875695 0.0
1.3544962523191093 -0.8566962523191094 0.0
1.328359443413729 -0.8305594434137291 0.0
1.3013914285714283 -0.8035914285714285 0.0
1.2735922077922077 -0.7757922077922077 0.0
1.2449617810760665 -0.7471617810760667 0.0
1.2155001484230055 -0.7177001484230054 0.0
1.1852073098330238 -0.687407309833024 0.0
1.1540832653061224 -0.6562832653061225 0.0
1.1221280148423003 -0.6243280148423005 0.0
1.0893415584415582 -0.5915415584415583 0.0
1.055723896103896 -0.5579238961038959 0.0
1.0212750278293132 -0.5234750278293134 0.0
0.9859949536178108 -0.48819495361781057 0.0
0.9498836734693876 -0.4520836734693877 0.0
0.9129411873840445 -0.4151411873840446 0.0
0.875167495361781 -0.37736749536178116 0.0
0.8365625974025973 -0.3387625974025974 0.0
0.7971264935064933 -0.29932649350649343 0.0
0.7568591836734693 -0.25905918367346925 0.0
0.7157606679035249 -0.21796066790352486 0.0
0.6738309461966603 -0.1760309461966605 0.0
0.6310700185528755 -0.13327001855287568 0.0
0.5874778849721707 -0.08967788497217066 0.0
0.5430545454545455 -0.045254545454545436 0.0
0.4978 0.0 0.0
0.5430545454545455 0.04525454545454546 0.0
0.5874778849721707 0.08967788497217068 0.0
0.6310700185528757 0.1332700185528757 0.0
0.6738309461966605 0.1760309461966605 0.0
0.715760667903525 0.21796066790352508 0.0
0.7568591836734693 0.25905918367346936 0.0
0.7971264935064934 0.2993264935064935 0.0
0.8365625974025973 0.33876259740259734 0.0
0.875167495361781 0.377367495361781 0.0
0.9129411873840445 0.4151411873840445 0.0
0.9498836734693876 0.4520836734693878 0.0
0.9859949536178105 0.4881949536178107 0.0
1.0212750278293132 0.5234750278293134 0.0
1.055723896103896 0.557923896103896 0.0
1.0893415584415582 0.5915415584415583 0.0
1.1221280148423003 0.6243280148423004 0.0
1.1540832653061224 0.6562832653061225 0.0
1.185207309833024 0.6874073098330241 0.0
1.2155001484230055 0.7177001484230056 0.0
1.2449617810760667 0.7471617810760669 0.0
1.2735922077922077 0.7757922077922077 0.0
1.3013914285714283 0.8035914285714285 0.0
1.3283594434137287 0.830559443413729 0.0
1.3544962523191093 0.8566962523191094 0.0
1.3798018552875693 0.8820018552875695 0.0
1.4042762523191092 0.9064762523191093 0.0
1.427919443413729 0.9301194434137292 0.0
1.4507314285714283 0.9529314285714284 0.0
1.4727122077922075 0.9749122077922077 0.0
1.4938617810760666 0.9960617810760668 0.0
1.5141801484230053 1.0163801484230055 0.0
1.5336673098330238 1.035867309833024 0.0
1.552323265306122 1.0545232653061223 0.0
1.5701480148423002 1.0723480148423004 0.0
1.5871415584415582 1.0893415584415584 0.0
1.603303896103896 1.105503896103896 0.0
1.6186350278293131 1.1208350278293133 0.0
1.6331349536178106 1.1353349536178106 0.0
1.6468036734693874 1.1490036734693876 0.0
1.6596411873840444 1.1618411873840446 0.0
1.6716474953617806 1.173847495361781 0.0
1.6828225974025972 1.1850225974025972 0.0
1.6931664935064934 1.1953664935064934 0.0
1.7026791836734692 1.2048791836734694 0.0
1.7113606679035245 1.2135606679035247 0.0
1.71921094619666 1.2214109461966602 0.0
1.7262300185528754 1.2284300185528756 0.0
1.7324178849721703 1.2346178849721705 0.0
1.7377745454545452 1.2399745454545454 0.0
1.7422999999999997 1.2445 0.0
1.6155872727272724 -1.2422372727272726 0.0
1.6106462152133578 -1.237296215213358 0.0
1.604873951762523 -1.2315239517625232 0.0
1.598270482374768 -1.224920482374768 0.0
1.5908358070500925 -1.2174858070500927 0.0
1.582569925788497 -1.2092199257884972 0.0
1.5734728385899812 -1.2001228385899814 0.0
1.5635445454545454 -1.1901945454545453 0.0
1.552785046382189 -1.1794350463821892 0.0
1.5411943413729126 -1.1678443413729127 0.0
1.5287724304267158 -1.155422430426716 0.0
1.5155193135435991 -1.142169313543599 0.0
1.501434990723562 -1.1280849907235622 0.0
1.4865194619666047 -1.1131694619666048 0.0
1.4707727272727271 -1.0974227272727273 0.0
1.4541947866419294 -1.0808447866419293 0.0
1.4367856400742112 -1.0634356400742113 0.0
1.418545287569573 -1.0451952875695731 0.0
1.3994737291280146 -1.0261237291280147 0.0
1.379570964749536 -1.0062209647495362 0.0
1.358836994434137 -0.9854869944341371 0.0
1.337271818181818 -0.9639218181818181 0.0
1.3148754359925787 -0.9415254359925787 0.0
1.291647847866419 -0.9182978478664192 0.0
1.2675890538033394 -0.8942390538033393 0.0
1.2426990538033393 -0.8693490538033395 0.0
1.2169778478664193 -0.8436278478664192 0.0
1.1904254359925788 -0.8170754359925788 0.0
1.163041818181818 -0.7896918181818181 0.0
1.1348269944341371 -0.7614769944341371 0.0
1.105780964749536 -0.7324309647495362 0.0
1.0759037291280147 -0.7025537291280148 0.0
1.0451952875695731 -0.6718452875695733 0.0
1.0136556400742114 -0.6403056400742114 0.0
0.9812847866419293 -0.6079347866419293 0.0
0.9480827272727271 -0.5747327272727272 0.0
0.9140494619666047 -0.5406994619666048 0.0
0.8791849907235622 -0.5058349907235622 0.0
0.8434893135435992 -0.47013931354359917 0.0
0.8069624304267162 -0.43361243042671627 0.0
0.7696043413729128 -0.3962543413729128 0.0
0.7314150463821893 -0.3580650463821894 0.0
0.6923945454545455 -0.3190445454545454 0.0
0.6525428385899814 -0.27919283858998134 0.0
0.6118599257884971 -0.23850992578849706 0.0
0.5703458070500929 -0.19699580705009279 0.0
0.5280004823747682 -0.15465048237476808 0.0
0.4848239517625232 -0.11147395176252317 0.0
0.4408162152133581 -0.06746621521335805 0.0
0.39597727272727273 -0.022627272727272718 0.0
0.39597727272727273 0.02262727272727273 0.0
0.4408162152133581 0.06746621521335806 0.0
0.4848239517625232 0.11147395176252319 0.0
0.528000482374768 0.15465048237476808 0.0
0.5703458070500929 0.19699580705009276 0.0
0.6118599257884971 0.23850992578849717 0.0
0.6525428385899814 0.2791928385899814 0.0
0.6923945454545455 0.3190445454545454 0.0
0.7314150463821891 0.3580650463821891 0.0
0.7696043413729128 0.39625434137291277 0.0
0.8069624304267162 0.43361243042671616 0.0
0.8434893135435992 0.4701393135435992 0.0
0.8791849907235619 0.5058349907235621 0.0
0.9140494619666046 0.5406994619666047 0.0
0.9480827272727271 0.5747327272727272 0.0
0.9812847866419294 0.6079347866419295 0.0
1.0136556400742114 0.6403056400742114 0.0
1.0451952875695731 0.6718452875695732 0.0
1.0759037291280147 0.7025537291280147 0.0
1.105780964749536 0.7324309647495362 0.0
1.1348269944341371 0.7614769944341373 0.0
1.163041818181818 0.789691818181818 0.0
1.1904254359925786 0.8170754359925786 0.0
1.216977847866419 0.843627847866419 0.0
1.2426990538033393 0.8693490538033394 0.0
1.2675890538033392 0.8942390538033393 0.0
1.291647847866419 0.9182978478664192 0.0
1.3148754359925787 0.9415254359925787 0.0
1.3372718181818182 0.9639218181818181 0.0
1.3588369944341372 0.9854869944341373 0.0
1.379570964749536 1.0062209647495362 0.0
1.3994737291280148 1.0261237291280147 0.0
1.418545287569573 1.0451952875695731 0.0
1.4367856400742112 1.0634356400742113 0.0
1.4541947866419291 1.0808447866419293 0.0
1.470772727272727 1.097422727272727 0.0
1.4865194619666047 1.1131694619666048 0.0
1.501434990723562 1.128084990723562 0.0
1.5155193135435991 1.1421693135435993 0.0
1.528772430426716 1.1554224304267162 0.0
1.5411943413729128 1.1678443413729127 0.0
1.5527850463821888 1.179435046382189 0.0
1.5635445454545451 1.1901945454545453 0.0
1.573472838589981 1.2001228385899811 0.0
1.5825699257884969 1.209219925788497 0.0
1.5908358070500925 1.2174858070500927 0.0
1.5982704823747678 1.224920482374768 0.0
1.604873951762523 1.2315239517625232 0.0
1.6106462152133578 1.237296215213358 0.0
1.6155872727272724 1.2422372727272726 0.0

CELLS 200 700
4 0 101 102 1
4 1 102 103 2
4 2 103 104 3
4 3 104 105 4
4 4 105 106 5
4 5 106 107 6
4 6 107 108 7
4 7 108 109 8
4 8 109 110 9
4 9 110 111 10
4 10 111 112 11
4 11 112 113 12
4 12 113 114 13
4 13 114 115 14
4 14 115 116 15
4 15 116 117 16
4 16 117 118 17
4 17 118 119 18
4 18 119 120 19
4 19 120 121 20
4 20 121 122 21
4 21 122 123 22
4 22 123 124 23
4 23 124 125 24
4 24 125 126 25
4 25 126 127 26
4 26 127 128 27
4 27 128 129 28
4 28 129 130 29
4 29 130 131 30
4 30 131 132 31
4 31 132 133 32
4 32 133 134 33
4 33 134 135 34
4 34 135 136 35
4 35 136 137 36
4 36 137 138 37
4 37 138 139 38
4 38 139 140 39
4 39 140 141 40
4 40 141 142 41
4 41 142 143 42
4 42 143 144 43
4 43 144 145 44
4 44 145 146 45
4 45 146 147 46
4 46 147 148 47
4 47 148 149 48
4 48 149 150 49
4 49 150 151 50
4 50 151 152 51
4 51 152 153 52
4 52 153 154 53
4 53 154 155 54
4 54 155 156 55
4 55 156 157 56
4 56 157 158 57
4 57 158 159 58
4 58 159 160 59
4 59 160 161 60
4 60 161 162 61
4 61 162 163 62
4 62 163 164 63
4 63 164 165 64
4 64 165 166 65
4 65 166 167 66
4 66 167 168 67
4 67 168 169 68
4 68 169 170 69
4 69 170 171 70
4 70 171 172 71
4 71 172 173 72
4 72 173 174 73
4 73 174 175 74
4 74 175 176 75
4 75 176 177 76
4 76 177 178 77
4 77 178 179 78
4 78 179 180 79
4 79 180 181 80
4 80 181 182 81
4 81 182 183 82
4 82 183 184 83
4 83 184 185 84
4 84 185 186 85
4 85 186 187 86
4 86 187 188 87
4 87 188 189 88
4 88 189 190 89
4 89 190 191 90
4 90 191 192 91
4 91 192 193 92
4 92 193 194 93
4 93 194 195 94
4 94 195 196 95
4 95 196 197 96
4 96 197 198 97
4 97 198 199 98
4 98 199 200 99
4 99 200 201 100
1 202
1 203
1 204
1 205
1 206
1 207
1 208
1 209
1 210
1 211
1 212
1 213
1 214
1 215
1 216
1 217
1 218
1 219
1 220
1 221
1 222
1 223
1 224
1 225
1 226
1 227
1 228
1 229
1 230
1 231
1 232
1 233
1 234
1 235
1 236
1 237
1 238
1 239
1 240
1 241
1 242
1 243
1 244
1 245
1 246
1 247
1 248
1 249
1 250
1 251
1 252
1 253
1 254
1 255
1 256
1 257
1 258
1 259
1 260
1 261
1 262
1 263
1 264
1 265
1 266
1 267
1 268
1 269
1 270
1 271
1 272
1 273
1 274
1 275
1 276
1 277
1 278
1 279
1 280
1 281
1 282
1 283
1 284
1 285
1 286
1 287
1 288
1 289
1 290
1 291
1 292
1 293
1 294
1 295
1 296
1 297
1 298
1 299
1 300
1 301

CELL_TYPES 200
9
9
9
9
9
9
9
9
9
9
9
9
9
9
9
9
9
9
9
9
9
9
9
9
9
9
9
9
9
9
9
9
9
9
9
9
9
9
9
9
9
9
9
9
9
9
9
9
9
9
9
9
9
9
9
9
9
9
9
9
9
9
9
9
9
9
9
9
9
9
9
9
9
9
9
9
9
9
9
9
9
9
9
9
9
9
9
9
9
9
9
9
9
9
9
9
9
9
9
9
1
1
1
1
1
1
1
1
1
1
1
1
1
1
1
1
1
1
1
1
1
1
1
1
1
1
1
1
1
1
1
1
1
1
1
1
1
1
1
1
1
1
1
1
1
1
1
1
1
1
1
1
1
1
1
1
1
1
1
1
1
1
1
1
1
1
1
1
1
1
1
1
1
1
1
1
1
1
1
1
1
1
1
1
1
1
1
1
1
1
1
1
1
1
1
1
1
1
1
1

CELL_DATA 200

VECTORS Vinf float
49.53042965615812 0.04840864643381942 4.273097599845706
49.533064365960406 0.05059874922850401 4.23764591474328
49.53601855749497 0.05273973218887139 4.197584181462217
49.53922801479896 0.05465208743567442 4.153642346758279
49.54261920115256 0.056142344713069316 4.106667943819084
49.546112194089474 0.05700729334705174 4.057592982183962
49.549624302343005 0.057037130995212466 4.007391751045269
49.55307357989879 0.05601679635176391 3.9570388622719004
49.55638143077769 0.053725202514647484 3.9074772527250037
49.55908720939894 0.03828351146786797 3.8584624998133066
49.56209736230945 0.037661390722563706 3.8121017694236383
49.5649151164804 0.036842486524954886 3.7675502693846803
49.56752208670079 0.035851776763189735 3.7250981219556687
49.56990723513381 0.03471633205638682 3.684966940472419
49.57206676335983 0.03346439573019028 3.6473212089642213
49.574023913389176 0.03498433483616819 3.6133233305907457
49.575747353688016 0.03450603322465669 3.581925077811281
49.57732000147836 0.032271319610299165 3.5516691213938647
49.57872307790543 0.02808026591794262 3.5229172039682983
49.57976560077251 0.02632867409736658 3.4987328258896344
49.58077851593009 0.024846901377617265 3.476806381926962
49.58164406714584 0.02337385949414601 3.457264376898544
49.5823725704367 0.021920514618507757 3.439970572950865
49.58298160928261 0.01934953948241879 3.4245599725064064
49.583452888656936 0.017160127070407337 3.4114760073894317
49.58375833638275 0.014177604451081391 3.400214893863424
49.58414216194333 0.016494548484300445 3.390579232560119
49.584355441066826 0.01526196425742961 3.382594279871982
49.584497870640476 0.014080693427229049 3.376172425080896
49.584605208256015 0.012457571478885055 3.371606995192244
49.584663973359916 0.011022113365235635 3.367802690995529
49.58458611671316 0.010803836744045558 3.365805366305002
49.58452732090873 0.009778241489732357 3.3652242952829967
49.584434587198125 0.008770607661199444 3.366012452114798
49.584127883649366 0.008196853708113374 3.368253194060544
49.58391033934533 0.0066108888330373445 3.371532373901335
49.58367221297581 0.0052246493969215985 3.375773842855808
49.58339376807979 0.004057081903212865 3.381101927289651
49.58304554637222 0.0031313243325465766 3.387768608253073
49.5825865262406 0.002479042301549328 3.396169675046921
49.58210281692066 0.0014055620500830566 3.408155739143665
49.58119026915385 0.00034155784080811566 3.42206717438343
49.5800441638203 -0.0006373327718894952 3.439481467457594
49.57874547439019 -0.0011768593547771475 3.461169583904959
49.57710340915892 -0.0020243952523167955 3.4868954417685196
49.57529103487504 -0.002478071592817163 3.516055869224059
49.57353899457202 -0.002364251505766712 3.544361434478121
49.57229150796396 -0.0015731732706233282 3.5638912603244592
49.57189028149735 -0.0007668306409971521 3.5689052068921283
49.57217034516032 5.925822879668916e-6 3.5629054981048323
49.57219632882138 0.0004580300909556795 3.562894918294911
49.57199615784282 0.0013311830546996804 3.5688710408585242
49.572522345731514 0.002221111726033219 3.563823745530328
49.57393457055349 0.003050930522799853 3.5442479583756104
49.57585335071441 0.0031189919927410797 3.515877949116655
49.57778161736129 0.002539814890010118 3.4866415168942817
49.57945886219058 0.0015265331768292859 3.4608452971316055
49.58071808595507 0.0008264459514213942 3.439116205904231
49.58177585454136 -0.00027991476139430056 3.421699785361529
49.58258181387959 -0.0014267203147649218 3.4078202463745924
49.58298147007048 -0.002561263126000028 3.395901555924463
49.583356424360964 -0.003216930259268108 3.387545027969464
49.583642607195344 -0.004132773343460873 3.3809116185823718
49.58387774915876 -0.005286513475770156 3.3756088035590426
49.584085980779065 -0.00666012930544081 3.371388395614094
49.58428234822077 -0.008236660811099753 3.368127415476742
49.584560465650966 -0.008817605159402974 3.3658638170471593
49.584640258392945 -0.009821464354572366 3.3650829306490397
49.584688168424606 -0.010844051696499284 3.3656663885831217
49.58476018606847 -0.011060955875590504 3.3676367830924114
49.58469229820379 -0.012491314551621535 3.371473511662475
49.58457708558027 -0.014112534147797387 3.3760144768888294
49.584430213281685 -0.015290937522734515 3.3824230984825836
49.584213986525505 -0.016520768595304085 3.3903925184267445
49.58383768140598 -0.014203013916008943 3.3999029938249374
49.58352513287665 -0.017176930914478517 3.411240375678238
49.58304405031194 -0.01936112963301357 3.424466179836678
49.5824447215194 -0.02193963338662324 3.4397113457048927
49.58171866060486 -0.023392836319513072 3.456984962074081
49.58085634016632 -0.02486677282043848 3.4765056503478404
49.579847352839685 -0.02635083370579163 3.498409708132655
49.578810885999395 -0.028082017509169426 3.5225235804778237
49.57741246307269 -0.0322765375254421 3.551248473689067
49.57584246048097 -0.034539165937703176 3.5815286301326
49.574117764888264 -0.035065881092524565 3.6130207492190594
49.5721638533862 -0.03352692385111126 3.6468712780079366
49.57000229914867 -0.034790344983109074 3.684488171581453
49.56761277435049 -0.035936365111662046 3.7245892711843798
49.56499952000316 -0.036935926272650466 3.7670102395989216
49.562174299159224 -0.037761516258143904 3.811529775149554
49.55915631579886 -0.038388123652349365 3.857858212983187
49.556449689925294 -0.05380873210587504 3.9067085976428153
49.55313328784598 -0.05606510433754878 3.95622938672495
49.54967717134529 -0.05705605843998689 4.006537830796029
49.54615989650215 -0.05700216658467266 4.05669273613478
49.54266321913482 -0.056117936782299836 4.105721029250741
49.53926956417321 -0.05461257383338006 4.152649775754564
49.53605857149391 -0.0526886677524474 4.196548158612744
49.53310351762031 -0.05053907604694111 4.236569689595402
49.530468399796945 -0.048342731434399426 4.271985327111133
49.53042965615812 0.04840864643381942 4.273097599845706
49.533064365960406 0.05059874922850401 4.23764591474328
49.53601855749497 0.05273973218887139 4.197584181462217
49.53922801479896 0.05465208743567442 4.153642346758279
49.54261920115256 0.056142344713069316 4.106667943819084
49.546112194089474 0.05700729334705174 4.057592982183962
49.549624302343005 0.057037130995212466 4.007391751045269
49.55307357989879 0.05601679635176391 3.9570388622719004
49.55638143077769 0.053725202514647484 3.9074772527250037
49.55908720939894 0.03828351146786797 3.8584624998133066
49.56209736230945 0.037661390722563706 3.8121017694236383
49.5649151164804 0.036842486524954886 3.7675502693846803
49.56752208670079 0.035851776763189735 3.7250981219556687
49.56990723513381 0.03471633205638682 3.684966940472419
49.57206676335983 0.03346439573019028 3.6473212089642213
49.574023913389176 0.03498433483616819 3.6133233305907457
49.575747353688016 0.03450603322465669 3.581925077811281
49.57732000147836 0.032271319610299165 3.5516691213938647
49.57872307790543 0.02808026591794262 3.5229172039682983
49.57976560077251 0.02632867409736658 3.4987328258896344
49.58077851593009 0.024846901377617265 3.476806381926962
49.58164406714584 0.02337385949414601 3.457264376898544
49.5823725704367 0.021920514618507757 3.439970572950865
49.58298160928261 0.01934953948241879 3.4245599725064064
49.583452888656936 0.017160127070407337 3.4114760073894317
49.58375833638275 0.014177604451081391 3.400214893863424
49.58414216194333 0.016494548484300445 3.390579232560119
49.584355441066826 0.01526196425742961 3.382594279871982
49.584497870640476 0.014080693427229049 3.376172425080896
49.584605208256015 0.012457571478885055 3.371606995192244
49.584663973359916 0.011022113365235635 3.367802690995529
49.58458611671316 0.010803836744045558 3.365805366305002
49.58452732090873 0.009778241489732357 3.3652242952829967
49.584434587198125 0.008770607661199444 3.366012452114798
49.584127883649366 0.008196853708113374 3.368253194060544
49.58391033934533 0.0066108888330373445 3.371532373901335
49.58367221297581 0.0052246493969215985 3.375773842855808
49.58339376807979 0.004057081903212865 3.381101927289651
49.58304554637222 0.0031313243325465766 3.387768608253073
49.5825865262406 0.002479042301549328 3.396169675046921
49.58210281692066 0.0014055620500830566 3.408155739143665
49.58119026915385 0.00034155784080811566 3.42206717438343
49.5800441638203 -0.0006373327718894952 3.439481467457594
49.57874547439019 -0.0011768593547771475 3.461169583904959
49.57710340915892 -0.0020243952523167955 3.4868954417685196
49.57529103487504 -0.002478071592817163 3.516055869224059
49.57353899457202 -0.002364251505766712 3.544361434478121
49.57229150796396 -0.0015731732706233282 3.5638912603244592
49.57189028149735 -0.0007668306409971521 3.5689052068921283
49.57217034516032 5.925822879668916e-6 3.5629054981048323
49.57219632882138 0.0004580300909556795 3.562894918294911
49.57199615784282 0.0013311830546996804 3.5688710408585242
49.572522345731514 0.002221111726033219 3.563823745530328
49.57393457055349 0.003050930522799853 3.5442479583756104
49.57585335071441 0.0031189919927410797 3.515877949116655
49.57778161736129 0.002539814890010118 3.4866415168942817
49.57945886219058 0.0015265331768292859 3.4608452971316055
49.58071808595507 0.0008264459514213942 3.439116205904231
49.58177585454136 -0.00027991476139430056 3.421699785361529
49.58258181387959 -0.0014267203147649218 3.4078202463745924
49.58298147007048 -0.002561263126000028 3.395901555924463
49.583356424360964 -0.003216930259268108 3.387545027969464
49.583642607195344 -0.004132773343460873 3.3809116185823718
49.58387774915876 -0.005286513475770156 3.3756088035590426
49.584085980779065 -0.00666012930544081 3.371388395614094
49.58428234822077 -0.008236660811099753 3.368127415476742
49.584560465650966 -0.008817605159402974 3.3658638170471593
49.584640258392945 -0.009821464354572366 3.3650829306490397
49.584688168424606 -0.010844051696499284 3.3656663885831217
49.58476018606847 -0.011060955875590504 3.3676367830924114
49.58469229820379 -0.012491314551621535 3.371473511662475
49.58457708558027 -0.014112534147797387 3.3760144768888294
49.584430213281685 -0.015290937522734515 3.3824230984825836
49.584213986525505 -0.016520768595304085 3.3903925184267445
49.58383768140598 -0.014203013916008943 3.3999029938249374
49.58352513287665 -0.017176930914478517 3.411240375678238
49.58304405031194 -0.01936112963301357 3.424466179836678
49.5824447215194 -0.02193963338662324 3.4397113457048927
49.58171866060486 -0.023392836319513072 3.456984962074081
49.58085634016632 -0.02486677282043848 3.4765056503478404
49.579847352839685 -0.02635083370579163 3.498409708132655
49.578810885999395 -0.028082017509169426 3.5225235804778237
49.57741246307269 -0.0322765375254421 3.551248473689067
49.57584246048097 -0.034539165937703176 3.5815286301326
49.574117764888264 -0.035065881092524565 3.6130207492190594
49.5721638533862 -0.03352692385111126 3.6468712780079366
49.57000229914867 -0.034790344983109074 3.684488171581453
49.56761277435049 -0.035936365111662046 3.7245892711843798
49.56499952000316 -0.036935926272650466 3.7670102395989216
49.562174299159224 -0.037761516258143904 3.811529775149554
49.55915631579886 -0.038388123652349365 3.857858212983187
49.556449689925294 -0.05380873210587504 3.9067085976428153
49.55313328784598 -0.05606510433754878 3.95622938672495
49.54967717134529 -0.05705605843998689 4.006537830796029
49.54615989650215 -0.05700216658467266 4.05669273613478
49.54266321913482 -0.056117936782299836 4.105721029250741
49.53926956417321 -0.05461257383338006 4.152649775754564
49.53605857149391 -0.0526886677524474 4.196548158612744
49.53310351762031 -0.05053907604694111 4.236569689595402
49.530468399796945 -0.048342731434399426 4.271985327111133

VECTORS L float
-0.006590289083384541 0.0 0.0897426612031383
-0.01189108608235265 0.0 0.16192578142230485
-0.017571104322543277 0.0 0.2392729123459287
-0.023820455691615713 0.0 0.3243728852845986
-0.0306808705164147 0.0 0.41779395916239814
-0.038154050723284975 0.0 0.5195593098062775
-0.04622537248010506 0.0 0.6294697985145857
-0.054871175183700535 0.0 0.7472032291791282
-0.06406155021242213 0.0 0.8723523238693376
-0.07376132389028633 0.0 1.0044381082569076
-0.08393172516242063 0.0 1.1429326210342399
-0.09452863952474497 0.0 1.2872351369609534
-0.1055050884480022 0.0 1.436705930194736
-0.11681150454613365 0.0 1.5906700213716316
-0.12839675569692058 0.0 1.748431123475576
-0.14020950502119947 0.0 1.9092901612314628
-0.15219866835819842 0.0 2.07255150073386
-0.16431179368245188 0.0 2.237500881304485
-0.1765024109366981 0.0 2.403505501172101
-0.1887309811462761 0.0 2.5700269419513497
-0.20095618914552 0.0 2.7365025981376787
-0.213142116888114 0.0 2.902443359007596
-0.2252561983852902 0.0 3.0674057601758866
-0.23726917463294947 0.0 3.230991369819792
-0.2491571131676092 0.0 3.392874289798137
-0.2608965743691709 0.0 3.5527353332196316
-0.2724676280614933 0.0 3.7103031027263556
-0.28385251184384713 0.0 3.86533572044457
-0.29503555768807394 0.0 4.017619828428222
-0.30600204771251094 0.0 4.1669550072645976
-0.3167387373349356 0.0 4.313160900061893
-0.3272321941118701 0.0 4.456054591744774
-0.33746760056525077 0.0 4.595434306655614
-0.3474269822095192 0.0 4.731055278874836
-0.3570907446900241 0.0 4.862650684063065
-0.3664407294033198 0.0 4.989973249092168
-0.3754488629554929 0.0 5.112640687078079
-0.38408614532446533 0.0 5.230258092862113
-0.3923204182193006 0.0 5.342387553847135
-0.40011511119212195 0.0 5.448531075290832
-0.4074296689321847 0.0 5.548136398943817
-0.41420145240553713 0.0 5.640350543467804
-0.4203619427982998 0.0 5.724240460157006
-0.4258272798756696 0.0 5.798664189903843
-0.4304907922244093 0.0 5.86216914445656
-0.4342280826290446 0.0 5.913061356066295
-0.4369019237974607 0.0 5.949472144584381
-0.4384178475877128 0.0 5.9701150986941425
-0.4388056059007547 0.0 5.9753953621963545
-0.4370358000750713 0.0 5.9512951925983195
-0.437032124179233 0.0 5.951245136421624
-0.4387973577166956 0.0 5.975283043301358
-0.4384048235294695 0.0 5.9699377447675355
-0.43688410170771247 0.0 5.949229453900866
-0.4342057011833617 0.0 5.912756578768707
-0.43046450104888484 0.0 5.861811126769039
-0.4257981973853408 0.0 5.7982681617412695
-0.4203315280381759 0.0 5.72382628993187
-0.4141710945889505 0.0 5.639937148666099
-0.4074004627936956 0.0 5.547738687013685
-0.40008762048085117 0.0 5.448156723034567
-0.39229468220607683 0.0 5.342037096031668
-0.3840620382040064 0.0 5.229929816345476
-0.3754261827380998 0.0 5.112331841283946
-0.36641923285115385 0.0 4.989680521751432
-0.35707013519278274 0.0 4.862370036111951
-0.34740678747533915 0.0 4.730780278921924
-0.3374478106029984 0.0 4.595164818647552