# vtk DataFile Version 4.0
[MyVLM domain - lattices] 
ASCII
DATASET UNSTRUCTURED_GRID
POINTS 302 float
1.2444999999999997 -1.2445 0.0
1.2399745454545452 -1.2399745454545454 0.0
1.2346178849721705 -1.2346178849721707 0.0
1.2284300185528754 -1.2284300185528756 0.0
1.2214109461966602 -1.2214109461966605 0.0
1.2135606679035247 -1.213560667903525 0.0
1.2048791836734691 -1.2048791836734694 0.0
1.1953664935064932 -1.1953664935064934 0.0
1.1850225974025972 -1.1850225974025974 0.0
1.1738474953617808 -1.173847495361781 0.0
1.1618411873840442 -1.1618411873840444 0.0
1.1490036734693874 -1.1490036734693876 0.0
1.1353349536178106 -1.1353349536178108 0.0
1.1208350278293133 -1.1208350278293135 0.0
1.1055038961038959 -1.105503896103896 0.0
1.0893415584415582 -1.0893415584415584 0.0
1.0723480148423004 -1.0723480148423006 0.0
1.054523265306122 -1.0545232653061223 0.0
1.0358673098330238 -1.035867309833024 0.0
1.0163801484230053 -1.0163801484230055 0.0
0.9960617810760664 -0.9960617810760668 0.0
0.9749122077922076 -0.9749122077922077 0.0
0.9529314285714284 -0.9529314285714284 0.0
0.9301194434137288 -0.930119443413729 0.0
0.9064762523191091 -0.9064762523191096 0.0
0.8820018552875695 -0.8820018552875695 0.0
0.8566962523191093 -0.8566962523191094 0.0
0.8305594434137288 -0.8305594434137291 0.0
0.8035914285714284 -0.8035914285714285 0.0
0.7757922077922076 -0.7757922077922077 0.0
0.7471617810760666 -0.7471617810760667 0.0
0.7177001484230053 -0.7177001484230054 0.0
0.6874073098330239 -0.687407309833024 0.0
0.6562832653061222 -0.6562832653061225 0.0
0.6243280148423004 -0.6243280148423005 0.0
0.5915415584415582 -0.5915415584415583 0.0
0.5579238961038958 -0.5579238961038959 0.0
0.5234750278293133 -0.5234750278293134 0.0
0.48819495361781057 -0.48819495361781057 0.0
0.4520836734693877 -0.4520836734693877 0.0
0.4151411873840445 -0.4151411873840446 0.0
0.37736749536178105 -0.37736749536178116 0.0
0.3387625974025974 -0.3387625974025974 0.0
0.2993264935064933 -0.29932649350649343 0.0
0.25905918367346925 -0.25905918367346925 0.0
0.21796066790352486 -0.21796066790352486 0.0
0.17603094619666027 -0.1760309461966605 0.0
0.13327001855287546 -0.13327001855287568 0.0
0.08967788497217066 -0.08967788497217066 0.0
0.045254545454545436 -0.045254545454545436 0.0
0.0 0.0 0.0
0.04525454545454545 0.04525454545454546 0.0
0.08967788497217066 0.08967788497217068 0.0
0.13327001855287568 0.1332700185528757 0.0
0.17603094619666046 0.1760309461966605 0.0
0.21796066790352497 0.21796066790352508 0.0
0.2590591836734693 0.25905918367346936 0.0
0.29932649350649343 0.2993264935064935 0.0
0.3387625974025973 0.33876259740259734 0.0
0.37736749536178094 0.377367495361781 0.0
0.41514118738404443 0.4151411873840445 0.0
0.45208367346938766 0.4520836734693878 0.0
0.48819495361781057 0.4881949536178107 0.0
0.5234750278293133 0.5234750278293134 0.0
0.5579238961038959 0.557923896103896 0.0
0.5915415584415582 0.5915415584415583 0.0
0.6243280148423003 0.6243280148423004 0.0
0.6562832653061222 0.6562832653061225 0.0
0.687407309833024 0.6874073098330241 0.0
0.7177001484230054 0.7177001484230056 0.0
0.7471617810760667 0.7471617810760669 0.0
0.7757922077922076 0.7757922077922077 0.0
0.8035914285714284 0.8035914285714285 0.0
0.8305594434137288 0.830559443413729 0.0
0.8566962523191093 0.8566962523191094 0.0
0.8820018552875692 0.8820018552875695 0.0
0.9064762523191091 0.9064762523191093 0.0
0.9301194434137288 0.9301194434137292 0.0
0.9529314285714284 0.9529314285714284 0.0
0.9749122077922076 0.9749122077922077 0.0
0.9960617810760666 0.9960617810760668 0.0
1.0163801484230053 1.0163801484230055 0.0
1.0358673098330238 1.035867309833024 0.0
1.054523265306122 1.0545232653061223 0.0
1.0723480148423001 1.0723480148423004 0.0
1.0893415584415582 1.0893415584415584 0.0
1.1055038961038959 1.105503896103896 0.0
1.120835027829313 1.1208350278293133 0.0
1.1353349536178106 1.1353349536178106 0.0
1.1490036734693874 1.1490036734693876 0.0
1.1618411873840444 1.1618411873840446 0.0
1.1738474953617808 1.173847495361781 0.0
1.1850225974025972 1.1850225974025972 0.0
1.1953664935064932 1.1953664935064934 0.0
1.2048791836734691 1.2048791836734694 0.0
1.2135606679035245 1.2135606679035247 0.0
1.22141094619666 1.2214109461966602 0.0
1.2284300185528754 1.2284300185528756 0.0
1.2346178849721703 1.2346178849721705 0.0
1.2399745454545452 1.2399745454545454 0.0
1.2444999999999997 1.2445 0.0
1.7422999999999997 -1.2445 0.0
1.7377745454545452 -1.2399745454545454 0.0
1.7324178849721703 -1.2346178849721707 0.0
1.7262300185528754 -1.2284300185528756 0.0
1.7192109461966603 -1.2214109461966605 0.0
1.7113606679035245 -1.213560667903525 0.0
1.7026791836734692 -1.2048791836734694 0.0
1.6931664935064934 -1.1953664935064934 0.0
1.6828225974025972 -1.1850225974025974 0.0
1.6716474953617806 -1.173847495361781 0.0
1.6596411873840444 -1.1618411873840444 0.0
1.6468036734693878 -1.1490036734693876 0.0
1.6331349536178106 -1.1353349536178108 0.0
1.6186350278293133 -1.1208350278293135 0.0
1.603303896103896 -1.105503896103896 0.0
1.5871415584415582 -1.0893415584415584 0.0
1.5701480148423004 -1.0723480148423006 0.0
1.552323265306122 -1.0545232653061223 0.0
1.5336673098330238 -1.035867309833024 0.0
1.5141801484230053 -1.0163801484230055 0.0
1.4938617810760666 -0.9960617810760668 0.0
1.4727122077922075 -0.9749122077922077 0.0
1.4507314285714283 -0.9529314285714284 0.0
1.4279194434137288 -0.930119443413729 0.0
1.4042762523191092 -0.9064762523191096 0.0
1.3798018552875693 -0.8820018552875695 0.0
1.3544962523191093 -0.8566962523191094 0.0
1.328359443413729 -0.8305594434137291 0.0
1.3013914285714283 -0.8035914285714285 0.0
1.2735922077922077 -0.7757922077922077 0.0
1.2449617810760665 -0.7471617810760667 0.0
1.2155001484230055 -0.7177001484230054 0.0
1.1852073098330238 -0.687407309833024 0.0
1.1540832653061224 -0.6562832653061225 0.0
1.1221280148423003 -0.6243280148423005 0.0
1.0893415584415582 -0.5915415584415583 0.0
1.055723896103896 -0.5579238961038959 0.0
1.0212750278293132 -0.5234750278293134 0.0
0.9859949536178108 -0.48819495361781057 0.0
0.9498836734693876 -0.4520836734693877 0.0
0.9129411873840445 -0.4151411873840446 0.0
0.875167495361781 -0.37736749536178116 0.0
0.8365625974025973 -0.3387625974025974 0.0
0.7971264935064933 -0.29932649350649343 0.0
0.7568591836734693 -0.25905918367346925 0.0
0.7157606679035249 -0.21796066790352486 0.0
0.6738309461966603 -0.1760309461966605 0.0
0.6310700185528755 -0.13327001855287568 0.0
0.5874778849721707 -0.08967788497217066 0.0
0.5430545454545455 -0.045254545454545436 0.0
0.4978 0.0 0.0
0.5430545454545455 0.04525454545454546 0.0
0.5874778849721707 0.08967788497217068 0.0
0.6310700185528757 0.1332700185528757 0.0
0.6738309461966605 0.1760309461966605 0.0
0.715760667903525 0.21796066790352508 0.0
0.7568591836734693 0.25905918367346936 0.0
0.7971264935064934 0.2993264935064935 0.0
0.8365625974025973 0.33876259740259734 0.0
0.875167495361781 0.377367495361781 0.0
0.9129411873840445 0.4151411873840445 0.0
0.9498836734693876 0.4520836734693878 0.0
0.9859949536178105 0.4881949536178107 0.0
1.0212750278293132 0.5234750278293134 0.0
1.055723896103896 0.557923896103896 0.0
1.0893415584415582 0.5915415584415583 0.0
1.1221280148423003 0.6243280148423004 0.0
1.1540832653061224 0.6562832653061225 0.0
1.185207309833024 0.6874073098330241 0.0
1.2155001484230055 0.7177001484230056 0.0
1.2449617810760667 0.7471617810760669 0.0
1.2735922077922077 0.7757922077922077 0.0
1.3013914285714283 0.8035914285714285 0.0
1.3283594434137287 0.830559443413729 0.0
1.3544962523191093 0.8566962523191094 0.0
1.3798018552875693 0.8820018552875695 0.0
1.4042762523191092 0.9064762523191093 0.0
1.427919443413729 0.9301194434137292 0.0
1.4507314285714283 0.9529314285714284 0.0
1.4727122077922075 0.9749122077922077 0.0
1.4938617810760666 0.9960617810760668 0.0
1.5141801484230053 1.0163801484230055 0.0
1.5336673098330238 1.035867309833024 0.0
1.552323265306122 1.0545232653061223 0.0
1.5701480148423002 1.0723480148423004 0.0
1.5871415584415582 1.0893415584415584 0.0
1.603303896103896 1.105503896103896 0.0
1.6186350278293131 1.1208350278293133 0.0
1.6331349536178106 1.1353349536178106 0.0
1.6468036734693874 1.1490036734693876 0.0
1.6596411873840444 1.1618411873840446 0.0
1.6716474953617806 1.173847495361781 0.0
1.6828225974025972 1.1850225974025972 0.0
1.6931664935064934 1.1953664935064934 0.0
1.7026791836734692 1.2048791836734694 0.0
1.7113606679035245 1.2135606679035247 0.0
1.71921094619666 1.2214109461966602 0.0
1.7262300185528754 1.2284300185528756 0.0
1.7324178849721703 1.2346178849721705 0.0
1.7377745454545452 1.2399745454545454 0.0
1.7422999999999997 1.2445 0.0
1.6155872727272724 -1.2422372727272726 0.0
1.6106462152133578 -1.237296215213358 0.0
1.604873951762523 -1.2315239517625232 0.0
1.598270482374768 -1.224920482374768 0.0
1.5908358070500925 -1.2174858070500927 0.0
1.582569925788497 -1.2092199257884972 0.0
1.5734728385899812 -1.2001228385899814 0.0
1.5635445454545454 -1.1901945454545453 0.0
1.552785046382189 -1.1794350463821892 0.0
1.5411943413729126 -1.1678443413729127 0.0
1.5287724304267158 -1.155422430426716 0.0
1.5155193135435991 -1.142169313543599 0.0
1.501434990723562 -1.1280849907235622 0.0
1.4865194619666047 -1.1131694619666048 0.0
1.4707727272727271 -1.0974227272727273 0.0
1.4541947866419294 -1.0808447866419293 0.0
1.4367856400742112 -1.0634356400742113 0.0
1.418545287569573 -1.0451952875695731 0.0
1.3994737291280146 -1.0261237291280147 0.0
1.379570964749536 -1.0062209647495362 0.0
1.358836994434137 -0.9854869944341371 0.0
1.337271818181818 -0.9639218181818181 0.0
1.3148754359925787 -0.9415254359925787 0.0
1.291647847866419 -0.9182978478664192 0.0
1.2675890538033394 -0.8942390538033393 0.0
1.2426990538033393 -0.8693490538033395 0.0
1.2169778478664193 -0.8436278478664192 0.0
1.1904254359925788 -0.8170754359925788 0.0
1.163041818181818 -0.7896918181818181 0.0
1.1348269944341371 -0.7614769944341371 0.0
1.105780964749536 -0.7324309647495362 0.0
1.0759037291280147 -0.7025537291280148 0.0
1.0451952875695731 -0.6718452875695733 0.0
1.0136556400742114 -0.6403056400742114 0.0
0.9812847866419293 -0.6079347866419293 0.0
0.9480827272727271 -0.5747327272727272 0.0
0.9140494619666047 -0.5406994619666048 0.0
0.8791849907235622 -0.5058349907235622 0.0
0.8434893135435992 -0.47013931354359917 0.0
0.8069624304267162 -0.43361243042671627 0.0
0.7696043413729128 -0.3962543413729128 0.0
0.7314150463821893 -0.3580650463821894 0.0
0.6923945454545455 -0.3190445454545454 0.0
0.6525428385899814 -0.27919283858998134 0.0
0.6118599257884971 -0.23850992578849706 0.0
0.5703458070500929 -0.19699580705009279 0.0
0.5280004823747682 -0.15465048237476808 0.0
0.4848239517625232 -0.11147395176252317 0.0
0.4408162152133581 -0.06746621521335805 0.0
0.39597727272727273 -0.022627272727272718 0.0
0.39597727272727273 0.02262727272727273 0.0
0.4408162152133581 0.06746621521335806 0.0
0.4848239517625232 0.11147395176252319 0.0
0.528000482374768 0.15465048237476808 0.0
0.5703458070500929 0.19699580705009276 0.0
0.6118599257884971 0.23850992578849717 0.0
0.6525428385899814 0.2791928385899814 0.0
0.6923945454545455 0.3190445454545454 0.0
0.7314150463821891 0.3580650463821891 0.0
0.7696043413729128 0.39625434137291277 0.0
0.8069624304267162 0.43361243042671616 0.0
0.8434893135435992 0.4701393135435992 0.0
0.8791849907235619 0.5058349907235621 0.0
0.9140494619666046 0.5406994619666047 0.0
0.9480827272727271 0.5747327272727272 0.0
0.9812847866419294 0.6079347866419295 0.0
1.0136556400742114 0.6403056400742114 0.0
1.0451952875695731 0.6718452875695732 0.0
1.0759037291280147 0.7025537291280147 0.0
1.105780964749536 0.7324309647495362 0.0
1.1348269944341371 0.7614769944341373 0.0
1.163041818181818 0.789691818181818 0.0
1.1904254359925786 0.8170754359925786 0.0
1.216977847866419 0.843627847866419 0.0
1.2426990538033393 0.8693490538033394 0.0
1.2675890538033392 0.8942390538033393 0.0
1.291647847866419 0.9182978478664192 0.0
1.3148754359925787 0.9415254359925787 0.0
1.3372718181818182 0.9639218181818181 0.0
1.3588369944341372 0.9854869944341373 0.0
1.379570964749536 1.0062209647495362 0.0
1.3994737291280148 1.0261237291280147 0.0
1.418545287569573 1.0451952875695731 0.0
1.4367856400742112 1.0634356400742113 0.0
1.4541947866419291 1.0808447866419293 0.0
1.470772727272727 1.097422727272727 0.0
1.4865194619666047 1.1131694619666048 0.0
1.501434990723562 1.128084990723562 0.0
1.5155193135435991 1.1421693135435993 0.0
1.528772430426716 1.1554224304267162 0.0
1.5411943413729128 1.1678443413729127 0.0
1.5527850463821888 1.179435046382189 0.0
1.5635445454545451 1.1901945454545453 0.0
1.573472838589981 1.2001228385899811 0.0
1.5825699257884969 1.209219925788497 0.0
1.5908358070500925 1.2174858070500927 0.0
1.5982704823747678 1.224920482374768 0.0
1.604873951762523 1.2315239517625232 0.0
1.6106462152133578 1.237296215213358 0.0
1.6155872727272724 1.2422372727272726 0.0

CELLS 200 700
4 0 101 102 1
4 1 102 103 2
4 2 103 104 3
4 3 104 105 4
4 4 105 106 5
4 5 106 107 6
4 6 107 108 7
4 7 108 109 8
4 8 109 110 9
4 9 110 111 10
4 10 111 112 11
4 11 112 113 12
4 12 113 114 13
4 13 114 115 14
4 14 115 116 15
4 15 116 117 16
4 16 117 118 17
4 17 118 119 18
4 18 119 120 19
4 19 120 121 20
4 20 121 122 21
4 21 122 123 22
4 22 123 124 23
4 23 124 125 24
4 24 125 126 25
4 25 126 127 26
4 26 127 128 27
4 27 128 129 28
4 28 129 130 29
4 29 130 131 30
4 30 131 132 31
4 31 132 133 32
4 32 133 134 33
4 33 134 135 34
4 34 135 136 35
4 35 136 137 36
4 36 137 138 37
4 37 138 139 38
4 38 139 140 39
4 39 140 141 40
4 40 141 142 41
4 41 142 143 42
4 42 143 144 43
4 43 144 145 44
4 44 145 146 45
4 45 146 147 46
4 46 147 148 47
4 47 148 149 48
4 48 149 150 49
4 49 150 151 50
4 50 151 152 51
4 51 152 153 52
4 52 153 154 53
4 53 154 155 54
4 54 155 156 55
4 55 156 157 56
4 56 157 158 57
4 57 158 159 58
4 58 159 160 59
4 59 160 161 60
4 60 161 162 61
4 61 162 163 62
4 62 163 164 63
4 63 164 165 64
4 64 165 166 65
4 65 166 167 66
4 66 167 168 67
4 67 168 169 68
4 68 169 170 69
4 69 170 171 70
4 70 171 172 71
4 71 172 173 72
4 72 173 174 73
4 73 174 175 74
4 74 175 176 75
4 75 176 177 76
4 76 177 178 77
4 77 178 179 78
4 78 179 180 79
4 79 180 181 80
4 80 181 182 81
4 81 182 183 82
4 82 183 184 83
4 83 184 185 84
4 84 185 186 85
4 85 186 187 86
4 86 187 188 87
4 87 188 189 88
4 88 189 190 89
4 89 190 191 90
4 90 191 192 91
4 91 192 193 92
4 92 193 194 93
4 93 194 195 94
4 94 195 196 95
4 95 196 197 96
4 96 197 198 97
4 97 198 199 98
4 98 199 200 99
4 99 200 201 100
1 202
1 203
1 204
1 205
1 206
1 207
1 208
1 209
1 210
1 211
1 212
1 213
1 214
1 215
1 216
1 217
1 218
1 219
1 220
1 221
1 222
1 223
1 224
1 225
1 226
1 227
1 228
1 229
1 230
1 231
1 232
1 233
1 234
1 235
1 236
1 237
1 238
1 239
1 240
1 241
1 242
1 243
1 244
1 245
1 246
1 247
1 248
1 249
1 250
1 251
1 252
1 253
1 254
1 255
1 256
1 257
1 258
1 259
1 260
1 261
1 262
1 263
1 264
1 265
1 266
1 267
1 268
1 269
1 270
1 271
1 272
1 273
1 274
1 275
1 276
1 277
1 278
1 279
1 280
1 281
1 282
1 283
1 284
1 285
1 286
1 287
1 288
1 289
1 290
1 291
1 292
1 293
1 294
1 295
1 296
1 297
1 298
1 299
1 300
1 301

CELL_TYPES 200
9
9
9
9
9
9
9
9
9
9
9
9
9
9
9
9
9
9
9
9
9
9
9
9
9
9
9
9
9
9
9
9
9
9
9
9
9
9
9
9
9
9
9
9
9
9
9
9
9
9
9
9
9
9
9
9
9
9
9
9
9
9
9
9
9
9
9
9
9
9
9
9
9
9
9
9
9
9
9
9
9
9
9
9
9
9
9
9
9
9
9
9
9
9
9
9
9
9
9
9
1
1
1
1
1
1
1
1
1
1
1
1
1
1
1
1
1
1
1
1
1
1
1
1
1
1
1
1
1
1
1
1
1
1
1
1
1
1
1
1
1
1
1
1
1
1
1
1
1
1
1
1
1
1
1
1
1
1
1
1
1
1
1
1
1
1
1
1
1
1
1
1
1
1
1
1
1
1
1
1
1
1
1
1
1
1
1
1
1
1
1
1
1
1
1
1
1
1
1
1

CELL_DATA 200

VECTORS Vinf float
49.560019876236645 0.03540652702113644 3.958731656153852
49.5619951770908 0.036316626766808184 3.927346949169193
49.564206093604504 0.03723538395340023 3.8919263093027636
49.56660340657623 0.03811023257105581 3.853112643728959
49.569131936915646 0.03889272615584359 3.811631222542056
49.571733624854275 0.03954278139178927 3.768250488272152
49.574351273008176 0.04003200173160641 3.7237346565459277
49.57693225445185 0.04034534944747053 3.6787975797428523
49.579431443785815 0.04048079870446736 3.634067651745943
49.575741064970074 0.04396630728918872 3.5817139238154345
49.578048869175504 0.04227531540865834 3.538616312618385
49.58022878214086 0.0401731468148641 3.4967955188057878
49.58215117907859 0.039204686967469836 3.4542990519285866
49.58371025213488 0.03976771095662384 3.4215847646099373
49.585173543014164 0.03988330655071038 3.3898858722660115
49.58651643311122 0.03952406104892832 3.359746784007498
49.58772246153558 0.038663128556006364 3.331612484362941
49.58878140719787 0.037270998549272134 3.3058479865108388
49.58968725267344 0.0353135511260537 3.2827583971300327
49.590436432613906 0.03275125251514121 3.262603462365595
49.591026541980845 0.029539176297528433 3.245603224535287
49.59120294310173 0.03045245293101171 3.2297392252821324
49.59599325454615 0.028812861105228026 3.2167145340005376
49.596453190627734 0.027480584148557648 3.2049794029987426
49.59680760844754 0.026132918220975306 3.1952363364866243
49.59705516304529 0.024776600199856155 3.1873522276839497
49.59719631889192 0.02342165227113741 3.1812150291907852
49.59723645215242 0.022079209453709576 3.1767420024701725
49.597186124090186 0.020757234960566008 3.1738736568372365
49.594744891972226 0.02375955299969475 3.1686459291638553
49.59472903083528 0.022178301105842308 3.1694014471013414
49.594051408007324 0.020425091533028114 3.171285180159345
49.59327824785583 0.018854288758521163 3.1745108463773253
49.59240522943251 0.017484370239007327 3.179153236048603
49.591429309966465 0.01633641006963208 3.1852714617497266
49.5896892411462 0.015016674284489712 3.1919904564565535
49.59442297491001 0.010414373340923194 3.205016826091127
49.593799252892175 0.009051820226625063 3.2154193975487084
49.59306689162421 0.007649179591724278 3.22723125004902
49.59218612810825 0.006229153601473093 3.2406327665316574
49.5911404761482 0.004832691629556684 3.2559917863827446
49.58993150206703 0.0034863350353422726 3.2738505927567667
49.58854268430134 0.0021919301955883133 3.2948809118880766
49.586923588111816 0.0009636029895734167 3.3197644746770014
49.585033711451885 -0.00012397535800047499 3.3488096335118276
49.58292023174016 -0.0009276693039900161 3.3810262494271837
49.58088584927547 -0.0014183864411312069 3.411085933533655
49.578727042884 -0.0013782109966435803 3.4345689002131885
49.5773197849198 -0.0008704805042579407 3.4451344283484207
49.57653249740029 -0.00036689311336381397 3.445867042362916
49.57768967728793 0.0002589872842717718 3.447766121874986
49.57809694546529 0.0007695750576763747 3.4469739675935007
49.57911857408158 0.0013863070089285858 3.4362122818735905
49.58088734229508 0.0016262075088395148 3.412328795785127
49.58304378891656 0.0012943555045687532 3.3807665031216154
49.58518374658923 0.0004975253232289321 3.3485704000116785
49.5870976791237 -0.0005860233992661675 3.3195258108287726
49.58873929641148 -0.0018119141869146758 3.294603934244482
49.59014969687224 -0.0031040387592128666 3.273493768502607
49.59137967342945 -0.004445164248284959 3.2555187285478566
49.592448373105654 -0.0058284147228829936 3.2400147448056034
49.593361338611736 -0.007224451726873504 3.2264505197159705
49.59414344017787 -0.008597421343284997 3.214470364316366
49.594836555505395 -0.009936085777729366 3.2039021191200843
49.590958011419026 -0.014002583865129191 3.1939982079989506
49.591650665533635 -0.014996073668299382 3.185782952721915
49.59253528361981 -0.016099632988545092 3.178944127079405
49.59330676124525 -0.017450601640960073 3.1736023423326323
49.593971309826074 -0.01902905684232959 3.169644405849383
49.59453605470765 -0.020817820668193536 3.1669460113981853
49.597655909894954 -0.023182551663769 3.1660438660979047
49.598123737716584 -0.020648355657256482 3.1708191545867876
49.59819066130896 -0.022055099613846267 3.1732402412217966
49.59815593700919 -0.02347758122047074 3.1772305928347193
49.59801294852486 -0.02490525441496991 3.1828562224982475
49.59776020670534 -0.026326772469870457 3.190206646492561
49.59739962642737 -0.02773315655620748 3.1994037634949435
49.59693327606033 -0.029118685476585 3.2105933663951784
49.59447131909566 -0.030742048374233805 3.226622723252693
49.59070329301925 -0.028817806441787358 3.2390184576615573
49.59023869196402 -0.032121446352523286 3.255488234880137
49.58957665754571 -0.0347428265073123 3.2751622009833277
49.58872302624705 -0.03673067502947929 3.2978123701365174
49.58768483899495 -0.03812796396687807 3.3231706949960045
49.586471591708346 -0.038971919945241865 3.350925629711324
49.58509696373586 -0.039294906690675424 3.3807087851276236
49.58358082053252 -0.03912646601361714 3.4120748221079418
49.581951082540776 -0.038496620487679746 3.444481163723355
49.58292321661489 -0.04173005945999385 3.4894066673708415
49.58081181889874 -0.043731295388780095 3.530981106742331
49.578553036042614 -0.04530823375298758 3.5738591859400546
49.58116750249695 -0.04171248574941229 3.6223801339834445
49.578676853644154 -0.041580753177180324 3.666880369363517
49.57610306471327 -0.0412708313178063 3.711580392350468
49.573491398975214 -0.04078490326371601 3.7558579274631088
49.570894602311796 -0.04013809342132837 3.7990047013566044
49.56836998149371 -0.03935881790653085 3.8402616161453023
49.56597570422348 -0.03848712522005183 3.878864880862729
49.56376706163751 -0.03757139031025536 3.9140933560897553
49.56179339105136 -0.03666408927869667 3.9453076817139805
49.560019876236645 0.03540652702113644 3.958731656153852
49.5619951770908 0.036316626766808184 3.927346949169193
49.564206093604504 0.03723538395340023 3.8919263093027636
49.56660340657623 0.03811023257105581 3.853112643728959
49.569131936915646 0.03889272615584359 3.811631222542056
49.571733624854275 0.03954278139178927 3.768250488272152
49.574351273008176 0.04003200173160641 3.7237346565459277
49.57693225445185 0.04034534944747053 3.6787975797428523
49.579431443785815 0.04048079870446736 3.634067651745943
49.575741064970074 0.04396630728918872 3.5817139238154345
49.578048869175504 0.04227531540865834 3.538616312618385
49.58022878214086 0.0401731468148641 3.4967955188057878
49.58215117907859 0.039204686967469836 3.4542990519285866
49.58371025213488 0.03976771095662384 3.4215847646099373
49.585173543014164 0.03988330655071038 3.3898858722660115
49.58651643311122 0.03952406104892832 3.359746784007498
49.58772246153558 0.038663128556006364 3.331612484362941
49.58878140719787 0.037270998549272134 3.3058479865108388
49.58968725267344 0.0353135511260537 3.2827583971300327
49.590436432613906 0.03275125251514121 3.262603462365595
49.591026541980845 0.029539176297528433 3.245603224535287
49.59120294310173 0.03045245293101171 3.2297392252821324
49.59599325454615 0.028812861105228026 3.2167145340005376
49.596453190627734 0.027480584148557648 3.2049794029987426
49.59680760844754 0.026132918220975306 3.1952363364866243
49.59705516304529 0.024776600199856155 3.1873522276839497
49.59719631889192 0.02342165227113741 3.1812150291907852
49.59723645215242 0.022079209453709576 3.1767420024701725
49.597186124090186 0.020757234960566008 3.1738736568372365
49.594744891972226 0.02375955299969475 3.1686459291638553
49.59472903083528 0.022178301105842308 3.1694014471013414
49.594051408007324 0.020425091533028114 3.171285180159345
49.59327824785583 0.018854288758521163 3.1745108463773253
49.59240522943251 0.017484370239007327 3.179153236048603
49.591429309966465 0.01633641006963208 3.1852714617497266
49.5896892411462 0.015016674284489712 3.1919904564565535
49.59442297491001 0.010414373340923194 3.205016826091127
49.593799252892175 0.009051820226625063 3.2154193975487084
49.59306689162421 0.007649179591724278 3.22723125004902
49.59218612810825 0.006229153601473093 3.2406327665316574
49.5911404761482 0.004832691629556684 3.2559917863827446
49.58993150206703 0.0034863350353422726 3.2738505927567667
49.58854268430134 0.0021919301955883133 3.2948809118880766
49.586923588111816 0.0009636029895734167 3.3197644746770014
49.585033711451885 -0.00012397535800047499 3.3488096335118276
49.58292023174016 -0.0009276693039900161 3.3810262494271837
49.58088584927547 -0.0014183864411312069 3.411085933533655
49.578727042884 -0.0013782109966435803 3.4345689002131885
49.5773197849198 -0.0008704805042579407 3.4451344283484207
49.57653249740029 -0.00036689311336381397 3.445867042362916
49.57768967728793 0.0002589872842717718 3.447766121874986
49.57809694546529 0.0007695750576763747 3.4469739675935007
49.57911857408158 0.0013863070089285858 3.4362122818735905
49.58088734229508 0.0016262075088395148 3.412328795785127
49.58304378891656 0.0012943555045687532 3.3807665031216154
49.58518374658923 0.0004975253232289321 3.3485704000116785
49.5870976791237 -0.0005860233992661675 3.3195258108287726
49.58873929641148 -0.0018119141869146758 3.294603934244482
49.59014969687224 -0.0031040387592128666 3.273493768502607
49.59137967342945 -0.004445164248284959 3.2555187285478566
49.592448373105654 -0.0058284147228829936 3.2400147448056034
49.593361338611736 -0.007224451726873504 3.2264505197159705
49.59414344017787 -0.008597421343284997 3.214470364316366
49.594836555505395 -0.009936085777729366 3.2039021191200843
49.590958011419026 -0.014002583865129191 3.1939982079989506
49.591650665533635 -0.014996073668299382 3.185782952721915
49.59253528361981 -0.016099632988545092 3.178944127079405
49.59330676124525 -0.017450601640960073 3.1736023423326323
49.593971309826074 -0.01902905684232959 3.169644405849383
49.59453605470765 -0.020817820668193536 3.1669460113981853
49.597655909894954 -0.023182551663769 3.1660438660979047
49.598123737716584 -0.020648355657256482 3.1708191545867876
49.59819066130896 -0.022055099613846267 3.1732402412217966
49.59815593700919 -0.02347758122047074 3.1772305928347193
49.59801294852486 -0.02490525441496991 3.1828562224982475
49.59776020670534 -0.026326772469870457 3.190206646492561
49.59739962642737 -0.02773315655620748 3.1994037634949435
49.59693327606033 -0.029118685476585 3.2105933663951784
49.59447131909566 -0.030742048374233805 3.226622723252693
49.59070329301925 -0.028817806441787358 3.2390184576615573
49.59023869196402 -0.032121446352523286 3.255488234880137
49.58957665754571 -0.0347428265073123 3.2751622009833277
49.58872302624705 -0.03673067502947929 3.2978123701365174
49.58768483899495 -0.03812796396687807 3.3231706949960045
49.586471591708346 -0.038971919945241865 3.350925629711324
49.58509696373586 -0.039294906690675424 3.3807087851276236
49.58358082053252 -0.03912646601361714 3.4120748221079418
49.581951082540776 -0.038496620487679746 3.444481163723355
49.58292321661489 -0.04173005945999385 3.4894066673708415
49.58081181889874 -0.043731295388780095 3.530981106742331
49.578553036042614 -0.04530823375298758 3.5738591859400546
49.58116750249695 -0.04171248574941229 3.6223801339834445
49.578676853644154 -0.041580753177180324 3.666880369363517
49.57610306471327 -0.0412708313178063 3.711580392350468
49.573491398975214 -0.04078490326371601 3.7558579274631088
49.570894602311796 -0.04013809342132837 3.7990047013566044
49.56836998149371 -0.03935881790653085 3.8402616161453023
49.56597570422348 -0.03848712522005183 3.878864880862729
49.56376706163751 -0.03757139031025536 3.9140933560897553
49.56179339105136 -0.03666408927869667 3.9453076817139805

VECTORS L float
-0.00611906629522879 0.0 0.08332582781486123
-0.011048480638555675 0.0 0.1504516785546113
-0.016332854582837418 0.0 0.22241115932276273
-0.022149570884281565 0.0 0.30161976364201193
-0.028537775120515873 0.0 0.3886105528494566
-0.03549941213736649 0.0 0.48341001070595446
-0.043021072261489435 0.0 0.5858355322063948
-0.05108251705135301 0.0 0.6956115222169863
-0.05965227392709932 0.0 0.8123094057487354
-0.06869702678311639 0.0 0.9354755037686414
-0.07818582899774293 0.0 1.0646884034755373
-0.08807969095037878 0.0 1.1994171672629408
-0.09833515860297481 0.0 1.3390700637264763
-0.10891349455461488 0.0 1.4831195898382306
-0.11976487668782645 0.0 1.630887297452427
-0.13084014426141405 0.0 1.7817037446544863
-0.14209259944132777 0.0 1.934933027943511
-0.15347774031014252 0.0 2.089969146513187
-0.1649539443967968 0.0 2.2462453101557327
-0.1764827068593431 0.0 2.4032371826938044
-0.1880282955280895 0.0 2.5604581845619014
-0.1995555815092389 0.0 2.717429951249062
-0.21103777277549488 0.0 2.873787644764388
-0.2224508221728034 0.0 3.0292038051782995
-0.2337565924266243 0.0 3.1831591016291343
-0.24494134299982376 0.0 3.3354664236042657
-0.25598906529995097 0.0 3.4859077755544137
-0.2668854175737018 0.0 3.634287859960525
-0.2776165744344274 0.0 3.78041841087943
-0.28816456777719274 0.0 3.9240547492791116
-0.29853998818792365 0.0 4.065341091498588
-0.308720471212357 0.0 4.203972891619383
-0.3186915797018839 0.0 4.339753553085571
-0.3284384049348605 0.0 4.472480057738383
-0.33794384367326247 0.0 4.601919503792167
-0.34718680014950914 0.0 4.727784621553764
-0.3561593283712265 0.0 4.849967207195916
-0.36479327051161536 0.0 4.967539127721517
-0.3730623656801562 0.0 5.080142777846339
-0.3809256287403887 0.0 5.187220046208472
-0.3883339901417055 0.0 5.288102732672861
-0.39522905586170254 0.0 5.381995661959248
-0.40153036986510077 0.0 5.467803231336939
-0.40716242240690714 0.0 5.544497193732596
-0.4120169226501108 0.0 5.610602908538757
-0.4159643678249947 0.0 5.664356883586789
-0.4188599546405646 0.0 5.703787273253476
-0.4206257048116947 0.0 5.727832215345111
-0.42127970530897235 0.0 5.7367380075359025
-0.4198778737280574 0.0 5.717648693692739
-0.4199124103739269 0.0 5.718118993321501
-0.4213309102438548 0.0 5.737435286071782
-0.420676803597946 0.0 5.728528048411677
-0.4188972485160452 0.0 5.704295119205279
-0.4159751004500597 0.0 5.6645030341308455
-0.41200875142549753 0.0 5.610491637632003
-0.40713626750046183 0.0 5.544141031676848
-0.4014859687789217 0.0 5.467198603590933
-0.3951654971333418 0.0 5.381130156766136
-0.388256544294118 0.0 5.2870481208988265
-0.38083536117523137 0.0 5.185990835863516
-0.3729600015047869 0.0 5.07874884301385
-0.3646802436631496 0.0 4.965999994909529
-0.35603873853143087 0.0 4.8483250860385
-0.3470682432840489 0.0 4.72617018423915
-0.33780611200089955 0.0 4.600043955291424
-0.32827896786872524 0.0 4.4703089380153544