# vtk DataFile Version 4.0
[MyVLM domain - lattices] 
ASCII
DATASET UNSTRUCTURED_GRID
POINTS 302 float
1.2444999999999997 -1.2445 0.0
1.2399745454545452 -1.2399745454545454 0.0
1.2346178849721705 -1.2346178849721707 0.0
1.2284300185528754 -1.2284300185528756 0.0
1.2214109461966602 -1.2214109461966605 0.0
1.2135606679035247 -1.213560667903525 0.0
1.2048791836734691 -1.2048791836734694 0.0
1.1953664935064932 -1.1953664935064934 0.0
1.1850225974025972 -1.1850225974025974 0.0
1.1738474953617808 -1.173847495361781 0.0
1.1618411873840442 -1.1618411873840444 0.0
1.1490036734693874 -1.1490036734693876 0.0
1.1353349536178106 -1.1353349536178108 0.0
1.1208350278293133 -1.1208350278293135 0.0
1.1055038961038959 -1.105503896103896 0.0
1.0893415584415582 -1.0893415584415584 0.0
1.0723480148423004 -1.0723480148423006 0.0
1.054523265306122 -1.0545232653061223 0.0
1.0358673098330238 -1.035867309833024 0.0
1.0163801484230053 -1.0163801484230055 0.0
0.9960617810760664 -0.9960617810760668 0.0
0.9749122077922076 -0.9749122077922077 0.0
0.9529314285714284 -0.9529314285714284 0.0
0.9301194434137288 -0.930119443413729 0.0
0.9064762523191091 -0.9064762523191096 0.0
0.8820018552875695 -0.8820018552875695 0.0
0.8566962523191093 -0.8566962523191094 0.0
0.8305594434137288 -0.8305594434137291 0.0
0.8035914285714284 -0.8035914285714285 0.0
0.7757922077922076 -0.7757922077922077 0.0
0.7471617810760666 -0.7471617810760667 0.0
0.7177001484230053 -0.7177001484230054 0.0
0.6874073098330239 -0.687407309833024 0.0
0.6562832653061222 -0.6562832653061225 0.0
0.6243280148423004 -0.6243280148423005 0.0
0.5915415584415582 -0.5915415584415583 0.0
0.5579238961038958 -0.5579238961038959 0.0
0.5234750278293133 -0.5234750278293134 0.0
0.48819495361781057 -0.48819495361781057 0.0
0.4520836734693877 -0.4520836734693877 0.0
0.4151411873840445 -0.4151411873840446 0.0
0.37736749536178105 -0.37736749536178116 0.0
0.3387625974025974 -0.3387625974025974 0.0
0.2993264935064933 -0.29932649350649343 0.0
0.25905918367346925 -0.25905918367346925 0.0
0.21796066790352486 -0.21796066790352486 0.0
0.17603094619666027 -0.1760309461966605 0.0
0.13327001855287546 -0.13327001855287568 0.0
0.08967788497217066 -0.08967788497217066 0.0
0.045254545454545436 -0.045254545454545436 0.0
0.0 0.0 0.0
0.04525454545454545 0.04525454545454546 0.0
0.08967788497217066 0.08967788497217068 0.0
0.13327001855287568 0.1332700185528757 0.0
0.17603094619666046 0.1760309461966605 0.0
0.21796066790352497 0.21796066790352508 0.0
0.2590591836734693 0.25905918367346936 0.0
0.29932649350649343 0.2993264935064935 0.0
0.3387625974025973 0.33876259740259734 0.0
0.37736749536178094 0.377367495361781 0.0
0.41514118738404443 0.4151411873840445 0.0
0.45208367346938766 0.4520836734693878 0.0
0.48819495361781057 0.4881949536178107 0.0
0.5234750278293133 0.5234750278293134 0.0
0.5579238961038959 0.557923896103896 0.0
0.5915415584415582 0.5915415584415583 0.0
0.6243280148423003 0.6243280148423004 0.0
0.6562832653061222 0.6562832653061225 0.0
0.687407309833024 0.6874073098330241 0.0
0.7177001484230054 0.7177001484230056 0.0
0.7471617810760667 0.7471617810760669 0.0
0.7757922077922076 0.7757922077922077 0.0
0.8035914285714284 0.8035914285714285 0.0
0.8305594434137288 0.830559443413729 0.0
0.8566962523191093 0.8566962523191094 0.0
0.8820018552875692 0.8820018552875695 0.0
0.9064762523191091 0.9064762523191093 0.0
0.9301194434137288 0.9301194434137292 0.0
0.9529314285714284 0.9529314285714284 0.0
0.9749122077922076 0.9749122077922077 0.0
0.9960617810760666 0.9960617810760668 0.0
1.0163801484230053 1.0163801484230055 0.0
1.0358673098330238 1.035867309833024 0.0
1.054523265306122 1.0545232653061223 0.0
1.0723480148423001 1.0723480148423004 0.0
1.0893415584415582 1.0893415584415584 0.0
1.1055038961038959 1.105503896103896 0.0
1.120835027829313 1.1208350278293133 0.0
1.1353349536178106 1.1353349536178106 0.0
1.1490036734693874 1.1490036734693876 0.0
1.1618411873840444 1.1618411873840446 0.0
1.1738474953617808 1.173847495361781 0.0
1.1850225974025972 1.1850225974025972 0.0
1.1953664935064932 1.1953664935064934 0.0
1.2048791836734691 1.2048791836734694 0.0
1.2135606679035245 1.2135606679035247 0.0
1.22141094619666 1.2214109461966602 0.0
1.2284300185528754 1.2284300185528756 0.0
1.2346178849721703 1.2346178849721705 0.0
1.2399745454545452 1.2399745454545454 0.0
1.2444999999999997 1.2445 0.0
1.7422999999999997 -1.2445 0.0
1.7377745454545452 -1.2399745454545454 0.0
1.7324178849721703 -1.2346178849721707 0.0
1.7262300185528754 -1.2284300185528756 0.0
1.7192109461966603 -1.2214109461966605 0.0
1.7113606679035245 -1.213560667903525 0.0
1.7026791836734692 -1.2048791836734694 0.0
1.6931664935064934 -1.1953664935064934 0.0
1.6828225974025972 -1.1850225974025974 0.0
1.6716474953617806 -1.173847495361781 0.0
1.6596411873840444 -1.1618411873840444 0.0
1.6468036734693878 -1.1490036734693876 0.0
1.6331349536178106 -1.1353349536178108 0.0
1.6186350278293133 -1.1208350278293135 0.0
1.603303896103896 -1.105503896103896 0.0
1.5871415584415582 -1.0893415584415584 0.0
1.5701480148423004 -1.0723480148423006 0.0
1.552323265306122 -1.0545232653061223 0.0
1.5336673098330238 -1.035867309833024 0.0
1.5141801484230053 -1.0163801484230055 0.0
1.4938617810760666 -0.9960617810760668 0.0
1.4727122077922075 -0.9749122077922077 0.0
1.4507314285714283 -0.9529314285714284 0.0
1.4279194434137288 -0.930119443413729 0.0
1.4042762523191092 -0.9064762523191096 0.0
1.3798018552875693 -0.8820018552875695 0.0
1.3544962523191093 -0.8566962523191094 0.0
1.328359443413729 -0.8305594434137291 0.0
1.3013914285714283 -0.8035914285714285 0.0
1.2735922077922077 -0.7757922077922077 0.0
1.2449617810760665 -0.7471617810760667 0.0
1.2155001484230055 -0.7177001484230054 0.0
1.1852073098330238 -0.687407309833024 0.0
1.1540832653061224 -0.6562832653061225 0.0
1.1221280148423003 -0.6243280148423005 0.0
1.0893415584415582 -0.5915415584415583 0.0
1.055723896103896 -0.5579238961038959 0.0
1.0212750278293132 -0.5234750278293134 0.0
0.9859949536178108 -0.48819495361781057 0.0
0.9498836734693876 -0.4520836734693877 0.0
0.9129411873840445 -0.4151411873840446 0.0
0.875167495361781 -0.37736749536178116 0.0
0.8365625974025973 -0.3387625974025974 0.0
0.7971264935064933 -0.29932649350649343 0.0
0.7568591836734693 -0.25905918367346925 0.0
0.7157606679035249 -0.21796066790352486 0.0
0.6738309461966603 -0.1760309461966605 0.0
0.6310700185528755 -0.13327001855287568 0.0
0.5874778849721707 -0.08967788497217066 0.0
0.5430545454545455 -0.045254545454545436 0.0
0.4978 0.0 0.0
0.5430545454545455 0.04525454545454546 0.0
0.5874778849721707 0.08967788497217068 0.0
0.6310700185528757 0.1332700185528757 0.0
0.6738309461966605 0.1760309461966605 0.0
0.715760667903525 0.21796066790352508 0.0
0.7568591836734693 0.25905918367346936 0.0
0.7971264935064934 0.2993264935064935 0.0
0.8365625974025973 0.33876259740259734 0.0
0.875167495361781 0.377367495361781 0.0
0.9129411873840445 0.4151411873840445 0.0
0.9498836734693876 0.4520836734693878 0.0
0.9859949536178105 0.4881949536178107 0.0
1.0212750278293132 0.5234750278293134 0.0
1.055723896103896 0.557923896103896 0.0
1.0893415584415582 0.5915415584415583 0.0
1.1221280148423003 0.6243280148423004 0.0
1.1540832653061224 0.6562832653061225 0.0
1.185207309833024 0.6874073098330241 0.0
1.2155001484230055 0.7177001484230056 0.0
1.2449617810760667 0.7471617810760669 0.0
1.2735922077922077 0.7757922077922077 0.0
1.3013914285714283 0.8035914285714285 0.0
1.3283594434137287 0.830559443413729 0.0
1.3544962523191093 0.8566962523191094 0.0
1.3798018552875693 0.8820018552875695 0.0
1.4042762523191092 0.9064762523191093 0.0
1.427919443413729 0.9301194434137292 0.0
1.4507314285714283 0.9529314285714284 0.0
1.4727122077922075 0.9749122077922077 0.0
1.4938617810760666 0.9960617810760668 0.0
1.5141801484230053 1.0163801484230055 0.0
1.5336673098330238 1.035867309833024 0.0
1.552323265306122 1.0545232653061223 0.0
1.5701480148423002 1.0723480148423004 0.0
1.5871415584415582 1.0893415584415584 0.0
1.603303896103896 1.105503896103896 0.0
1.6186350278293131 1.1208350278293133 0.0
1.6331349536178106 1.1353349536178106 0.0
1.6468036734693874 1.1490036734693876 0.0
1.6596411873840444 1.1618411873840446 0.0
1.6716474953617806 1.173847495361781 0.0
1.6828225974025972 1.1850225974025972 0.0
1.6931664935064934 1.1953664935064934 0.0
1.7026791836734692 1.2048791836734694 0.0
1.7113606679035245 1.2135606679035247 0.0
1.71921094619666 1.2214109461966602 0.0
1.7262300185528754 1.2284300185528756 0.0
1.7324178849721703 1.2346178849721705 0.0
1.7377745454545452 1.2399745454545454 0.0
1.7422999999999997 1.2445 0.0
1.6155872727272724 -1.2422372727272726 0.0
1.6106462152133578 -1.237296215213358 0.0
1.604873951762523 -1.2315239517625232 0.0
1.598270482374768 -1.224920482374768 0.0
1.5908358070500925 -1.2174858070500927 0.0
1.582569925788497 -1.2092199257884972 0.0
1.5734728385899812 -1.2001228385899814 0.0
1.5635445454545454 -1.1901945454545453 0.0
1.552785046382189 -1.1794350463821892 0.0
1.5411943413729126 -1.1678443413729127 0.0
1.5287724304267158 -1.155422430426716 0.0
1.5155193135435991 -1.142169313543599 0.0
1.501434990723562 -1.1280849907235622 0.0
1.4865194619666047 -1.1131694619666048 0.0
1.4707727272727271 -1.0974227272727273 0.0
1.4541947866419294 -1.0808447866419293 0.0
1.4367856400742112 -1.0634356400742113 0.0
1.418545287569573 -1.0451952875695731 0.0
1.3994737291280146 -1.0261237291280147 0.0
1.379570964749536 -1.0062209647495362 0.0
1.358836994434137 -0.9854869944341371 0.0
1.337271818181818 -0.9639218181818181 0.0
1.3148754359925787 -0.9415254359925787 0.0
1.291647847866419 -0.9182978478664192 0.0
1.2675890538033394 -0.8942390538033393 0.0
1.2426990538033393 -0.8693490538033395 0.0
1.2169778478664193 -0.8436278478664192 0.0
1.1904254359925788 -0.8170754359925788 0.0
1.163041818181818 -0.7896918181818181 0.0
1.1348269944341371 -0.7614769944341371 0.0
1.105780964749536 -0.7324309647495362 0.0
1.0759037291280147 -0.7025537291280148 0.0
1.0451952875695731 -0.6718452875695733 0.0
1.0136556400742114 -0.6403056400742114 0.0
0.9812847866419293 -0.6079347866419293 0.0
0.9480827272727271 -0.5747327272727272 0.0
0.9140494619666047 -0.5406994619666048 0.0
0.8791849907235622 -0.5058349907235622 0.0
0.8434893135435992 -0.47013931354359917 0.0
0.8069624304267162 -0.43361243042671627 0.0
0.7696043413729128 -0.3962543413729128 0.0
0.7314150463821893 -0.3580650463821894 0.0
0.6923945454545455 -0.3190445454545454 0.0
0.6525428385899814 -0.27919283858998134 0.0
0.6118599257884971 -0.23850992578849706 0.0
0.5703458070500929 -0.19699580705009279 0.0
0.5280004823747682 -0.15465048237476808 0.0
0.4848239517625232 -0.11147395176252317 0.0
0.4408162152133581 -0.06746621521335805 0.0
0.39597727272727273 -0.022627272727272718 0.0
0.39597727272727273 0.02262727272727273 0.0
0.4408162152133581 0.06746621521335806 0.0
0.4848239517625232 0.11147395176252319 0.0
0.528000482374768 0.15465048237476808 0.0
0.5703458070500929 0.19699580705009276 0.0
0.6118599257884971 0.23850992578849717 0.0
0.6525428385899814 0.2791928385899814 0.0
0.6923945454545455 0.3190445454545454 0.0
0.7314150463821891 0.3580650463821891 0.0
0.7696043413729128 0.39625434137291277 0.0
0.8069624304267162 0.43361243042671616 0.0
0.8434893135435992 0.4701393135435992 0.0
0.8791849907235619 0.5058349907235621 0.0
0.9140494619666046 0.5406994619666047 0.0
0.9480827272727271 0.5747327272727272 0.0
0.9812847866419294 0.6079347866419295 0.0
1.0136556400742114 0.6403056400742114 0.0
1.0451952875695731 0.6718452875695732 0.0
1.0759037291280147 0.7025537291280147 0.0
1.105780964749536 0.7324309647495362 0.0
1.1348269944341371 0.7614769944341373 0.0
1.163041818181818 0.789691818181818 0.0
1.1904254359925786 0.8170754359925786 0.0
1.216977847866419 0.843627847866419 0.0
1.2426990538033393 0.8693490538033394 0.0
1.2675890538033392 0.8942390538033393 0.0
1.291647847866419 0.9182978478664192 0.0
1.3148754359925787 0.9415254359925787 0.0
1.3372718181818182 0.9639218181818181 0.0
1.3588369944341372 0.9854869944341373 0.0
1.379570964749536 1.0062209647495362 0.0
1.3994737291280148 1.0261237291280147 0.0
1.418545287569573 1.0451952875695731 0.0
1.4367856400742112 1.0634356400742113 0.0
1.4541947866419291 1.0808447866419293 0.0
1.470772727272727 1.097422727272727 0.0
1.4865194619666047 1.1131694619666048 0.0
1.501434990723562 1.128084990723562 0.0
1.5155193135435991 1.1421693135435993 0.0
1.528772430426716 1.1554224304267162 0.0
1.5411943413729128 1.1678443413729127 0.0
1.5527850463821888 1.179435046382189 0.0
1.5635445454545451 1.1901945454545453 0.0
1.573472838589981 1.2001228385899811 0.0
1.5825699257884969 1.209219925788497 0.0
1.5908358070500925 1.2174858070500927 0.0
1.5982704823747678 1.224920482374768 0.0
1.604873951762523 1.2315239517625232 0.0
1.6106462152133578 1.237296215213358 0.0
1.6155872727272724 1.2422372727272726 0.0

CELLS 200 700
4 0 101 102 1
4 1 102 103 2
4 2 103 104 3
4 3 104 105 4
4 4 105 106 5
4 5 106 107 6
4 6 107 108 7
4 7 108 109 8
4 8 109 110 9
4 9 110 111 10
4 10 111 112 11
4 11 112 113 12
4 12 113 114 13
4 13 114 115 14
4 14 115 116 15
4 15 116 117 16
4 16 117 118 17
4 17 118 119 18
4 18 119 120 19
4 19 120 121 20
4 20 121 122 21
4 21 122 123 22
4 22 123 124 23
4 23 124 125 24
4 24 125 126 25
4 25 126 127 26
4 26 127 128 27
4 27 128 129 28
4 28 129 130 29
4 29 130 131 30
4 30 131 132 31
4 31 132 133 32
4 32 133 134 33
4 33 134 135 34
4 34 135 136 35
4 35 136 137 36
4 36 137 138 37
4 37 138 139 38
4 38 139 140 39
4 39 140 141 40
4 40 141 142 41
4 41 142 143 42
4 42 143 144 43
4 43 144 145 44
4 44 145 146 45
4 45 146 147 46
4 46 147 148 47
4 47 148 149 48
4 48 149 150 49
4 49 150 151 50
4 50 151 152 51
4 51 152 153 52
4 52 153 154 53
4 53 154 155 54
4 54 155 156 55
4 55 156 157 56
4 56 157 158 57
4 57 158 159 58
4 58 159 160 59
4 59 160 161 60
4 60 161 162 61
4 61 162 163 62
4 62 163 164 63
4 63 164 165 64
4 64 165 166 65
4 65 166 167 66
4 66 167 168 67
4 67 168 169 68
4 68 169 170 69
4 69 170 171 70
4 70 171 172 71
4 71 172 173 72
4 72 173 174 73
4 73 174 175 74
4 74 175 176 75
4 75 176 177 76
4 76 177 178 77
4 77 178 179 78
4 78 179 180 79
4 79 180 181 80
4 80 181 182 81
4 81 182 183 82
4 82 183 184 83
4 83 184 185 84
4 84 185 186 85
4 85 186 187 86
4 86 187 188 87
4 87 188 189 88
4 88 189 190 89
4 89 190 191 90
4 90 191 192 91
4 91 192 193 92
4 92 193 194 93
4 93 194 195 94
4 94 195 196 95
4 95 196 197 96
4 96 197 198 97
4 97 198 199 98
4 98 199 200 99
4 99 200 201 100
1 202
1 203
1 204
1 205
1 206
1 207
1 208
1 209
1 210
1 211
1 212
1 213
1 214
1 215
1 216
1 217
1 218
1 219
1 220
1 221
1 222
1 223
1 224
1 225
1 226
1 227
1 228
1 229
1 230
1 231
1 232
1 233
1 234
1 235
1 236
1 237
1 238
1 239
1 240
1 241
1 242
1 243
1 244
1 245
1 246
1 247
1 248
1 249
1 250
1 251
1 252
1 253
1 254
1 255
1 256
1 257
1 258
1 259
1 260
1 261
1 262
1 263
1 264
1 265
1 266
1 267
1 268
1 269
1 270
1 271
1 272
1 273
1 274
1 275
1 276
1 277
1 278
1 279
1 280
1 281
1 282
1 283
1 284
1 285
1 286
1 287
1 288
1 289
1 290
1 291
1 292
1 293
1 294
1 295
1 296
1 297
1 298
1 299
1 300
1 301

CELL_TYPES 200
9
9
9
9
9
9
9
9
9
9
9
9
9
9
9
9
9
9
9
9
9
9
9
9
9
9
9
9
9
9
9
9
9
9
9
9
9
9
9
9
9
9
9
9
9
9
9
9
9
9
9
9
9
9
9
9
9
9
9
9
9
9
9
9
9
9
9
9
9
9
9
9
9
9
9
9
9
9
9
9
9
9
9
9
9
9
9
9
9
9
9
9
9
9
9
9
9
9
9
9
1
1
1
1
1
1
1
1
1
1
1
1
1
1
1
1
1
1
1
1
1
1
1
1
1
1
1
1
1
1
1
1
1
1
1
1
1
1
1
1
1
1
1
1
1
1
1
1
1
1
1
1
1
1
1
1
1
1
1
1
1
1
1
1
1
1
1
1
1
1
1
1
1
1
1
1
1
1
1
1
1
1
1
1
1
1
1
1
1
1
1
1
1
1
1
1
1
1
1
1

CELL_DATA 200

VECTORS Vinf float
49.53851618817733 0.02867950847186743 4.215842926250024
49.54086256881417 0.029611141148136864 4.1817437597848315
49.54348653330283 0.03053548060441045 4.143302080101114
49.54632943861285 0.03139291590225733 4.101232997397013
49.54932582912239 0.0321284844155193 4.0563419189172105
49.55329170847698 0.035357831169631086 4.011097647318124
49.5563940289615 0.035421669218106876 3.9637756786294953
49.5594795795251 0.035389064148679816 3.9158693307640626
49.56249548239463 0.03529027783442393 3.8680811123807097
49.56539757871548 0.03516904274433908 3.821028476900761
49.56815086998245 0.03507895378318487 3.775244610050458
49.570728885639916 0.03507966537018118 3.731191518225056
49.57311248068852 0.035233687033054066 3.6892773362542
49.57368283771519 0.030106771563562843 3.6479911471008535
49.57551146719145 0.02912667526064605 3.6110984723471735
49.57714382574131 0.02807547748939921 3.5767798135596984
49.57741398484843 0.02439445743558678 3.53516689961406
49.578464183663336 0.02432133636616615 3.509521135068035
49.579400369472296 0.024022060351280433 3.4855342952077173
49.580219745599464 0.023476807782078574 3.4633453910562335
49.58091955483115 0.022665285954564057 3.443042373129244
49.581497405526115 0.02156748697481561 3.424669114063092
49.581952177171516 0.020163820660983316 3.4082342500027525
49.582285148975345 0.01843429127558461 3.393721972797085
49.582500641740396 0.016356678734238135 3.381104539330264
49.582605347555656 0.013904235572338079 3.370354870582814
49.58539867749441 0.015334078661007888 3.3623941763845506
49.58556906906654 0.014292075701723033 3.3549987909104204
49.58472154175206 0.014799491317956374 3.349674639836658
49.5848637178812 0.013647585448061644 3.3461711767047104
49.58496554378045 0.012416096564975072 3.343711357835257
49.58502159001079 0.011113048737686369 3.3423942977075787
49.585030047398625 0.00974650120566346 3.3422885179735
49.58499111827284 0.008322539623924161 3.343409249499217
49.584905431283644 0.00684557424115748 3.3457068735781266
49.58514625741421 0.006391731718368771 3.34729415421346
49.58485707122358 0.005434282581573925 3.3521424798203894
49.582270278371844 0.004501818348918857 3.35857351957352
49.58180551719675 0.0034278861267108703 3.3672230028663654
49.58127690616178 0.0023478412003027347 3.3773803638245083
49.58065230298076 0.0012684891138754922 3.3895422643343522
49.57989079575134 0.00020737365884292394 3.404334701552589
49.57894847452725 -0.0008022196526020324 3.422460248253672
49.57956391993129 -0.0014866507348108543 3.4408636509123514
49.57796922040526 -0.0023788161588869524 3.4665446036520686
49.576069739013484 -0.002988407335572168 3.4957123331171713
49.57408550264392 -0.003062765448254075 3.5242155754978275
49.57255068901996 -0.0024307414214891384 3.544312478236904
49.57195367482001 -0.0013669249998911207 3.550046412835113
49.572112252031516 -0.0005120350866920339 3.544938967288823
49.57267524057116 0.00028640948991254055 3.54442322013716
49.572227141129574 0.00048798688179787554 3.550486930000729
49.572776973237545 0.0019405545423744957 3.544911518236636
49.57426379259277 0.002768394370298623 3.5247945389422033
49.57618705811263 0.002707622534856227 3.496137654746621
49.57800398849858 0.00194740195217083 3.4667480444780834
49.579922569594544 0.0015308822561796167 3.439967816771832
49.578987740467625 0.0009537818103177764 3.422617748355147
49.57994133797955 -0.00010677913877723561 3.4045438033408306
49.58072316926431 -0.0012102180177191867 3.389740364868248
49.58137018770498 -0.002326738532349984 3.377556547718902
49.58191755596571 -0.003438411972496607 3.3673955447977373
49.58239540001618 -0.004536545647435922 3.3587650003878227
49.584885917807426 -0.005394637997965558 3.352146970277025
49.585171265422645 -0.006353743808232749 3.347222894483703
49.584828048067756 -0.007216462626838444 3.3456176241310294
49.584986056513756 -0.008476806717721743 3.343033125538913
49.585061770277264 -0.009771313546591519 3.3418300010080504
49.58506524612496 -0.011090134845404546 3.341938181699544
49.585002937413556 -0.01242186003937382 3.3432703194313613
49.58488076333102 -0.013752784170650683 3.345719113171324
49.58470682023839 -0.015068973536717168 3.3491672136107646
49.58562090536096 -0.014221950155393508 3.35446445574355
49.58545842627081 -0.015261913877562315 3.3618028867146075
49.58259286844167 -0.013753382408760007 3.369633813672118
49.58250041567095 -0.016199081563778715 3.380333452320861
49.582296710097516 -0.01827171558913836 3.3928985026700356
49.58197509151487 -0.019997869194069852 3.407356012481613
49.58153126924628 -0.021399613958174243 3.423733814839962
49.58096398789554 -0.02249680819184598 3.4420479366990433
49.58027438375475 -0.0233089126381413 3.462290044543769
49.579464856702266 -0.02385581097330972 3.4844166017365636
49.57853816632996 -0.02415767459160328 3.5083400012970607
49.57749710790272 -0.024234205265455392 3.5339215818107625
49.577283587885546 -0.02800006006068793 3.575588588459879
49.57565797044846 -0.029051738286883504 3.609852259862979
49.573836019513195 -0.03003239284165909 3.6466900599912075
49.57320983233818 -0.03518868551742946 3.687737311299399
49.570838815483576 -0.03503407575750517 3.7295996699594585
49.56827309781338 -0.0350328725029845 3.773600462011349
49.56553177196489 -0.03512257862500037 3.8193319079657844
49.562641253485296 -0.03524355273429953 3.866332380073412
49.559636481477625 -0.03534221036162689 3.9140691174465725
49.556561550420064 -0.03537482382385697 3.9619251486326794
49.55346926938814 -0.035311128136388266 4.009198500668675
49.54953498701178 -0.03206327907699878 4.0545749552917805
49.546543787223854 -0.03132915803242237 4.099422678323603
49.54370566877032 -0.03047316999906347 4.141451805713268
49.54108602645182 -0.029550231462192926 4.179857445488097
49.53874344779973 -0.02861990554485239 4.2139249497095275
49.53851618817733 0.02867950847186743 4.215842926250024
49.54086256881417 0.029611141148136864 4.1817437597848315
49.54348653330283 0.03053548060441045 4.143302080101114
49.54632943861285 0.03139291590225733 4.101232997397013
49.54932582912239 0.0321284844155193 4.0563419189172105
49.55329170847698 0.035357831169631086 4.011097647318124
49.5563940289615 0.035421669218106876 3.9637756786294953
49.5594795795251 0.035389064148679816 3.9158693307640626
49.56249548239463 0.03529027783442393 3.8680811123807097
49.56539757871548 0.03516904274433908 3.821028476900761
49.56815086998245 0.03507895378318487 3.775244610050458
49.570728885639916 0.03507966537018118 3.731191518225056
49.57311248068852 0.035233687033054066 3.6892773362542
49.57368283771519 0.030106771563562843 3.6479911471008535
49.57551146719145 0.02912667526064605 3.6110984723471735
49.57714382574131 0.02807547748939921 3.5767798135596984
49.57741398484843 0.02439445743558678 3.53516689961406
49.578464183663336 0.02432133636616615 3.509521135068035
49.579400369472296 0.024022060351280433 3.4855342952077173
49.580219745599464 0.023476807782078574 3.4633453910562335
49.58091955483115 0.022665285954564057 3.443042373129244
49.581497405526115 0.02156748697481561 3.424669114063092
49.581952177171516 0.020163820660983316 3.4082342500027525
49.582285148975345 0.01843429127558461 3.393721972797085
49.582500641740396 0.016356678734238135 3.381104539330264
49.582605347555656 0.013904235572338079 3.370354870582814
49.58539867749441 0.015334078661007888 3.3623941763845506
49.58556906906654 0.014292075701723033 3.3549987909104204
49.58472154175206 0.014799491317956374 3.349674639836658
49.5848637178812 0.013647585448061644 3.3461711767047104
49.58496554378045 0.012416096564975072 3.343711357835257
49.58502159001079 0.011113048737686369 3.3423942977075787
49.585030047398625 0.00974650120566346 3.3422885179735
49.58499111827284 0.008322539623924161 3.343409249499217
49.584905431283644 0.00684557424115748 3.3457068735781266
49.58514625741421 0.006391731718368771 3.34729415421346
49.58485707122358 0.005434282581573925 3.3521424798203894
49.582270278371844 0.004501818348918857 3.35857351957352
49.58180551719675 0.0034278861267108703 3.3672230028663654
49.58127690616178 0.0023478412003027347 3.3773803638245083
49.58065230298076 0.0012684891138754922 3.3895422643343522
49.57989079575134 0.00020737365884292394 3.404334701552589
49.57894847452725 -0.0008022196526020324 3.422460248253672
49.57956391993129 -0.0014866507348108543 3.4408636509123514
49.57796922040526 -0.0023788161588869524 3.4665446036520686
49.576069739013484 -0.002988407335572168 3.4957123331171713
49.57408550264392 -0.003062765448254075 3.5242155754978275
49.57255068901996 -0.0024307414214891384 3.544312478236904
49.57195367482001 -0.0013669249998911207 3.550046412835113
49.572112252031516 -0.0005120350866920339 3.544938967288823
49.57267524057116 0.00028640948991254055 3.54442322013716
49.572227141129574 0.00048798688179787554 3.550486930000729
49.572776973237545 0.0019405545423744957 3.544911518236636
49.57426379259277 0.002768394370298623 3.5247945389422033
49.57618705811263 0.002707622534856227 3.496137654746621
49.57800398849858 0.00194740195217083 3.4667480444780834
49.579922569594544 0.0015308822561796167 3.439967816771832
49.578987740467625 0.0009537818103177764 3.422617748355147
49.57994133797955 -0.00010677913877723561 3.4045438033408306
49.58072316926431 -0.0012102180177191867 3.389740364868248
49.58137018770498 -0.002326738532349984 3.377556547718902
49.58191755596571 -0.003438411972496607 3.3673955447977373
49.58239540001618 -0.004536545647435922 3.3587650003878227
49.584885917807426 -0.005394637997965558 3.352146970277025
49.585171265422645 -0.006353743808232749 3.347222894483703
49.584828048067756 -0.007216462626838444 3.3456176241310294
49.584986056513756 -0.008476806717721743 3.343033125538913
49.585061770277264 -0.009771313546591519 3.3418300010080504
49.58506524612496 -0.011090134845404546 3.341938181699544
49.585002937413556 -0.01242186003937382 3.3432703194313613
49.58488076333102 -0.013752784170650683 3.345719113171324
49.58470682023839 -0.015068973536717168 3.3491672136107646
49.58562090536096 -0.014221950155393508 3.35446445574355
49.58545842627081 -0.015261913877562315 3.3618028867146075
49.58259286844167 -0.013753382408760007 3.369633813672118
49.58250041567095 -0.016199081563778715 3.380333452320861
49.582296710097516 -0.01827171558913836 3.3928985026700356
49.58197509151487 -0.019997869194069852 3.407356012481613
49.58153126924628 -0.021399613958174243 3.423733814839962
49.58096398789554 -0.02249680819184598 3.4420479366990433
49.58027438375475 -0.0233089126381413 3.462290044543769
49.579464856702266 -0.02385581097330972 3.4844166017365636
49.57853816632996 -0.02415767459160328 3.5083400012970607
49.57749710790272 -0.024234205265455392 3.5339215818107625
49.577283587885546 -0.02800006006068793 3.575588588459879
49.57565797044846 -0.029051738286883504 3.609852259862979
49.573836019513195 -0.03003239284165909 3.6466900599912075
49.57320983233818 -0.03518868551742946 3.687737311299399
49.570838815483576 -0.03503407575750517 3.7295996699594585
49.56827309781338 -0.0350328725029845 3.773600462011349
49.56553177196489 -0.03512257862500037 3.8193319079657844
49.562641253485296 -0.03524355273429953 3.866332380073412
49.559636481477625 -0.03534221036162689 3.9140691174465725
49.556561550420064 -0.03537482382385697 3.9619251486326794
49.55346926938814 -0.035311128136388266 4.009198500668675
49.54953498701178 -0.03206327907699878 4.0545749552917805
49.546543787223854 -0.03132915803242237 4.099422678323603
49.54370566877032 -0.03047316999906347 4.141451805713268
49.54108602645182 -0.029550231462192926 4.179857445488097
49.53874344779973 -0.02861990554485239 4.2139249497095275

VECTORS L float
-0.006518598292831242 0.0 0.08876641839396766
-0.01176338867830239 0.0 0.16018687365616519
-0.01738397627798105 0.0 0.2367247132468796
-0.023569273959468204 0.0 0.3209524409302889
-0.03036086890710991 0.0 0.41343636640054154
-0.037760964855735865 0.0 0.5142064988159158
-0.045754762943353476 0.0 0.6230613160214363
-0.05431865696223552 0.0 0.7396793626339554
-0.06342267805462895 0.0 0.8636525404632498
-0.07303180073830405 0.0 0.9945038931959546
-0.0831066383243752 0.0 1.1316970761843845
-0.09360396585529883 0.0 1.2746434775070785
-0.10447718063214821 0.0 1.4227084891570105
-0.11567641225008463 0.0 1.5752130054395925
-0.1271525164600694 0.0 1.7314878090206904
-0.13885328284187307 0.0 1.8908219292593134
-0.15072132031000934 0.0 2.0524338482773063
-0.16273363330997462 0.0 2.2160104262061617
-0.17483441569074953 0.0 2.3807917278684374
-0.1869768768544039 0.0 2.546140586559545
-0.1991200195102065 0.0 2.7114987254078953
-0.21122749067022456 0.0 2.8763711109121517
-0.22326714838678716 0.0 3.0403200530281076
-0.23521073930482128 0.0 3.2029608142669987
-0.24703358216548166 0.0 3.363957299835017
-0.25871428659581447 0.0 3.5230182282771727
-0.2702349957897113 0.0 3.679900436163081
-0.28157523521348354 0.0 3.834325113395512
-0.2927202173673004 0.0 3.986090892542691
-0.30365542753352176 0.0 4.1350001207594795
-0.3143632269816128 0.0 4.280812604239745
-0.32482863757621216 0.0 4.423324379589746
-0.33503658196194713 0.0 4.5623301322962755
-0.3449705796540058 0.0 4.6976054408588155
-0.3546115132368723 0.0 4.828889975613216
-0.36393467020221126 0.0 4.955847216228586
-0.37292748195030345 0.0 5.078306010943273
-0.3815650888282275 0.0 5.195927835698393
-0.38981071131028944 0.0 5.308211848653502
-0.39761878308850257 0.0 5.414537554760783
-0.40493913871092174 0.0 5.514221830548556
-0.4117126528366472 0.0 5.6064595420735674
-0.41786641519468726 0.0 5.690257840362874
-0.42329871599989105 0.0 5.764231701683166
-0.42794959793744286 0.0 5.8275646627621915
-0.431684821450349 0.0 5.878428728662102
-0.43436704558279127 0.0 5.914953671429108
-0.43590181372282766 0.0 5.935853236755295
-0.43631563290924175 0.0 5.941488381826452
-0.43459150073461245 0.0 5.918010169010675
-0.4345977456741993 0.0 5.918095208906571
-0.4363323218979627 0.0 5.941715642609955
-0.43592296866762925 0.0 5.936141312288869
-0.43438797459152767 0.0 5.915238670298897
-0.43170152470393386 0.0 5.878656183696091
-0.42795925463124257 0.0 5.827696161910263
-0.4232974362414695 0.0 5.76421427468945
-0.41786822483492264 0.0 5.690282482973916
-0.41171379268088887 0.0 5.606475063798686
-0.40493825231863617 0.0 5.51420976018236
-0.39761506881202435 0.0 5.41448697593922
-0.3898036649695146 0.0 5.308115895749938
-0.3815542154581557 0.0 5.195779768572029
-0.3729132578563699 0.0 5.07811231563998
-0.3639163410814339 0.0 4.955597621096223
-0.35458798378344725 0.0 4.828569565424785
-0.3449415915922499 0.0 4.697210698568731