# vtk DataFile Version 4.0
[MyVLM domain - lattices] 
ASCII
DATASET UNSTRUCTURED_GRID
POINTS 302 float
1.2444999999999997 -1.2445 0.0
1.2399745454545452 -1.2399745454545454 0.0
1.2346178849721705 -1.2346178849721707 0.0
1.2284300185528754 -1.2284300185528756 0.0
1.2214109461966602 -1.2214109461966605 0.0
1.2135606679035247 -1.213560667903525 0.0
1.2048791836734691 -1.2048791836734694 0.0
1.1953664935064932 -1.1953664935064934 0.0
1.1850225974025972 -1.1850225974025974 0.0
1.1738474953617808 -1.173847495361781 0.0
1.1618411873840442 -1.1618411873840444 0.0
1.1490036734693874 -1.1490036734693876 0.0
1.1353349536178106 -1.1353349536178108 0.0
1.1208350278293133 -1.1208350278293135 0.0
1.1055038961038959 -1.105503896103896 0.0
1.0893415584415582 -1.0893415584415584 0.0
1.0723480148423004 -1.0723480148423006 0.0
1.054523265306122 -1.0545232653061223 0.0
1.0358673098330238 -1.035867309833024 0.0
1.0163801484230053 -1.0163801484230055 0.0
0.9960617810760664 -0.9960617810760668 0.0
0.9749122077922076 -0.9749122077922077 0.0
0.9529314285714284 -0.9529314285714284 0.0
0.9301194434137288 -0.930119443413729 0.0
0.9064762523191091 -0.9064762523191096 0.0
0.8820018552875695 -0.8820018552875695 0.0
0.8566962523191093 -0.8566962523191094 0.0
0.8305594434137288 -0.8305594434137291 0.0
0.8035914285714284 -0.8035914285714285 0.0
0.7757922077922076 -0.7757922077922077 0.0
0.7471617810760666 -0.7471617810760667 0.0
0.7177001484230053 -0.7177001484230054 0.0
0.6874073098330239 -0.687407309833024 0.0
0.6562832653061222 -0.6562832653061225 0.0
0.6243280148423004 -0.6243280148423005 0.0
0.5915415584415582 -0.5915415584415583 0.0
0.5579238961038958 -0.5579238961038959 0.0
0.5234750278293133 -0.5234750278293134 0.0
0.48819495361781057 -0.48819495361781057 0.0
0.4520836734693877 -0.4520836734693877 0.0
0.4151411873840445 -0.4151411873840446 0.0
0.37736749536178105 -0.37736749536178116 0.0
0.3387625974025974 -0.3387625974025974 0.0
0.2993264935064933 -0.29932649350649343 0.0
0.25905918367346925 -0.25905918367346925 0.0
0.21796066790352486 -0.21796066790352486 0.0
0.17603094619666027 -0.1760309461966605 0.0
0.13327001855287546 -0.13327001855287568 0.0
0.08967788497217066 -0.08967788497217066 0.0
0.045254545454545436 -0.045254545454545436 0.0
0.0 0.0 0.0
0.04525454545454545 0.04525454545454546 0.0
0.08967788497217066 0.08967788497217068 0.0
0.13327001855287568 0.1332700185528757 0.0
0.17603094619666046 0.1760309461966605 0.0
0.21796066790352497 0.21796066790352508 0.0
0.2590591836734693 0.25905918367346936 0.0
0.29932649350649343 0.2993264935064935 0.0
0.3387625974025973 0.33876259740259734 0.0
0.37736749536178094 0.377367495361781 0.0
0.41514118738404443 0.4151411873840445 0.0
0.45208367346938766 0.4520836734693878 0.0
0.48819495361781057 0.4881949536178107 0.0
0.5234750278293133 0.5234750278293134 0.0
0.5579238961038959 0.557923896103896 0.0
0.5915415584415582 0.5915415584415583 0.0
0.6243280148423003 0.6243280148423004 0.0
0.6562832653061222 0.6562832653061225 0.0
0.687407309833024 0.6874073098330241 0.0
0.7177001484230054 0.7177001484230056 0.0
0.7471617810760667 0.7471617810760669 0.0
0.7757922077922076 0.7757922077922077 0.0
0.8035914285714284 0.8035914285714285 0.0
0.8305594434137288 0.830559443413729 0.0
0.8566962523191093 0.8566962523191094 0.0
0.8820018552875692 0.8820018552875695 0.0
0.9064762523191091 0.9064762523191093 0.0
0.9301194434137288 0.9301194434137292 0.0
0.9529314285714284 0.9529314285714284 0.0
0.9749122077922076 0.9749122077922077 0.0
0.9960617810760666 0.9960617810760668 0.0
1.0163801484230053 1.0163801484230055 0.0
1.0358673098330238 1.035867309833024 0.0
1.054523265306122 1.0545232653061223 0.0
1.0723480148423001 1.0723480148423004 0.0
1.0893415584415582 1.0893415584415584 0.0
1.1055038961038959 1.105503896103896 0.0
1.120835027829313 1.1208350278293133 0.0
1.1353349536178106 1.1353349536178106 0.0
1.1490036734693874 1.1490036734693876 0.0
1.1618411873840444 1.1618411873840446 0.0
1.1738474953617808 1.173847495361781 0.0
1.1850225974025972 1.1850225974025972 0.0
1.1953664935064932 1.1953664935064934 0.0
1.2048791836734691 1.2048791836734694 0.0
1.2135606679035245 1.2135606679035247 0.0
1.22141094619666 1.2214109461966602 0.0
1.2284300185528754 1.2284300185528756 0.0
1.2346178849721703 1.2346178849721705 0.0
1.2399745454545452 1.2399745454545454 0.0
1.2444999999999997 1.2445 0.0
1.7422999999999997 -1.2445 0.0
1.7377745454545452 -1.2399745454545454 0.0
1.7324178849721703 -1.2346178849721707 0.0
1.7262300185528754 -1.2284300185528756 0.0
1.7192109461966603 -1.2214109461966605 0.0
1.7113606679035245 -1.213560667903525 0.0
1.7026791836734692 -1.2048791836734694 0.0
1.6931664935064934 -1.1953664935064934 0.0
1.6828225974025972 -1.1850225974025974 0.0
1.6716474953617806 -1.173847495361781 0.0
1.6596411873840444 -1.1618411873840444 0.0
1.6468036734693878 -1.1490036734693876 0.0
1.6331349536178106 -1.1353349536178108 0.0
1.6186350278293133 -1.1208350278293135 0.0
1.603303896103896 -1.105503896103896 0.0
1.5871415584415582 -1.0893415584415584 0.0
1.5701480148423004 -1.0723480148423006 0.0
1.552323265306122 -1.0545232653061223 0.0
1.5336673098330238 -1.035867309833024 0.0
1.5141801484230053 -1.0163801484230055 0.0
1.4938617810760666 -0.9960617810760668 0.0
1.4727122077922075 -0.9749122077922077 0.0
1.4507314285714283 -0.9529314285714284 0.0
1.4279194434137288 -0.930119443413729 0.0
1.4042762523191092 -0.9064762523191096 0.0
1.3798018552875693 -0.8820018552875695 0.0
1.3544962523191093 -0.8566962523191094 0.0
1.328359443413729 -0.8305594434137291 0.0
1.3013914285714283 -0.8035914285714285 0.0
1.2735922077922077 -0.7757922077922077 0.0
1.2449617810760665 -0.7471617810760667 0.0
1.2155001484230055 -0.7177001484230054 0.0
1.1852073098330238 -0.687407309833024 0.0
1.1540832653061224 -0.6562832653061225 0.0
1.1221280148423003 -0.6243280148423005 0.0
1.0893415584415582 -0.5915415584415583 0.0
1.055723896103896 -0.5579238961038959 0.0
1.0212750278293132 -0.5234750278293134 0.0
0.9859949536178108 -0.48819495361781057 0.0
0.9498836734693876 -0.4520836734693877 0.0
0.9129411873840445 -0.4151411873840446 0.0
0.875167495361781 -0.37736749536178116 0.0
0.8365625974025973 -0.3387625974025974 0.0
0.7971264935064933 -0.29932649350649343 0.0
0.7568591836734693 -0.25905918367346925 0.0
0.7157606679035249 -0.21796066790352486 0.0
0.6738309461966603 -0.1760309461966605 0.0
0.6310700185528755 -0.13327001855287568 0.0
0.5874778849721707 -0.08967788497217066 0.0
0.5430545454545455 -0.045254545454545436 0.0
0.4978 0.0 0.0
0.5430545454545455 0.04525454545454546 0.0
0.5874778849721707 0.08967788497217068 0.0
0.6310700185528757 0.1332700185528757 0.0
0.6738309461966605 0.1760309461966605 0.0
0.715760667903525 0.21796066790352508 0.0
0.7568591836734693 0.25905918367346936 0.0
0.7971264935064934 0.2993264935064935 0.0
0.8365625974025973 0.33876259740259734 0.0
0.875167495361781 0.377367495361781 0.0
0.9129411873840445 0.4151411873840445 0.0
0.9498836734693876 0.4520836734693878 0.0
0.9859949536178105 0.4881949536178107 0.0
1.0212750278293132 0.5234750278293134 0.0
1.055723896103896 0.557923896103896 0.0
1.0893415584415582 0.5915415584415583 0.0
1.1221280148423003 0.6243280148423004 0.0
1.1540832653061224 0.6562832653061225 0.0
1.185207309833024 0.6874073098330241 0.0
1.2155001484230055 0.7177001484230056 0.0
1.2449617810760667 0.7471617810760669 0.0
1.2735922077922077 0.7757922077922077 0.0
1.3013914285714283 0.8035914285714285 0.0
1.3283594434137287 0.830559443413729 0.0
1.3544962523191093 0.8566962523191094 0.0
1.3798018552875693 0.8820018552875695 0.0
1.4042762523191092 0.9064762523191093 0.0
1.427919443413729 0.9301194434137292 0.0
1.4507314285714283 0.9529314285714284 0.0
1.4727122077922075 0.9749122077922077 0.0
1.4938617810760666 0.9960617810760668 0.0
1.5141801484230053 1.0163801484230055 0.0
1.5336673098330238 1.035867309833024 0.0
1.552323265306122 1.0545232653061223 0.0
1.5701480148423002 1.0723480148423004 0.0
1.5871415584415582 1.0893415584415584 0.0
1.603303896103896 1.105503896103896 0.0
1.6186350278293131 1.1208350278293133 0.0
1.6331349536178106 1.1353349536178106 0.0
1.6468036734693874 1.1490036734693876 0.0
1.6596411873840444 1.1618411873840446 0.0
1.6716474953617806 1.173847495361781 0.0
1.6828225974025972 1.1850225974025972 0.0
1.6931664935064934 1.1953664935064934 0.0
1.7026791836734692 1.2048791836734694 0.0
1.7113606679035245 1.2135606679035247 0.0
1.71921094619666 1.2214109461966602 0.0
1.7262300185528754 1.2284300185528756 0.0
1.7324178849721703 1.2346178849721705 0.0
1.7377745454545452 1.2399745454545454 0.0
1.7422999999999997 1.2445 0.0
1.6155872727272724 -1.2422372727272726 0.0
1.6106462152133578 -1.237296215213358 0.0
1.604873951762523 -1.2315239517625232 0.0
1.598270482374768 -1.224920482374768 0.0
1.5908358070500925 -1.2174858070500927 0.0
1.582569925788497 -1.2092199257884972 0.0
1.5734728385899812 -1.2001228385899814 0.0
1.5635445454545454 -1.1901945454545453 0.0
1.552785046382189 -1.1794350463821892 0.0
1.5411943413729126 -1.1678443413729127 0.0
1.5287724304267158 -1.155422430426716 0.0
1.5155193135435991 -1.142169313543599 0.0
1.501434990723562 -1.1280849907235622 0.0
1.4865194619666047 -1.1131694619666048 0.0
1.4707727272727271 -1.0974227272727273 0.0
1.4541947866419294 -1.0808447866419293 0.0
1.4367856400742112 -1.0634356400742113 0.0
1.418545287569573 -1.0451952875695731 0.0
1.3994737291280146 -1.0261237291280147 0.0
1.379570964749536 -1.0062209647495362 0.0
1.358836994434137 -0.9854869944341371 0.0
1.337271818181818 -0.9639218181818181 0.0
1.3148754359925787 -0.9415254359925787 0.0
1.291647847866419 -0.9182978478664192 0.0
1.2675890538033394 -0.8942390538033393 0.0
1.2426990538033393 -0.8693490538033395 0.0
1.2169778478664193 -0.8436278478664192 0.0
1.1904254359925788 -0.8170754359925788 0.0
1.163041818181818 -0.7896918181818181 0.0
1.1348269944341371 -0.7614769944341371 0.0
1.105780964749536 -0.7324309647495362 0.0
1.0759037291280147 -0.7025537291280148 0.0
1.0451952875695731 -0.6718452875695733 0.0
1.0136556400742114 -0.6403056400742114 0.0
0.9812847866419293 -0.6079347866419293 0.0
0.9480827272727271 -0.5747327272727272 0.0
0.9140494619666047 -0.5406994619666048 0.0
0.8791849907235622 -0.5058349907235622 0.0
0.8434893135435992 -0.47013931354359917 0.0
0.8069624304267162 -0.43361243042671627 0.0
0.7696043413729128 -0.3962543413729128 0.0
0.7314150463821893 -0.3580650463821894 0.0
0.6923945454545455 -0.3190445454545454 0.0
0.6525428385899814 -0.27919283858998134 0.0
0.6118599257884971 -0.23850992578849706 0.0
0.5703458070500929 -0.19699580705009279 0.0
0.5280004823747682 -0.15465048237476808 0.0
0.4848239517625232 -0.11147395176252317 0.0
0.4408162152133581 -0.06746621521335805 0.0
0.39597727272727273 -0.022627272727272718 0.0
0.39597727272727273 0.02262727272727273 0.0
0.4408162152133581 0.06746621521335806 0.0
0.4848239517625232 0.11147395176252319 0.0
0.528000482374768 0.15465048237476808 0.0
0.5703458070500929 0.19699580705009276 0.0
0.6118599257884971 0.23850992578849717 0.0
0.6525428385899814 0.2791928385899814 0.0
0.6923945454545455 0.3190445454545454 0.0
0.7314150463821891 0.3580650463821891 0.0
0.7696043413729128 0.39625434137291277 0.0
0.8069624304267162 0.43361243042671616 0.0
0.8434893135435992 0.4701393135435992 0.0
0.8791849907235619 0.5058349907235621 0.0
0.9140494619666046 0.5406994619666047 0.0
0.9480827272727271 0.5747327272727272 0.0
0.9812847866419294 0.6079347866419295 0.0
1.0136556400742114 0.6403056400742114 0.0
1.0451952875695731 0.6718452875695732 0.0
1.0759037291280147 0.7025537291280147 0.0
1.105780964749536 0.7324309647495362 0.0
1.1348269944341371 0.7614769944341373 0.0
1.163041818181818 0.789691818181818 0.0
1.1904254359925786 0.8170754359925786 0.0
1.216977847866419 0.843627847866419 0.0
1.2426990538033393 0.8693490538033394 0.0
1.2675890538033392 0.8942390538033393 0.0
1.291647847866419 0.9182978478664192 0.0
1.3148754359925787 0.9415254359925787 0.0
1.3372718181818182 0.9639218181818181 0.0
1.3588369944341372 0.9854869944341373 0.0
1.379570964749536 1.0062209647495362 0.0
1.3994737291280148 1.0261237291280147 0.0
1.418545287569573 1.0451952875695731 0.0
1.4367856400742112 1.0634356400742113 0.0
1.4541947866419291 1.0808447866419293 0.0
1.470772727272727 1.097422727272727 0.0
1.4865194619666047 1.1131694619666048 0.0
1.501434990723562 1.128084990723562 0.0
1.5155193135435991 1.1421693135435993 0.0
1.528772430426716 1.1554224304267162 0.0
1.5411943413729128 1.1678443413729127 0.0
1.5527850463821888 1.179435046382189 0.0
1.5635445454545451 1.1901945454545453 0.0
1.573472838589981 1.2001228385899811 0.0
1.5825699257884969 1.209219925788497 0.0
1.5908358070500925 1.2174858070500927 0.0
1.5982704823747678 1.224920482374768 0.0
1.604873951762523 1.2315239517625232 0.0
1.6106462152133578 1.237296215213358 0.0
1.6155872727272724 1.2422372727272726 0.0

CELLS 200 700
4 0 101 102 1
4 1 102 103 2
4 2 103 104 3
4 3 104 105 4
4 4 105 106 5
4 5 106 107 6
4 6 107 108 7
4 7 108 109 8
4 8 109 110 9
4 9 110 111 10
4 10 111 112 11
4 11 112 113 12
4 12 113 114 13
4 13 114 115 14
4 14 115 116 15
4 15 116 117 16
4 16 117 118 17
4 17 118 119 18
4 18 119 120 19
4 19 120 121 20
4 20 121 122 21
4 21 122 123 22
4 22 123 124 23
4 23 124 125 24
4 24 125 126 25
4 25 126 127 26
4 26 127 128 27
4 27 128 129 28
4 28 129 130 29
4 29 130 131 30
4 30 131 132 31
4 31 132 133 32
4 32 133 134 33
4 33 134 135 34
4 34 135 136 35
4 35 136 137 36
4 36 137 138 37
4 37 138 139 38
4 38 139 140 39
4 39 140 141 40
4 40 141 142 41
4 41 142 143 42
4 42 143 144 43
4 43 144 145 44
4 44 145 146 45
4 45 146 147 46
4 46 147 148 47
4 47 148 149 48
4 48 149 150 49
4 49 150 151 50
4 50 151 152 51
4 51 152 153 52
4 52 153 154 53
4 53 154 155 54
4 54 155 156 55
4 55 156 157 56
4 56 157 158 57
4 57 158 159 58
4 58 159 160 59
4 59 160 161 60
4 60 161 162 61
4 61 162 163 62
4 62 163 164 63
4 63 164 165 64
4 64 165 166 65
4 65 166 167 66
4 66 167 168 67
4 67 168 169 68
4 68 169 170 69
4 69 170 171 70
4 70 171 172 71
4 71 172 173 72
4 72 173 174 73
4 73 174 175 74
4 74 175 176 75
4 75 176 177 76
4 76 177 178 77
4 77 178 179 78
4 78 179 180 79
4 79 180 181 80
4 80 181 182 81
4 81 182 183 82
4 82 183 184 83
4 83 184 185 84
4 84 185 186 85
4 85 186 187 86
4 86 187 188 87
4 87 188 189 88
4 88 189 190 89
4 89 190 191 90
4 90 191 192 91
4 91 192 193 92
4 92 193 194 93
4 93 194 195 94
4 94 195 196 95
4 95 196 197 96
4 96 197 198 97
4 97 198 199 98
4 98 199 200 99
4 99 200 201 100
1 202
1 203
1 204
1 205
1 206
1 207
1 208
1 209
1 210
1 211
1 212
1 213
1 214
1 215
1 216
1 217
1 218
1 219
1 220
1 221
1 222
1 223
1 224
1 225
1 226
1 227
1 228
1 229
1 230
1 231
1 232
1 233
1 234
1 235
1 236
1 237
1 238
1 239
1 240
1 241
1 242
1 243
1 244
1 245
1 246
1 247
1 248
1 249
1 250
1 251
1 252
1 253
1 254
1 255
1 256
1 257
1 258
1 259
1 260
1 261
1 262
1 263
1 264
1 265
1 266
1 267
1 268
1 269
1 270
1 271
1 272
1 273
1 274
1 275
1 276
1 277
1 278
1 279
1 280
1 281
1 282
1 283
1 284
1 285
1 286
1 287
1 288
1 289
1 290
1 291
1 292
1 293
1 294
1 295
1 296
1 297
1 298
1 299
1 300
1 301

CELL_TYPES 200
9
9
9
9
9
9
9
9
9
9
9
9
9
9
9
9
9
9
9
9
9
9
9
9
9
9
9
9
9
9
9
9
9
9
9
9
9
9
9
9
9
9
9
9
9
9
9
9
9
9
9
9
9
9
9
9
9
9
9
9
9
9
9
9
9
9
9
9
9
9
9
9
9
9
9
9
9
9
9
9
9
9
9
9
9
9
9
9
9
9
9
9
9
9
9
9
9
9
9
9
1
1
1
1
1
1
1
1
1
1
1
1
1
1
1
1
1
1
1
1
1
1
1
1
1
1
1
1
1
1
1
1
1
1
1
1
1
1
1
1
1
1
1
1
1
1
1
1
1
1
1
1
1
1
1
1
1
1
1
1
1
1
1
1
1
1
1
1
1
1
1
1
1
1
1
1
1
1
1
1
1
1
1
1
1
1
1
1
1
1
1
1
1
1
1
1
1
1
1
1

CELL_DATA 200

VECTORS Vinf float
49.53098478218566 0.03466271776925083 4.302321291339238
49.53345494527317 0.035489213649196015 4.2675103237055865
49.53622251891276 0.036289250427751274 4.228230397904434
49.53922862155387 0.03700243886287422 4.185194810154162
49.54240767574823 0.03757283564358307 4.13920684730483
49.54569096428433 0.03795365618846235 4.091116449187698
49.549010872799 0.03811096089142251 4.0417679310809325
49.55230503139432 0.03802553042769927 3.9919491397080327
49.5555195412452 0.0376925581734317 3.9423527314786684
49.55861075026192 0.037119404282370476 3.893556507297137
49.56099668714309 0.03554259441480866 3.8475160565468314
49.56386998249789 0.03376693607376638 3.7997703590100134
49.56657995837383 0.02533004557097469 3.75100899797664
49.568693042801456 0.026771786614083495 3.7135035247509287
49.5706906506068 0.027712954387394583 3.67692469883636
49.57253892007632 0.028114890212611605 3.641918016398358
49.574213633319786 0.02793914229319165 3.6090291121713567
49.57569784129707 0.027143160613423322 3.5787173903179967
49.57697859355904 0.025677538987504262 3.5513708719457178
49.57804353916311 0.02348529887045465 3.5273183083542623
49.57887850861407 0.02050332687988708 3.5068375695569958
49.579827811046066 0.023125016638104103 3.4873873570292657
49.58048308251423 0.021250165176949196 3.469424731440223
49.581277426363755 0.019506955192277728 3.44979717528155
49.581759362489336 0.018251684663427744 3.4362787384585105
49.58214705058124 0.017042788673728923 3.4245985874536546
49.58245831614152 0.015883170261063076 3.4146299999023855
49.58270645566558 0.014767591465328002 3.4062845518188385
49.58289787089185 0.013686942451903097 3.3995058823103035
49.58286559783847 0.011368717192736884 3.391915090069689
49.58288368503227 0.010697276754504586 3.3895766458449645
49.58291198847904 0.00971002283357942 3.3877095730131397
49.582897431015844 0.00870618574122103 3.387141631067131
49.58284404317995 0.007687205201481039 3.387920055433445
49.58275052313264 0.006648266902923027 3.390065654751731
49.58270347736715 0.005838555012707268 3.3928124514283136
49.5827051362148 0.005690146031267652 3.396750825901068
49.58244340924553 0.004676755517145472 3.402177834486525
49.58209039409392 0.0036630993470887973 3.409051607480557
49.58164328264987 0.0026521300540956693 3.4176317129416804
49.581079138639275 0.0016298661905724758 3.4282935188950017
49.58028258681177 0.00033524825851430075 3.4421458235864235
49.579376461944946 -0.00042999767369887555 3.4582352439914708
49.578144446213564 -0.0013752860525070658 3.4790132538436023
49.57663284059012 -0.0021664676733326657 3.504319754761757
49.57487791155195 -0.0026726601985006034 3.5331458203634627
49.573491116802536 -0.00224675379920743 3.561131272508227
49.572038262411915 -0.001796551733314975 3.580862612147006
49.57148214862958 -0.00089436057061869 3.585923906680481
49.57165555374498 -0.00012779026009328997 3.579773336411366
49.57159005264098 0.00024283055640014303 3.5792271178623696
49.57132124864364 0.0010718064888284294 3.5855875723680777
49.57176445669319 0.002095281829750445 3.580830080244251
49.573096714764155 0.002723289969281893 3.561334377593355
49.57488167458665 0.0027124309494558204 3.53320953655443
49.576636545523264 0.0022090196600833816 3.5044041689906593
49.578149417656384 0.001421742783314808 3.4791171663129554
49.57938487770457 0.00047973453970431916 3.4583506636500707
49.58029519930915 -0.00028454476076907184 3.4422622764413764
49.58109671133823 -0.0015790009000729082 3.428400649721583
49.581664581676165 -0.002602374205955498 3.4177214315143916
49.58211487778659 -0.00361471387266124 3.4091176455971897
49.58247084914392 -0.004630007580427588 3.402216807749135
49.58273521650794 -0.005645500526866845 3.396763031369719
49.58273130246172 -0.005808491489386251 3.392820555891811
49.58277972158864 -0.006618496758478251 3.390052669396223
49.58287319640824 -0.007657164075678207 3.3878947191339486
49.58292609335337 -0.008675428351540972 3.3871087800171296
49.58294000867867 -0.00967802622623426 3.3876729541380213
49.5829111617464 -0.010663582973944355 3.3895387250203073
49.582892152636035 -0.011332253319314882 3.3918771907594554
49.58292972313504 -0.01364931788988137 3.3994597446892514
49.58273905249524 -0.014728907721163455 3.4062376445301275
49.582492109630174 -0.015843536589339353 3.414578994651615
49.582182391208505 -0.017002454351940092 3.4245399033119432
49.58179644950567 -0.018210946581894514 3.4362099142658855
49.58131630851081 -0.019466087900242963 3.4497174764882312
49.5805245257321 -0.02121351685661643 3.4693330196796723
49.57987040209646 -0.023088115938553318 3.487286590033148
49.578922819566266 -0.020467484133239434 3.5067298739136032
49.57808906540912 -0.023449439267891187 3.527204604267897
49.57702510322869 -0.02564172040274006 3.551252513471062
49.57574513448726 -0.027107406605147235 3.5785955219823613
49.57426154965171 -0.02790345620004027 3.6089046831345346
49.572587340520826 -0.028079274282560372 3.6417917871246375
49.57073949040507 -0.027677426986693947 3.6767972583537194
49.56874223682929 -0.026736390404687508 3.7133753251146193
49.56662944475022 -0.02529484453026719 3.750880392741734
49.56391958553447 -0.03373108934230155 3.799643851483035
49.5610468763531 -0.03550648618752112 3.847390044870589
49.55801893447074 -0.03675469084863977 3.896393941388937
49.55557043102443 -0.037653789918519795 3.942231782710829
49.552356184997784 -0.03798690754433685 3.991828773456399
49.54906227783013 -0.038072447963649524 4.041647828107849
49.54574261788388 -0.037915223380566764 4.090996261756538
49.54245958125779 -0.03753446069382576 4.139086240396698
49.53928078408768 -0.03696410751722762 4.185073495733518
49.536274940929175 -0.036250955399734004 4.2281081588973395
49.533507622953714 -0.035450952549675466 4.267387027343159
49.53103770305668 -0.034624490604010905 4.302196893227964
49.53098478218566 0.03466271776925083 4.302321291339238
49.53345494527317 0.035489213649196015 4.2675103237055865
49.53622251891276 0.036289250427751274 4.228230397904434
49.53922862155387 0.03700243886287422 4.185194810154162
49.54240767574823 0.03757283564358307 4.13920684730483
49.54569096428433 0.03795365618846235 4.091116449187698
49.549010872799 0.03811096089142251 4.0417679310809325
49.55230503139432 0.03802553042769927 3.9919491397080327
49.5555195412452 0.0376925581734317 3.9423527314786684
49.55861075026192 0.037119404282370476 3.893556507297137
49.56099668714309 0.03554259441480866 3.8475160565468314
49.56386998249789 0.03376693607376638 3.7997703590100134
49.56657995837383 0.02533004557097469 3.75100899797664
49.568693042801456 0.026771786614083495 3.7135035247509287
49.5706906506068 0.027712954387394583 3.67692469883636
49.57253892007632 0.028114890212611605 3.641918016398358
49.574213633319786 0.02793914229319165 3.6090291121713567
49.57569784129707 0.027143160613423322 3.5787173903179967
49.57697859355904 0.025677538987504262 3.5513708719457178
49.57804353916311 0.02348529887045465 3.5273183083542623
49.57887850861407 0.02050332687988708 3.5068375695569958
49.579827811046066 0.023125016638104103 3.4873873570292657
49.58048308251423 0.021250165176949196 3.469424731440223
49.581277426363755 0.019506955192277728 3.44979717528155
49.581759362489336 0.018251684663427744 3.4362787384585105
49.58214705058124 0.017042788673728923 3.4245985874536546
49.58245831614152 0.015883170261063076 3.4146299999023855
49.58270645566558 0.014767591465328002 3.4062845518188385
49.58289787089185 0.013686942451903097 3.3995058823103035
49.58286559783847 0.011368717192736884 3.391915090069689
49.58288368503227 0.010697276754504586 3.3895766458449645
49.58291198847904 0.00971002283357942 3.3877095730131397
49.582897431015844 0.00870618574122103 3.387141631067131
49.58284404317995 0.007687205201481039 3.387920055433445
49.58275052313264 0.006648266902923027 3.390065654751731
49.58270347736715 0.005838555012707268 3.3928124514283136
49.5827051362148 0.005690146031267652 3.396750825901068
49.58244340924553 0.004676755517145472 3.402177834486525
49.58209039409392 0.0036630993470887973 3.409051607480557
49.58164328264987 0.0026521300540956693 3.4176317129416804
49.581079138639275 0.0016298661905724758 3.4282935188950017
49.58028258681177 0.00033524825851430075 3.4421458235864235
49.579376461944946 -0.00042999767369887555 3.4582352439914708
49.578144446213564 -0.0013752860525070658 3.4790132538436023
49.57663284059012 -0.0021664676733326657 3.504319754761757
49.57487791155195 -0.0026726601985006034 3.5331458203634627
49.573491116802536 -0.00224675379920743 3.561131272508227
49.572038262411915 -0.001796551733314975 3.580862612147006
49.57148214862958 -0.00089436057061869 3.585923906680481
49.57165555374498 -0.00012779026009328997 3.579773336411366
49.57159005264098 0.00024283055640014303 3.5792271178623696
49.57132124864364 0.0010718064888284294 3.5855875723680777
49.57176445669319 0.002095281829750445 3.580830080244251
49.573096714764155 0.002723289969281893 3.561334377593355
49.57488167458665 0.0027124309494558204 3.53320953655443
49.576636545523264 0.0022090196600833816 3.5044041689906593
49.578149417656384 0.001421742783314808 3.4791171663129554
49.57938487770457 0.00047973453970431916 3.4583506636500707
49.58029519930915 -0.00028454476076907184 3.4422622764413764
49.58109671133823 -0.0015790009000729082 3.428400649721583
49.581664581676165 -0.002602374205955498 3.4177214315143916
49.58211487778659 -0.00361471387266124 3.4091176455971897
49.58247084914392 -0.004630007580427588 3.402216807749135
49.58273521650794 -0.005645500526866845 3.396763031369719
49.58273130246172 -0.005808491489386251 3.392820555891811
49.58277972158864 -0.006618496758478251 3.390052669396223
49.58287319640824 -0.007657164075678207 3.3878947191339486
49.58292609335337 -0.008675428351540972 3.3871087800171296
49.58294000867867 -0.00967802622623426 3.3876729541380213
49.5829111617464 -0.010663582973944355 3.3895387250203073
49.582892152636035 -0.011332253319314882 3.3918771907594554
49.58292972313504 -0.01364931788988137 3.3994597446892514
49.58273905249524 -0.014728907721163455 3.4062376445301275
49.582492109630174 -0.015843536589339353 3.414578994651615
49.582182391208505 -0.017002454351940092 3.4245399033119432
49.58179644950567 -0.018210946581894514 3.4362099142658855
49.58131630851081 -0.019466087900242963 3.4497174764882312
49.5805245257321 -0.02121351685661643 3.4693330196796723
49.57987040209646 -0.023088115938553318 3.487286590033148
49.578922819566266 -0.020467484133239434 3.5067298739136032
49.57808906540912 -0.023449439267891187 3.527204604267897
49.57702510322869 -0.02564172040274006 3.551252513471062
49.57574513448726 -0.027107406605147235 3.5785955219823613
49.57426154965171 -0.02790345620004027 3.6089046831345346
49.572587340520826 -0.028079274282560372 3.6417917871246375
49.57073949040507 -0.027677426986693947 3.6767972583537194
49.56874223682929 -0.026736390404687508 3.7133753251146193
49.56662944475022 -0.02529484453026719 3.750880392741734
49.56391958553447 -0.03373108934230155 3.799643851483035
49.5610468763531 -0.03550648618752112 3.847390044870589
49.55801893447074 -0.03675469084863977 3.896393941388937
49.55557043102443 -0.037653789918519795 3.942231782710829
49.552356184997784 -0.03798690754433685 3.991828773456399
49.54906227783013 -0.038072447963649524 4.041647828107849
49.54574261788388 -0.037915223380566764 4.090996261756538
49.54245958125779 -0.03753446069382576 4.139086240396698
49.53928078408768 -0.03696410751722762 4.185073495733518
49.536274940929175 -0.036250955399734004 4.2281081588973395
49.533507622953714 -0.035450952549675466 4.267387027343159
49.53103770305668 -0.034624490604010905 4.302196893227964

VECTORS L float
-0.00664477037487881 0.0 0.09048455522669584
-0.011988661619135131 0.0 0.16325450740509395
-0.017714515192954645 0.0 0.24122579680870937
-0.024014651469855836 0.0 0.3270173286031204
-0.030931119417046432 0.0 0.42120170076852465
-0.03846555291279738 0.0 0.523801162493427
-0.04660294473588461 0.0 0.6346113543099997
-0.05531901537644833 0.0 0.7533016522046436
-0.06458326684976788 0.0 0.8794567526488588
-0.07435990645461471 0.0 1.012589251794459
-0.08460918730399201 0.0 1.1521579000287951
-0.09528384106260006 0.0 1.2975190251021718
-0.10633707539003812 0.0 1.4480354365820671
-0.11772987410588151 0.0 1.6031758351860088
-0.12940385762335865 0.0 1.762145242209643
-0.1413048973833169 0.0 1.9242065669299404
-0.1533810958164723 0.0 2.0886530989251586
-0.16558319386816556 0.0 2.254814057506084
-0.17786500999724142 0.0 2.4220605697432744
-0.19018352771177738 0.0 2.589806862476872
-0.20249820774165184 0.0 2.7575008958892138
-0.21476759867792186 0.0 2.924578209195333
-0.22695758936004967 0.0 3.0905742967742085
-0.23903769715376147 0.0 3.2550740641306524
-0.2509883723685687 0.0 3.4178112951354565
-0.2627863901776803 0.0 3.5784697278256257
-0.2744122808762018 0.0 3.7367842352684937
-0.28584907895241296 0.0 3.892523791153805
-0.29708134564113464 0.0 4.045478159503237
-0.3080923582678275 0.0 4.195419620819725
-0.3188822717731701 0.0 4.3423502849938425
-0.32942551950520865 0.0 4.4859220004717875
-0.3397070510659536 0.0 4.625929819830062
-0.3497098472646549 0.0 4.762141985789111
-0.3594142384889113 0.0 4.894290649194009
-0.36879537283837455 0.0 5.0220373915558225
-0.37782976725362155 0.0 5.145062434452219
-0.38649066233386 0.0 5.263001384180749
-0.39474376801793915 0.0 5.375387298957592
-0.40254957036924793 0.0 5.481682101350753
-0.4098615909406419 0.0 5.581252875340531
-0.4166308768657608 0.0 5.6734330097289805
-0.4227701627132515 0.0 5.757034175454723
-0.42821313671729505 0.0 5.8311533780878655
-0.4328558797162923 0.0 5.894375507912597
-0.4365735150765203 0.0 5.945000068745734
-0.4392292863110399 0.0 5.981164791585194
-0.44073260109185214 0.0 6.0016360436576175
-0.44110774962188404 0.0 6.006744594588469
-0.43930690116379956 0.0 5.982221704771765
-0.4392970402899637 0.0 5.982087425220652
-0.44110043646157543 0.0 6.006645008294212
-0.44073090941698034 0.0 6.0016130074291665
-0.43923242844611987 0.0 5.981207579323391
-0.43657753503758867 0.0 5.9450548101993546
-0.4328606561883682 0.0 5.894440551085944
-0.42821788105200914 0.0 5.831217983633615
-0.4227740322658238 0.0 5.7570868687343495
-0.41663309877095484 0.0 5.673463266320539
-0.4098680078730899 0.0 5.5813402573335456
-0.402555023885409 0.0 5.481756364110248
-0.39474807685503177 0.0 5.375445974154156
-0.3864937697160497 0.0 5.263043698674628
-0.3778317319032493 0.0 5.145089187889542
-0.368796378271663 0.0 5.022051082952031
-0.35941439558878835 0.0 4.894292788487272
-0.34970923507804713 0.0 4.762133649393752