# vtk DataFile Version 4.0
[MyVLM domain - lattices] 
ASCII
DATASET UNSTRUCTURED_GRID
POINTS 302 float
1.2444999999999997 -1.2445 0.0
1.2399745454545452 -1.2399745454545454 0.0
1.2346178849721705 -1.2346178849721707 0.0
1.2284300185528754 -1.2284300185528756 0.0
1.2214109461966602 -1.2214109461966605 0.0
1.2135606679035247 -1.213560667903525 0.0
1.2048791836734691 -1.2048791836734694 0.0
1.1953664935064932 -1.1953664935064934 0.0
1.1850225974025972 -1.1850225974025974 0.0
1.1738474953617808 -1.173847495361781 0.0
1.1618411873840442 -1.1618411873840444 0.0
1.1490036734693874 -1.1490036734693876 0.0
1.1353349536178106 -1.1353349536178108 0.0
1.1208350278293133 -1.1208350278293135 0.0
1.1055038961038959 -1.105503896103896 0.0
1.0893415584415582 -1.0893415584415584 0.0
1.0723480148423004 -1.0723480148423006 0.0
1.054523265306122 -1.0545232653061223 0.0
1.0358673098330238 -1.035867309833024 0.0
1.0163801484230053 -1.0163801484230055 0.0
0.9960617810760664 -0.9960617810760668 0.0
0.9749122077922076 -0.9749122077922077 0.0
0.9529314285714284 -0.9529314285714284 0.0
0.9301194434137288 -0.930119443413729 0.0
0.9064762523191091 -0.9064762523191096 0.0
0.8820018552875695 -0.8820018552875695 0.0
0.8566962523191093 -0.8566962523191094 0.0
0.8305594434137288 -0.8305594434137291 0.0
0.8035914285714284 -0.8035914285714285 0.0
0.7757922077922076 -0.7757922077922077 0.0
0.7471617810760666 -0.7471617810760667 0.0
0.7177001484230053 -0.7177001484230054 0.0
0.6874073098330239 -0.687407309833024 0.0
0.6562832653061222 -0.6562832653061225 0.0
0.6243280148423004 -0.6243280148423005 0.0
0.5915415584415582 -0.5915415584415583 0.0
0.5579238961038958 -0.5579238961038959 0.0
0.5234750278293133 -0.5234750278293134 0.0
0.48819495361781057 -0.48819495361781057 0.0
0.4520836734693877 -0.4520836734693877 0.0
0.4151411873840445 -0.4151411873840446 0.0
0.37736749536178105 -0.37736749536178116 0.0
0.3387625974025974 -0.3387625974025974 0.0
0.2993264935064933 -0.29932649350649343 0.0
0.25905918367346925 -0.25905918367346925 0.0
0.21796066790352486 -0.21796066790352486 0.0
0.17603094619666027 -0.1760309461966605 0.0
0.13327001855287546 -0.13327001855287568 0.0
0.08967788497217066 -0.08967788497217066 0.0
0.045254545454545436 -0.045254545454545436 0.0
0.0 0.0 0.0
0.04525454545454545 0.04525454545454546 0.0
0.08967788497217066 0.08967788497217068 0.0
0.13327001855287568 0.1332700185528757 0.0
0.17603094619666046 0.1760309461966605 0.0
0.21796066790352497 0.21796066790352508 0.0
0.2590591836734693 0.25905918367346936 0.0
0.29932649350649343 0.2993264935064935 0.0
0.3387625974025973 0.33876259740259734 0.0
0.37736749536178094 0.377367495361781 0.0
0.41514118738404443 0.4151411873840445 0.0
0.45208367346938766 0.4520836734693878 0.0
0.48819495361781057 0.4881949536178107 0.0
0.5234750278293133 0.5234750278293134 0.0
0.5579238961038959 0.557923896103896 0.0
0.5915415584415582 0.5915415584415583 0.0
0.6243280148423003 0.6243280148423004 0.0
0.6562832653061222 0.6562832653061225 0.0
0.687407309833024 0.6874073098330241 0.0
0.7177001484230054 0.7177001484230056 0.0
0.7471617810760667 0.7471617810760669 0.0
0.7757922077922076 0.7757922077922077 0.0
0.8035914285714284 0.8035914285714285 0.0
0.8305594434137288 0.830559443413729 0.0
0.8566962523191093 0.8566962523191094 0.0
0.8820018552875692 0.8820018552875695 0.0
0.9064762523191091 0.9064762523191093 0.0
0.9301194434137288 0.9301194434137292 0.0
0.9529314285714284 0.9529314285714284 0.0
0.9749122077922076 0.9749122077922077 0.0
0.9960617810760666 0.9960617810760668 0.0
1.0163801484230053 1.0163801484230055 0.0
1.0358673098330238 1.035867309833024 0.0
1.054523265306122 1.0545232653061223 0.0
1.0723480148423001 1.0723480148423004 0.0
1.0893415584415582 1.0893415584415584 0.0
1.1055038961038959 1.105503896103896 0.0
1.120835027829313 1.1208350278293133 0.0
1.1353349536178106 1.1353349536178106 0.0
1.1490036734693874 1.1490036734693876 0.0
1.1618411873840444 1.1618411873840446 0.0
1.1738474953617808 1.173847495361781 0.0
1.1850225974025972 1.1850225974025972 0.0
1.1953664935064932 1.1953664935064934 0.0
1.2048791836734691 1.2048791836734694 0.0
1.2135606679035245 1.2135606679035247 0.0
1.22141094619666 1.2214109461966602 0.0
1.2284300185528754 1.2284300185528756 0.0
1.2346178849721703 1.2346178849721705 0.0
1.2399745454545452 1.2399745454545454 0.0
1.2444999999999997 1.2445 0.0
1.7422999999999997 -1.2445 0.0
1.7377745454545452 -1.2399745454545454 0.0
1.7324178849721703 -1.2346178849721707 0.0
1.7262300185528754 -1.2284300185528756 0.0
1.7192109461966603 -1.2214109461966605 0.0
1.7113606679035245 -1.213560667903525 0.0
1.7026791836734692 -1.2048791836734694 0.0
1.6931664935064934 -1.1953664935064934 0.0
1.6828225974025972 -1.1850225974025974 0.0
1.6716474953617806 -1.173847495361781 0.0
1.6596411873840444 -1.1618411873840444 0.0
1.6468036734693878 -1.1490036734693876 0.0
1.6331349536178106 -1.1353349536178108 0.0
1.6186350278293133 -1.1208350278293135 0.0
1.603303896103896 -1.105503896103896 0.0
1.5871415584415582 -1.0893415584415584 0.0
1.5701480148423004 -1.0723480148423006 0.0
1.552323265306122 -1.0545232653061223 0.0
1.5336673098330238 -1.035867309833024 0.0
1.5141801484230053 -1.0163801484230055 0.0
1.4938617810760666 -0.9960617810760668 0.0
1.4727122077922075 -0.9749122077922077 0.0
1.4507314285714283 -0.9529314285714284 0.0
1.4279194434137288 -0.930119443413729 0.0
1.4042762523191092 -0.9064762523191096 0.0
1.3798018552875693 -0.8820018552875695 0.0
1.3544962523191093 -0.8566962523191094 0.0
1.328359443413729 -0.8305594434137291 0.0
1.3013914285714283 -0.8035914285714285 0.0
1.2735922077922077 -0.7757922077922077 0.0
1.2449617810760665 -0.7471617810760667 0.0
1.2155001484230055 -0.7177001484230054 0.0
1.1852073098330238 -0.687407309833024 0.0
1.1540832653061224 -0.6562832653061225 0.0
1.1221280148423003 -0.6243280148423005 0.0
1.0893415584415582 -0.5915415584415583 0.0
1.055723896103896 -0.5579238961038959 0.0
1.0212750278293132 -0.5234750278293134 0.0
0.9859949536178108 -0.48819495361781057 0.0
0.9498836734693876 -0.4520836734693877 0.0
0.9129411873840445 -0.4151411873840446 0.0
0.875167495361781 -0.37736749536178116 0.0
0.8365625974025973 -0.3387625974025974 0.0
0.7971264935064933 -0.29932649350649343 0.0
0.7568591836734693 -0.25905918367346925 0.0
0.7157606679035249 -0.21796066790352486 0.0
0.6738309461966603 -0.1760309461966605 0.0
0.6310700185528755 -0.13327001855287568 0.0
0.5874778849721707 -0.08967788497217066 0.0
0.5430545454545455 -0.045254545454545436 0.0
0.4978 0.0 0.0
0.5430545454545455 0.04525454545454546 0.0
0.5874778849721707 0.08967788497217068 0.0
0.6310700185528757 0.1332700185528757 0.0
0.6738309461966605 0.1760309461966605 0.0
0.715760667903525 0.21796066790352508 0.0
0.7568591836734693 0.25905918367346936 0.0
0.7971264935064934 0.2993264935064935 0.0
0.8365625974025973 0.33876259740259734 0.0
0.875167495361781 0.377367495361781 0.0
0.9129411873840445 0.4151411873840445 0.0
0.9498836734693876 0.4520836734693878 0.0
0.9859949536178105 0.4881949536178107 0.0
1.0212750278293132 0.5234750278293134 0.0
1.055723896103896 0.557923896103896 0.0
1.0893415584415582 0.5915415584415583 0.0
1.1221280148423003 0.6243280148423004 0.0
1.1540832653061224 0.6562832653061225 0.0
1.185207309833024 0.6874073098330241 0.0
1.2155001484230055 0.7177001484230056 0.0
1.2449617810760667 0.7471617810760669 0.0
1.2735922077922077 0.7757922077922077 0.0
1.3013914285714283 0.8035914285714285 0.0
1.3283594434137287 0.830559443413729 0.0
1.3544962523191093 0.8566962523191094 0.0
1.3798018552875693 0.8820018552875695 0.0
1.4042762523191092 0.9064762523191093 0.0
1.427919443413729 0.9301194434137292 0.0
1.4507314285714283 0.9529314285714284 0.0
1.4727122077922075 0.9749122077922077 0.0
1.4938617810760666 0.9960617810760668 0.0
1.5141801484230053 1.0163801484230055 0.0
1.5336673098330238 1.035867309833024 0.0
1.552323265306122 1.0545232653061223 0.0
1.5701480148423002 1.0723480148423004 0.0
1.5871415584415582 1.0893415584415584 0.0
1.603303896103896 1.105503896103896 0.0
1.6186350278293131 1.1208350278293133 0.0
1.6331349536178106 1.1353349536178106 0.0
1.6468036734693874 1.1490036734693876 0.0
1.6596411873840444 1.1618411873840446 0.0
1.6716474953617806 1.173847495361781 0.0
1.6828225974025972 1.1850225974025972 0.0
1.6931664935064934 1.1953664935064934 0.0
1.7026791836734692 1.2048791836734694 0.0
1.7113606679035245 1.2135606679035247 0.0
1.71921094619666 1.2214109461966602 0.0
1.7262300185528754 1.2284300185528756 0.0
1.7324178849721703 1.2346178849721705 0.0
1.7377745454545452 1.2399745454545454 0.0
1.7422999999999997 1.2445 0.0
1.6155872727272724 -1.2422372727272726 0.0
1.6106462152133578 -1.237296215213358 0.0
1.604873951762523 -1.2315239517625232 0.0
1.598270482374768 -1.224920482374768 0.0
1.5908358070500925 -1.2174858070500927 0.0
1.582569925788497 -1.2092199257884972 0.0
1.5734728385899812 -1.2001228385899814 0.0
1.5635445454545454 -1.1901945454545453 0.0
1.552785046382189 -1.1794350463821892 0.0
1.5411943413729126 -1.1678443413729127 0.0
1.5287724304267158 -1.155422430426716 0.0
1.5155193135435991 -1.142169313543599 0.0
1.501434990723562 -1.1280849907235622 0.0
1.4865194619666047 -1.1131694619666048 0.0
1.4707727272727271 -1.0974227272727273 0.0
1.4541947866419294 -1.0808447866419293 0.0
1.4367856400742112 -1.0634356400742113 0.0
1.418545287569573 -1.0451952875695731 0.0
1.3994737291280146 -1.0261237291280147 0.0
1.379570964749536 -1.0062209647495362 0.0
1.358836994434137 -0.9854869944341371 0.0
1.337271818181818 -0.9639218181818181 0.0
1.3148754359925787 -0.9415254359925787 0.0
1.291647847866419 -0.9182978478664192 0.0
1.2675890538033394 -0.8942390538033393 0.0
1.2426990538033393 -0.8693490538033395 0.0
1.2169778478664193 -0.8436278478664192 0.0
1.1904254359925788 -0.8170754359925788 0.0
1.163041818181818 -0.7896918181818181 0.0
1.1348269944341371 -0.7614769944341371 0.0
1.105780964749536 -0.7324309647495362 0.0
1.0759037291280147 -0.7025537291280148 0.0
1.0451952875695731 -0.6718452875695733 0.0
1.0136556400742114 -0.6403056400742114 0.0
0.9812847866419293 -0.6079347866419293 0.0
0.9480827272727271 -0.5747327272727272 0.0
0.9140494619666047 -0.5406994619666048 0.0
0.8791849907235622 -0.5058349907235622 0.0
0.8434893135435992 -0.47013931354359917 0.0
0.8069624304267162 -0.43361243042671627 0.0
0.7696043413729128 -0.3962543413729128 0.0
0.7314150463821893 -0.3580650463821894 0.0
0.6923945454545455 -0.3190445454545454 0.0
0.6525428385899814 -0.27919283858998134 0.0
0.6118599257884971 -0.23850992578849706 0.0
0.5703458070500929 -0.19699580705009279 0.0
0.5280004823747682 -0.15465048237476808 0.0
0.4848239517625232 -0.11147395176252317 0.0
0.4408162152133581 -0.06746621521335805 0.0
0.39597727272727273 -0.022627272727272718 0.0
0.39597727272727273 0.02262727272727273 0.0
0.4408162152133581 0.06746621521335806 0.0
0.4848239517625232 0.11147395176252319 0.0
0.528000482374768 0.15465048237476808 0.0
0.5703458070500929 0.19699580705009276 0.0
0.6118599257884971 0.23850992578849717 0.0
0.6525428385899814 0.2791928385899814 0.0
0.6923945454545455 0.3190445454545454 0.0
0.7314150463821891 0.3580650463821891 0.0
0.7696043413729128 0.39625434137291277 0.0
0.8069624304267162 0.43361243042671616 0.0
0.8434893135435992 0.4701393135435992 0.0
0.8791849907235619 0.5058349907235621 0.0
0.9140494619666046 0.5406994619666047 0.0
0.9480827272727271 0.5747327272727272 0.0
0.9812847866419294 0.6079347866419295 0.0
1.0136556400742114 0.6403056400742114 0.0
1.0451952875695731 0.6718452875695732 0.0
1.0759037291280147 0.7025537291280147 0.0
1.105780964749536 0.7324309647495362 0.0
1.1348269944341371 0.7614769944341373 0.0
1.163041818181818 0.789691818181818 0.0
1.1904254359925786 0.8170754359925786 0.0
1.216977847866419 0.843627847866419 0.0
1.2426990538033393 0.8693490538033394 0.0
1.2675890538033392 0.8942390538033393 0.0
1.291647847866419 0.9182978478664192 0.0
1.3148754359925787 0.9415254359925787 0.0
1.3372718181818182 0.9639218181818181 0.0
1.3588369944341372 0.9854869944341373 0.0
1.379570964749536 1.0062209647495362 0.0
1.3994737291280148 1.0261237291280147 0.0
1.418545287569573 1.0451952875695731 0.0
1.4367856400742112 1.0634356400742113 0.0
1.4541947866419291 1.0808447866419293 0.0
1.470772727272727 1.097422727272727 0.0
1.4865194619666047 1.1131694619666048 0.0
1.501434990723562 1.128084990723562 0.0
1.5155193135435991 1.1421693135435993 0.0
1.528772430426716 1.1554224304267162 0.0
1.5411943413729128 1.1678443413729127 0.0
1.5527850463821888 1.179435046382189 0.0
1.5635445454545451 1.1901945454545453 0.0
1.573472838589981 1.2001228385899811 0.0
1.5825699257884969 1.209219925788497 0.0
1.5908358070500925 1.2174858070500927 0.0
1.5982704823747678 1.224920482374768 0.0
1.604873951762523 1.2315239517625232 0.0
1.6106462152133578 1.237296215213358 0.0
1.6155872727272724 1.2422372727272726 0.0

CELLS 200 700
4 0 101 102 1
4 1 102 103 2
4 2 103 104 3
4 3 104 105 4
4 4 105 106 5
4 5 106 107 6
4 6 107 108 7
4 7 108 109 8
4 8 109 110 9
4 9 110 111 10
4 10 111 112 11
4 11 112 113 12
4 12 113 114 13
4 13 114 115 14
4 14 115 116 15
4 15 116 117 16
4 16 117 118 17
4 17 118 119 18
4 18 119 120 19
4 19 120 121 20
4 20 121 122 21
4 21 122 123 22
4 22 123 124 23
4 23 124 125 24
4 24 125 126 25
4 25 126 127 26
4 26 127 128 27
4 27 128 129 28
4 28 129 130 29
4 29 130 131 30
4 30 131 132 31
4 31 132 133 32
4 32 133 134 33
4 33 134 135 34
4 34 135 136 35
4 35 136 137 36
4 36 137 138 37
4 37 138 139 38
4 38 139 140 39
4 39 140 141 40
4 40 141 142 41
4 41 142 143 42
4 42 143 144 43
4 43 144 145 44
4 44 145 146 45
4 45 146 147 46
4 46 147 148 47
4 47 148 149 48
4 48 149 150 49
4 49 150 151 50
4 50 151 152 51
4 51 152 153 52
4 52 153 154 53
4 53 154 155 54
4 54 155 156 55
4 55 156 157 56
4 56 157 158 57
4 57 158 159 58
4 58 159 160 59
4 59 160 161 60
4 60 161 162 61
4 61 162 163 62
4 62 163 164 63
4 63 164 165 64
4 64 165 166 65
4 65 166 167 66
4 66 167 168 67
4 67 168 169 68
4 68 169 170 69
4 69 170 171 70
4 70 171 172 71
4 71 172 173 72
4 72 173 174 73
4 73 174 175 74
4 74 175 176 75
4 75 176 177 76
4 76 177 178 77
4 77 178 179 78
4 78 179 180 79
4 79 180 181 80
4 80 181 182 81
4 81 182 183 82
4 82 183 184 83
4 83 184 185 84
4 84 185 186 85
4 85 186 187 86
4 86 187 188 87
4 87 188 189 88
4 88 189 190 89
4 89 190 191 90
4 90 191 192 91
4 91 192 193 92
4 92 193 194 93
4 93 194 195 94
4 94 195 196 95
4 95 196 197 96
4 96 197 198 97
4 97 198 199 98
4 98 199 200 99
4 99 200 201 100
1 202
1 203
1 204
1 205
1 206
1 207
1 208
1 209
1 210
1 211
1 212
1 213
1 214
1 215
1 216
1 217
1 218
1 219
1 220
1 221
1 222
1 223
1 224
1 225
1 226
1 227
1 228
1 229
1 230
1 231
1 232
1 233
1 234
1 235
1 236
1 237
1 238
1 239
1 240
1 241
1 242
1 243
1 244
1 245
1 246
1 247
1 248
1 249
1 250
1 251
1 252
1 253
1 254
1 255
1 256
1 257
1 258
1 259
1 260
1 261
1 262
1 263
1 264
1 265
1 266
1 267
1 268
1 269
1 270
1 271
1 272
1 273
1 274
1 275
1 276
1 277
1 278
1 279
1 280
1 281
1 282
1 283
1 284
1 285
1 286
1 287
1 288
1 289
1 290
1 291
1 292
1 293
1 294
1 295
1 296
1 297
1 298
1 299
1 300
1 301

CELL_TYPES 200
9
9
9
9
9
9
9
9
9
9
9
9
9
9
9
9
9
9
9
9
9
9
9
9
9
9
9
9
9
9
9
9
9
9
9
9
9
9
9
9
9
9
9
9
9
9
9
9
9
9
9
9
9
9
9
9
9
9
9
9
9
9
9
9
9
9
9
9
9
9
9
9
9
9
9
9
9
9
9
9
9
9
9
9
9
9
9
9
9
9
9
9
9
9
9
9
9
9
9
9
1
1
1
1
1
1
1
1
1
1
1
1
1
1
1
1
1
1
1
1
1
1
1
1
1
1
1
1
1
1
1
1
1
1
1
1
1
1
1
1
1
1
1
1
1
1
1
1
1
1
1
1
1
1
1
1
1
1
1
1
1
1
1
1
1
1
1
1
1
1
1
1
1
1
1
1
1
1
1
1
1
1
1
1
1
1
1
1
1
1
1
1
1
1
1
1
1
1
1
1

CELL_DATA 200

VECTORS Vinf float
49.530854935340365 0.033064214264896405 4.282527666640668
49.533369813251845 0.03400173928712024 4.247721650851615
49.53618615237602 0.03492750216899639 4.208476984772043
49.53924328480149 0.035779792632040945 4.165520076718202
49.54247355090638 0.036501537332498404 4.119668887506387
49.54580591795868 0.03704514338603336 4.071789481691667
49.549115889435924 0.03935390247066702 4.0229965620036054
49.55247717835966 0.03939058452172117 3.9731652765656036
49.55574466423832 0.03906320369809862 3.9237180611421083
49.55886787749354 0.03834724838762521 3.8753050302424037
49.561805979351 0.03722383907168494 3.82847727921124
49.56454163251752 0.03564445673809884 3.784615260491674
49.56708214302491 0.034723834977463744 3.7418340341868377
49.569408007943466 0.03366754131861627 3.701372571575179
49.57151809848991 0.032500187505594205 3.6633979441193425
49.57341626672084 0.03124474698209404 3.628026937861971
49.57511010128177 0.029922138943167954 3.5953293335848056
49.576609637267666 0.02855102047767317 3.5653298752705025
49.577871411273826 0.02740144382463218 3.5387429425498884
49.578976904685355 0.02533043090306829 3.5144081723598344
49.579994651234685 0.022187693535035618 3.4906782612300717
49.58089634082121 0.022890650039208836 3.471385214122227
49.58160150775634 0.021499392855774322 3.4539063203240983
49.58218641359326 0.02014059685839437 3.4385704899980665
49.58266441754052 0.018821508516774742 3.4252444165478018
49.58304776834128 0.017546102858171115 3.413799600100738
49.58324628502559 0.016173284761803856 3.404545557033859
49.58352216763139 0.014834217129481271 3.3962850944305405
49.58373109781383 0.013989636457848419 3.3895718088264655
49.583833925088314 0.012890388042572464 3.3845527165157727
49.58388814043907 0.011827344635075773 3.3809800794071965
49.583899704926615 0.010792737284791699 3.378844576883111
49.58377043358848 0.009227286041921232 3.3786048653903498
49.58372151977312 0.008022495562713162 3.378892776344922
49.583713231999454 0.007771696705958859 3.3806965701469007
49.58357571239815 0.006763244078713635 3.3837805683548283
49.58338830013969 0.0057404297786239605 3.3879988134302867
49.58311223985211 0.004430868153835269 3.393859928013268
49.58271920146126 0.003296344510173891 3.400575833874098
49.58227730537401 0.0025411124240757653 3.4091203523713287
49.58161117310568 0.0014663033037695772 3.4201664062412855
49.580759174064205 0.0004302992869524452 3.4340072416152276
49.579671823657876 -0.0007291467612423405 3.4515481510250576
49.578419759917374 -0.0014339692512053209 3.4725349949030133
49.57687942324349 -0.002172423393067613 3.4982058819214807
49.57512669262013 -0.0026291335964050335 3.5272008860411117
49.57334295766412 -0.0025568991629740506 3.555501397277993
49.57209380856874 -0.0019892114128119915 3.5746085621379167
49.5716673106008 -0.0010003019505372644 3.5792154839940045
49.57192310648651 -0.00020116408732151906 3.5727969813128935
49.571923490989235 0.00023556966769799515 3.5727947979654444
49.57166823191335 0.0010349925857747074 3.579212194856045
49.57209504922188 0.0020246063010826098 3.574607112037861
49.57344568470301 0.0025301418709628605 3.5550994480054015
49.575168877090185 0.002637773015401934 3.5271305566259263
49.57691846755703 0.00218329619571659 3.498134392893926
49.5784702506429 0.0013696334466471007 3.472413910927158
49.57977514179417 0.0003380163202748779 3.451106453202204
49.58076935510658 -0.00038206444002496443 3.433931127363117
49.5816257208476 -0.001414865038347704 3.4200642465304854
49.582297709036375 -0.0024874337842345387 3.4089900186410484
49.58276174109127 -0.0032559957266533554 3.4003759747263245
49.58314120414889 -0.004339148314592546 3.393618285724134
49.58342420632373 -0.005691287604875076 3.3878148024765347
49.58361327179595 -0.006717064474691406 3.3835926928876208
49.58375131688268 -0.007727906526422261 3.380506774323647
49.58375737755313 -0.007988389586696704 3.378805771735268
49.583811965418164 -0.009182952389711995 3.378325312222239
49.58393802094439 -0.010752440224854753 3.3786462853456256
49.583926800249024 -0.0117873948432224 3.380776970904221
49.583873154358955 -0.012850567296150537 3.384343449191037
49.58377111090887 -0.013949799498942247 3.389355077927817
49.58356741922628 -0.014793591783248293 3.396034159522364
49.583293271736935 -0.016117835517742433 3.404288396300605
49.58309118312599 -0.01750566887854462 3.413554782407796
49.58270929715039 -0.018780764013601525 3.424988547952593
49.58223292834711 -0.020099538485865525 3.4383027187496027
49.581649814722844 -0.021458055038013225 3.453625923986879
49.580946568639256 -0.022849099898194513 3.471091662800878
49.58004730505831 -0.022135876446841316 3.490374706233388
49.57903179920936 -0.02527426543989067 3.514090484243188
49.57792811986597 -0.027343666612727704 3.5384135759749165
49.57666807105017 -0.028509608985334514 3.56498036732698
49.57517055248142 -0.029880992567658887 3.594964967158093
49.573478685816106 -0.03120392184773309 3.627647365485977
49.571582434743746 -0.032459717761032014 3.663002913084676
49.56947421543691 -0.03362744305202496 3.700961967687162
49.56715018356425 -0.03468411218334589 3.7414078921019347
49.56461147581312 -0.0356051079072884 3.784173745994518
49.56187648172818 -0.03716514765152474 3.828037462551687
49.55894024187318 -0.03828803053711883 3.8748497774537793
49.55581882242518 -0.03900385909050491 3.923248112549444
49.5525530615715 -0.03933144921357895 3.9726813735627773
49.54919342371193 -0.03929525175847752 4.02249945872148
49.54588597942469 -0.03700819344338357 4.071263643258571
49.54255513334054 -0.03646504241294505 4.119130966372667
49.53932629378746 -0.03574375930935717 4.164970885733837
49.53627047539749 -0.034891925815735206 4.207917452607796
49.5334553208883 -0.03396660213218442 4.24715281995938
49.530941483167084 -0.033029484636990895 4.281950684519373
49.530854935340365 0.033064214264896405 4.282527666640668
49.533369813251845 0.03400173928712024 4.247721650851615
49.53618615237602 0.03492750216899639 4.208476984772043
49.53924328480149 0.035779792632040945 4.165520076718202
49.54247355090638 0.036501537332498404 4.119668887506387
49.54580591795868 0.03704514338603336 4.071789481691667
49.549115889435924 0.03935390247066702 4.0229965620036054
49.55247717835966 0.03939058452172117 3.9731652765656036
49.55574466423832 0.03906320369809862 3.9237180611421083
49.55886787749354 0.03834724838762521 3.8753050302424037
49.561805979351 0.03722383907168494 3.82847727921124
49.56454163251752 0.03564445673809884 3.784615260491674
49.56708214302491 0.034723834977463744 3.7418340341868377
49.569408007943466 0.03366754131861627 3.701372571575179
49.57151809848991 0.032500187505594205 3.6633979441193425
49.57341626672084 0.03124474698209404 3.628026937861971
49.57511010128177 0.029922138943167954 3.5953293335848056
49.576609637267666 0.02855102047767317 3.5653298752705025
49.577871411273826 0.02740144382463218 3.5387429425498884
49.578976904685355 0.02533043090306829 3.5144081723598344
49.579994651234685 0.022187693535035618 3.4906782612300717
49.58089634082121 0.022890650039208836 3.471385214122227
49.58160150775634 0.021499392855774322 3.4539063203240983
49.58218641359326 0.02014059685839437 3.4385704899980665
49.58266441754052 0.018821508516774742 3.4252444165478018
49.58304776834128 0.017546102858171115 3.413799600100738
49.58324628502559 0.016173284761803856 3.404545557033859
49.58352216763139 0.014834217129481271 3.3962850944305405
49.58373109781383 0.013989636457848419 3.3895718088264655
49.583833925088314 0.012890388042572464 3.3845527165157727
49.58388814043907 0.011827344635075773 3.3809800794071965
49.583899704926615 0.010792737284791699 3.378844576883111
49.58377043358848 0.009227286041921232 3.3786048653903498
49.58372151977312 0.008022495562713162 3.378892776344922
49.583713231999454 0.007771696705958859 3.3806965701469007
49.58357571239815 0.006763244078713635 3.3837805683548283
49.58338830013969 0.0057404297786239605 3.3879988134302867
49.58311223985211 0.004430868153835269 3.393859928013268
49.58271920146126 0.003296344510173891 3.400575833874098
49.58227730537401 0.0025411124240757653 3.4091203523713287
49.58161117310568 0.0014663033037695772 3.4201664062412855
49.580759174064205 0.0004302992869524452 3.4340072416152276
49.579671823657876 -0.0007291467612423405 3.4515481510250576
49.578419759917374 -0.0014339692512053209 3.4725349949030133
49.57687942324349 -0.002172423393067613 3.4982058819214807
49.57512669262013 -0.0026291335964050335 3.5272008860411117
49.57334295766412 -0.0025568991629740506 3.555501397277993
49.57209380856874 -0.0019892114128119915 3.5746085621379167
49.5716673106008 -0.0010003019505372644 3.5792154839940045
49.57192310648651 -0.00020116408732151906 3.5727969813128935
49.571923490989235 0.00023556966769799515 3.5727947979654444
49.57166823191335 0.0010349925857747074 3.579212194856045
49.57209504922188 0.0020246063010826098 3.574607112037861
49.57344568470301 0.0025301418709628605 3.5550994480054015
49.575168877090185 0.002637773015401934 3.5271305566259263
49.57691846755703 0.00218329619571659 3.498134392893926
49.5784702506429 0.0013696334466471007 3.472413910927158
49.57977514179417 0.0003380163202748779 3.451106453202204
49.58076935510658 -0.00038206444002496443 3.433931127363117
49.5816257208476 -0.001414865038347704 3.4200642465304854
49.582297709036375 -0.0024874337842345387 3.4089900186410484
49.58276174109127 -0.0032559957266533554 3.4003759747263245
49.58314120414889 -0.004339148314592546 3.393618285724134
49.58342420632373 -0.005691287604875076 3.3878148024765347
49.58361327179595 -0.006717064474691406 3.3835926928876208
49.58375131688268 -0.007727906526422261 3.380506774323647
49.58375737755313 -0.007988389586696704 3.378805771735268
49.583811965418164 -0.009182952389711995 3.378325312222239
49.58393802094439 -0.010752440224854753 3.3786462853456256
49.583926800249024 -0.0117873948432224 3.380776970904221
49.583873154358955 -0.012850567296150537 3.384343449191037
49.58377111090887 -0.013949799498942247 3.389355077927817
49.58356741922628 -0.014793591783248293 3.396034159522364
49.583293271736935 -0.016117835517742433 3.404288396300605
49.58309118312599 -0.01750566887854462 3.413554782407796
49.58270929715039 -0.018780764013601525 3.424988547952593
49.58223292834711 -0.020099538485865525 3.4383027187496027
49.581649814722844 -0.021458055038013225 3.453625923986879
49.580946568639256 -0.022849099898194513 3.471091662800878
49.58004730505831 -0.022135876446841316 3.490374706233388
49.57903179920936 -0.02527426543989067 3.514090484243188
49.57792811986597 -0.027343666612727704 3.5384135759749165
49.57666807105017 -0.028509608985334514 3.56498036732698
49.57517055248142 -0.029880992567658887 3.594964967158093
49.573478685816106 -0.03120392184773309 3.627647365485977
49.571582434743746 -0.032459717761032014 3.663002913084676
49.56947421543691 -0.03362744305202496 3.700961967687162
49.56715018356425 -0.03468411218334589 3.7414078921019347
49.56461147581312 -0.0356051079072884 3.784173745994518
49.56187648172818 -0.03716514765152474 3.828037462551687
49.55894024187318 -0.03828803053711883 3.8748497774537793
49.55581882242518 -0.03900385909050491 3.923248112549444
49.5525530615715 -0.03933144921357895 3.9726813735627773
49.54919342371193 -0.03929525175847752 4.02249945872148
49.54588597942469 -0.03700819344338357 4.071263643258571
49.54255513334054 -0.03646504241294505 4.119130966372667
49.53932629378746 -0.03574375930935717 4.164970885733837
49.53627047539749 -0.034891925815735206 4.207917452607796
49.5334553208883 -0.03396660213218442 4.24715281995938
49.530941483167084 -0.033029484636990895 4.281950684519373

VECTORS L float
-0.006616745410151459 0.0 0.09010292782265715
-0.011938621454623261 0.0 0.16257309002362277
-0.01764112158583956 0.0 0.24022636605013892
-0.023915839385025603 0.0 0.3256717640399432
-0.030804766943812005 0.0 0.4194811074752435
-0.03830968200783233 0.0 0.5216786046452483
-0.04641583003105133 0.0 0.6320633368634941
-0.05509903494529867 0.0 0.7503060887241647
-0.06432909582058187 0.0 0.8759956018144587
-0.07407075835953521 0.0 1.0086518039517423
-0.08428438751877768 0.0 1.1477349685436145
-0.09492667845137343 0.0 1.2926553957820934
-0.10594911697738064 0.0 1.44275244824157
-0.11730214360726944 0.0 1.5973512540883494
-0.1289343574775082 0.0 1.7557518667460217
-0.14079381520663045 0.0 1.9172469519496245
-0.15282927644151045 0.0 2.0811387488585766
-0.1649913758897836 0.0 2.246755030101389
-0.17723385958712592 0.0 2.413465936532719
-0.18951168781806726 0.0 2.5806581439303686
-0.201782427281401 0.0 2.7477538206809244
-0.21401535569630092 0.0 2.914334608924102
-0.22617588191088664 0.0 3.0799294668005013
-0.23823513910525929 0.0 3.2441453030199803
-0.250167576770801 0.0 3.4066341858591414
-0.26195072845926604 0.0 3.5670901805057422
-0.2735652907926614 0.0 3.725250424968545
-0.2849906070641052 0.0 3.8808336284234533
-0.29621195642165327 0.0 4.033639331010223
-0.3072160754246131 0.0 4.18348691903355
-0.317988540464606 0.0 4.330179980320362
-0.32851548274522674 0.0 4.473529657799087
-0.33878306517360796 0.0 4.613347526118194
-0.34877000837903266 0.0 4.749343815385544
-0.358460578843467 0.0 4.881304275852665
-0.3678335285084509 0.0 5.008939564019225
-0.3768633738832097 0.0 5.1319026607712
-0.3855226165280369 0.0 5.249819108611058
-0.39377378175247624 0.0 5.362178599355535
-0.4015808488328591 0.0 5.468490624081643
-0.40890022753837885 0.0 5.568161596792537
-0.4156749881486392 0.0 5.660416282207143
-0.4218369081672089 0.0 5.7443256666955325
-0.4272964905403049 0.0 5.818671032281188
-0.4319541075338786 0.0 5.882095707372011
-0.43568257380553266 0.0 5.932867757154771
-0.4383456222240186 0.0 5.969131576383926
-0.43984597095544964 0.0 5.989562438549115
-0.4402170563660251 0.0 5.994615660320927
-0.43842174701621517 0.0 5.970168198806528
-0.4384200572375441 0.0 5.9701451883994165
-0.44021232081933537 0.0 5.9945511744452995
-0.439837696186811 0.0 5.989449757641027
-0.43833184160497096 0.0 5.96894392005949
-0.4356684336666788 0.0 5.932675205102126
-0.43193825978403744 0.0 5.881879902082314
-0.42727835569739014 0.0 5.81842408270992
-0.4218156856272981 0.0 5.744036670691717
-0.41565489616616896 0.0 5.6601426814662785
-0.408879682920627 0.0 5.567881832331961
-0.4015595403999831 0.0 5.468200458438199
-0.39375147466885524 0.0 5.361874834676551
-0.385499844481363 0.0 5.249509012340059
-0.37684079706491186 0.0 5.131595223004828
-0.3678110546245946 0.0 5.008633527953233
-0.35843827569196424 0.0 4.881000564718942
-0.3487480955975343 0.0 4.749045420079792
-0.3387606245137991 0.0 4.613041942477642