# vtk DataFile Version 4.0
[MyVLM domain - lattices] 
ASCII
DATASET UNSTRUCTURED_GRID
POINTS 302 float
1.2444999999999997 -1.2445 0.0
1.2399745454545452 -1.2399745454545454 0.0
1.2346178849721705 -1.2346178849721707 0.0
1.2284300185528754 -1.2284300185528756 0.0
1.2214109461966602 -1.2214109461966605 0.0
1.2135606679035247 -1.213560667903525 0.0
1.2048791836734691 -1.2048791836734694 0.0
1.1953664935064932 -1.1953664935064934 0.0
1.1850225974025972 -1.1850225974025974 0.0
1.1738474953617808 -1.173847495361781 0.0
1.1618411873840442 -1.1618411873840444 0.0
1.1490036734693874 -1.1490036734693876 0.0
1.1353349536178106 -1.1353349536178108 0.0
1.1208350278293133 -1.1208350278293135 0.0
1.1055038961038959 -1.105503896103896 0.0
1.0893415584415582 -1.0893415584415584 0.0
1.0723480148423004 -1.0723480148423006 0.0
1.054523265306122 -1.0545232653061223 0.0
1.0358673098330238 -1.035867309833024 0.0
1.0163801484230053 -1.0163801484230055 0.0
0.9960617810760664 -0.9960617810760668 0.0
0.9749122077922076 -0.9749122077922077 0.0
0.9529314285714284 -0.9529314285714284 0.0
0.9301194434137288 -0.930119443413729 0.0
0.9064762523191091 -0.9064762523191096 0.0
0.8820018552875695 -0.8820018552875695 0.0
0.8566962523191093 -0.8566962523191094 0.0
0.8305594434137288 -0.8305594434137291 0.0
0.8035914285714284 -0.8035914285714285 0.0
0.7757922077922076 -0.7757922077922077 0.0
0.7471617810760666 -0.7471617810760667 0.0
0.7177001484230053 -0.7177001484230054 0.0
0.6874073098330239 -0.687407309833024 0.0
0.6562832653061222 -0.6562832653061225 0.0
0.6243280148423004 -0.6243280148423005 0.0
0.5915415584415582 -0.5915415584415583 0.0
0.5579238961038958 -0.5579238961038959 0.0
0.5234750278293133 -0.5234750278293134 0.0
0.48819495361781057 -0.48819495361781057 0.0
0.4520836734693877 -0.4520836734693877 0.0
0.4151411873840445 -0.4151411873840446 0.0
0.37736749536178105 -0.37736749536178116 0.0
0.3387625974025974 -0.3387625974025974 0.0
0.2993264935064933 -0.29932649350649343 0.0
0.25905918367346925 -0.25905918367346925 0.0
0.21796066790352486 -0.21796066790352486 0.0
0.17603094619666027 -0.1760309461966605 0.0
0.13327001855287546 -0.13327001855287568 0.0
0.08967788497217066 -0.08967788497217066 0.0
0.045254545454545436 -0.045254545454545436 0.0
0.0 0.0 0.0
0.04525454545454545 0.04525454545454546 0.0
0.08967788497217066 0.08967788497217068 0.0
0.13327001855287568 0.1332700185528757 0.0
0.17603094619666046 0.1760309461966605 0.0
0.21796066790352497 0.21796066790352508 0.0
0.2590591836734693 0.25905918367346936 0.0
0.29932649350649343 0.2993264935064935 0.0
0.3387625974025973 0.33876259740259734 0.0
0.37736749536178094 0.377367495361781 0.0
0.41514118738404443 0.4151411873840445 0.0
0.45208367346938766 0.4520836734693878 0.0
0.48819495361781057 0.4881949536178107 0.0
0.5234750278293133 0.5234750278293134 0.0
0.5579238961038959 0.557923896103896 0.0
0.5915415584415582 0.5915415584415583 0.0
0.6243280148423003 0.6243280148423004 0.0
0.6562832653061222 0.6562832653061225 0.0
0.687407309833024 0.6874073098330241 0.0
0.7177001484230054 0.7177001484230056 0.0
0.7471617810760667 0.7471617810760669 0.0
0.7757922077922076 0.7757922077922077 0.0
0.8035914285714284 0.8035914285714285 0.0
0.8305594434137288 0.830559443413729 0.0
0.8566962523191093 0.8566962523191094 0.0
0.8820018552875692 0.8820018552875695 0.0
0.9064762523191091 0.9064762523191093 0.0
0.9301194434137288 0.9301194434137292 0.0
0.9529314285714284 0.9529314285714284 0.0
0.9749122077922076 0.9749122077922077 0.0
0.9960617810760666 0.9960617810760668 0.0
1.0163801484230053 1.0163801484230055 0.0
1.0358673098330238 1.035867309833024 0.0
1.054523265306122 1.0545232653061223 0.0
1.0723480148423001 1.0723480148423004 0.0
1.0893415584415582 1.0893415584415584 0.0
1.1055038961038959 1.105503896103896 0.0
1.120835027829313 1.1208350278293133 0.0
1.1353349536178106 1.1353349536178106 0.0
1.1490036734693874 1.1490036734693876 0.0
1.1618411873840444 1.1618411873840446 0.0
1.1738474953617808 1.173847495361781 0.0
1.1850225974025972 1.1850225974025972 0.0
1.1953664935064932 1.1953664935064934 0.0
1.2048791836734691 1.2048791836734694 0.0
1.2135606679035245 1.2135606679035247 0.0
1.22141094619666 1.2214109461966602 0.0
1.2284300185528754 1.2284300185528756 0.0
1.2346178849721703 1.2346178849721705 0.0
1.2399745454545452 1.2399745454545454 0.0
1.2444999999999997 1.2445 0.0
1.7422999999999997 -1.2445 0.0
1.7377745454545452 -1.2399745454545454 0.0
1.7324178849721703 -1.2346178849721707 0.0
1.7262300185528754 -1.2284300185528756 0.0
1.7192109461966603 -1.2214109461966605 0.0
1.7113606679035245 -1.213560667903525 0.0
1.7026791836734692 -1.2048791836734694 0.0
1.6931664935064934 -1.1953664935064934 0.0
1.6828225974025972 -1.1850225974025974 0.0
1.6716474953617806 -1.173847495361781 0.0
1.6596411873840444 -1.1618411873840444 0.0
1.6468036734693878 -1.1490036734693876 0.0
1.6331349536178106 -1.1353349536178108 0.0
1.6186350278293133 -1.1208350278293135 0.0
1.603303896103896 -1.105503896103896 0.0
1.5871415584415582 -1.0893415584415584 0.0
1.5701480148423004 -1.0723480148423006 0.0
1.552323265306122 -1.0545232653061223 0.0
1.5336673098330238 -1.035867309833024 0.0
1.5141801484230053 -1.0163801484230055 0.0
1.4938617810760666 -0.9960617810760668 0.0
1.4727122077922075 -0.9749122077922077 0.0
1.4507314285714283 -0.9529314285714284 0.0
1.4279194434137288 -0.930119443413729 0.0
1.4042762523191092 -0.9064762523191096 0.0
1.3798018552875693 -0.8820018552875695 0.0
1.3544962523191093 -0.8566962523191094 0.0
1.328359443413729 -0.8305594434137291 0.0
1.3013914285714283 -0.8035914285714285 0.0
1.2735922077922077 -0.7757922077922077 0.0
1.2449617810760665 -0.7471617810760667 0.0
1.2155001484230055 -0.7177001484230054 0.0
1.1852073098330238 -0.687407309833024 0.0
1.1540832653061224 -0.6562832653061225 0.0
1.1221280148423003 -0.6243280148423005 0.0
1.0893415584415582 -0.5915415584415583 0.0
1.055723896103896 -0.5579238961038959 0.0
1.0212750278293132 -0.5234750278293134 0.0
0.9859949536178108 -0.48819495361781057 0.0
0.9498836734693876 -0.4520836734693877 0.0
0.9129411873840445 -0.4151411873840446 0.0
0.875167495361781 -0.37736749536178116 0.0
0.8365625974025973 -0.3387625974025974 0.0
0.7971264935064933 -0.29932649350649343 0.0
0.7568591836734693 -0.25905918367346925 0.0
0.7157606679035249 -0.21796066790352486 0.0
0.6738309461966603 -0.1760309461966605 0.0
0.6310700185528755 -0.13327001855287568 0.0
0.5874778849721707 -0.08967788497217066 0.0
0.5430545454545455 -0.045254545454545436 0.0
0.4978 0.0 0.0
0.5430545454545455 0.04525454545454546 0.0
0.5874778849721707 0.08967788497217068 0.0
0.6310700185528757 0.1332700185528757 0.0
0.6738309461966605 0.1760309461966605 0.0
0.715760667903525 0.21796066790352508 0.0
0.7568591836734693 0.25905918367346936 0.0
0.7971264935064934 0.2993264935064935 0.0
0.8365625974025973 0.33876259740259734 0.0
0.875167495361781 0.377367495361781 0.0
0.9129411873840445 0.4151411873840445 0.0
0.9498836734693876 0.4520836734693878 0.0
0.9859949536178105 0.4881949536178107 0.0
1.0212750278293132 0.5234750278293134 0.0
1.055723896103896 0.557923896103896 0.0
1.0893415584415582 0.5915415584415583 0.0
1.1221280148423003 0.6243280148423004 0.0
1.1540832653061224 0.6562832653061225 0.0
1.185207309833024 0.6874073098330241 0.0
1.2155001484230055 0.7177001484230056 0.0
1.2449617810760667 0.7471617810760669 0.0
1.2735922077922077 0.7757922077922077 0.0
1.3013914285714283 0.8035914285714285 0.0
1.3283594434137287 0.830559443413729 0.0
1.3544962523191093 0.8566962523191094 0.0
1.3798018552875693 0.8820018552875695 0.0
1.4042762523191092 0.9064762523191093 0.0
1.427919443413729 0.9301194434137292 0.0
1.4507314285714283 0.9529314285714284 0.0
1.4727122077922075 0.9749122077922077 0.0
1.4938617810760666 0.9960617810760668 0.0
1.5141801484230053 1.0163801484230055 0.0
1.5336673098330238 1.035867309833024 0.0
1.552323265306122 1.0545232653061223 0.0
1.5701480148423002 1.0723480148423004 0.0
1.5871415584415582 1.0893415584415584 0.0
1.603303896103896 1.105503896103896 0.0
1.6186350278293131 1.1208350278293133 0.0
1.6331349536178106 1.1353349536178106 0.0
1.6468036734693874 1.1490036734693876 0.0
1.6596411873840444 1.1618411873840446 0.0
1.6716474953617806 1.173847495361781 0.0
1.6828225974025972 1.1850225974025972 0.0
1.6931664935064934 1.1953664935064934 0.0
1.7026791836734692 1.2048791836734694 0.0
1.7113606679035245 1.2135606679035247 0.0
1.71921094619666 1.2214109461966602 0.0
1.7262300185528754 1.2284300185528756 0.0
1.7324178849721703 1.2346178849721705 0.0
1.7377745454545452 1.2399745454545454 0.0
1.7422999999999997 1.2445 0.0
1.6155872727272724 -1.2422372727272726 0.0
1.6106462152133578 -1.237296215213358 0.0
1.604873951762523 -1.2315239517625232 0.0
1.598270482374768 -1.224920482374768 0.0
1.5908358070500925 -1.2174858070500927 0.0
1.582569925788497 -1.2092199257884972 0.0
1.5734728385899812 -1.2001228385899814 0.0
1.5635445454545454 -1.1901945454545453 0.0
1.552785046382189 -1.1794350463821892 0.0
1.5411943413729126 -1.1678443413729127 0.0
1.5287724304267158 -1.155422430426716 0.0
1.5155193135435991 -1.142169313543599 0.0
1.501434990723562 -1.1280849907235622 0.0
1.4865194619666047 -1.1131694619666048 0.0
1.4707727272727271 -1.0974227272727273 0.0
1.4541947866419294 -1.0808447866419293 0.0
1.4367856400742112 -1.0634356400742113 0.0
1.418545287569573 -1.0451952875695731 0.0
1.3994737291280146 -1.0261237291280147 0.0
1.379570964749536 -1.0062209647495362 0.0
1.358836994434137 -0.9854869944341371 0.0
1.337271818181818 -0.9639218181818181 0.0
1.3148754359925787 -0.9415254359925787 0.0
1.291647847866419 -0.9182978478664192 0.0
1.2675890538033394 -0.8942390538033393 0.0
1.2426990538033393 -0.8693490538033395 0.0
1.2169778478664193 -0.8436278478664192 0.0
1.1904254359925788 -0.8170754359925788 0.0
1.163041818181818 -0.7896918181818181 0.0
1.1348269944341371 -0.7614769944341371 0.0
1.105780964749536 -0.7324309647495362 0.0
1.0759037291280147 -0.7025537291280148 0.0
1.0451952875695731 -0.6718452875695733 0.0
1.0136556400742114 -0.6403056400742114 0.0
0.9812847866419293 -0.6079347866419293 0.0
0.9480827272727271 -0.5747327272727272 0.0
0.9140494619666047 -0.5406994619666048 0.0
0.8791849907235622 -0.5058349907235622 0.0
0.8434893135435992 -0.47013931354359917 0.0
0.8069624304267162 -0.43361243042671627 0.0
0.7696043413729128 -0.3962543413729128 0.0
0.7314150463821893 -0.3580650463821894 0.0
0.6923945454545455 -0.3190445454545454 0.0
0.6525428385899814 -0.27919283858998134 0.0
0.6118599257884971 -0.23850992578849706 0.0
0.5703458070500929 -0.19699580705009279 0.0
0.5280004823747682 -0.15465048237476808 0.0
0.4848239517625232 -0.11147395176252317 0.0
0.4408162152133581 -0.06746621521335805 0.0
0.39597727272727273 -0.022627272727272718 0.0
0.39597727272727273 0.02262727272727273 0.0
0.4408162152133581 0.06746621521335806 0.0
0.4848239517625232 0.11147395176252319 0.0
0.528000482374768 0.15465048237476808 0.0
0.5703458070500929 0.19699580705009276 0.0
0.6118599257884971 0.23850992578849717 0.0
0.6525428385899814 0.2791928385899814 0.0
0.6923945454545455 0.3190445454545454 0.0
0.7314150463821891 0.3580650463821891 0.0
0.7696043413729128 0.39625434137291277 0.0
0.8069624304267162 0.43361243042671616 0.0
0.8434893135435992 0.4701393135435992 0.0
0.8791849907235619 0.5058349907235621 0.0
0.9140494619666046 0.5406994619666047 0.0
0.9480827272727271 0.5747327272727272 0.0
0.9812847866419294 0.6079347866419295 0.0
1.0136556400742114 0.6403056400742114 0.0
1.0451952875695731 0.6718452875695732 0.0
1.0759037291280147 0.7025537291280147 0.0
1.105780964749536 0.7324309647495362 0.0
1.1348269944341371 0.7614769944341373 0.0
1.163041818181818 0.789691818181818 0.0
1.1904254359925786 0.8170754359925786 0.0
1.216977847866419 0.843627847866419 0.0
1.2426990538033393 0.8693490538033394 0.0
1.2675890538033392 0.8942390538033393 0.0
1.291647847866419 0.9182978478664192 0.0
1.3148754359925787 0.9415254359925787 0.0
1.3372718181818182 0.9639218181818181 0.0
1.3588369944341372 0.9854869944341373 0.0
1.379570964749536 1.0062209647495362 0.0
1.3994737291280148 1.0261237291280147 0.0
1.418545287569573 1.0451952875695731 0.0
1.4367856400742112 1.0634356400742113 0.0
1.4541947866419291 1.0808447866419293 0.0
1.470772727272727 1.097422727272727 0.0
1.4865194619666047 1.1131694619666048 0.0
1.501434990723562 1.128084990723562 0.0
1.5155193135435991 1.1421693135435993 0.0
1.528772430426716 1.1554224304267162 0.0
1.5411943413729128 1.1678443413729127 0.0
1.5527850463821888 1.179435046382189 0.0
1.5635445454545451 1.1901945454545453 0.0
1.573472838589981 1.2001228385899811 0.0
1.5825699257884969 1.209219925788497 0.0
1.5908358070500925 1.2174858070500927 0.0
1.5982704823747678 1.224920482374768 0.0
1.604873951762523 1.2315239517625232 0.0
1.6106462152133578 1.237296215213358 0.0
1.6155872727272724 1.2422372727272726 0.0

CELLS 200 700
4 0 101 102 1
4 1 102 103 2
4 2 103 104 3
4 3 104 105 4
4 4 105 106 5
4 5 106 107 6
4 6 107 108 7
4 7 108 109 8
4 8 109 110 9
4 9 110 111 10
4 10 111 112 11
4 11 112 113 12
4 12 113 114 13
4 13 114 115 14
4 14 115 116 15
4 15 116 117 16
4 16 117 118 17
4 17 118 119 18
4 18 119 120 19
4 19 120 121 20
4 20 121 122 21
4 21 122 123 22
4 22 123 124 23
4 23 124 125 24
4 24 125 126 25
4 25 126 127 26
4 26 127 128 27
4 27 128 129 28
4 28 129 130 29
4 29 130 131 30
4 30 131 132 31
4 31 132 133 32
4 32 133 134 33
4 33 134 135 34
4 34 135 136 35
4 35 136 137 36
4 36 137 138 37
4 37 138 139 38
4 38 139 140 39
4 39 140 141 40
4 40 141 142 41
4 41 142 143 42
4 42 143 144 43
4 43 144 145 44
4 44 145 146 45
4 45 146 147 46
4 46 147 148 47
4 47 148 149 48
4 48 149 150 49
4 49 150 151 50
4 50 151 152 51
4 51 152 153 52
4 52 153 154 53
4 53 154 155 54
4 54 155 156 55
4 55 156 157 56
4 56 157 158 57
4 57 158 159 58
4 58 159 160 59
4 59 160 161 60
4 60 161 162 61
4 61 162 163 62
4 62 163 164 63
4 63 164 165 64
4 64 165 166 65
4 65 166 167 66
4 66 167 168 67
4 67 168 169 68
4 68 169 170 69
4 69 170 171 70
4 70 171 172 71
4 71 172 173 72
4 72 173 174 73
4 73 174 175 74
4 74 175 176 75
4 75 176 177 76
4 76 177 178 77
4 77 178 179 78
4 78 179 180 79
4 79 180 181 80
4 80 181 182 81
4 81 182 183 82
4 82 183 184 83
4 83 184 185 84
4 84 185 186 85
4 85 186 187 86
4 86 187 188 87
4 87 188 189 88
4 88 189 190 89
4 89 190 191 90
4 90 191 192 91
4 91 192 193 92
4 92 193 194 93
4 93 194 195 94
4 94 195 196 95
4 95 196 197 96
4 96 197 198 97
4 97 198 199 98
4 98 199 200 99
4 99 200 201 100
1 202
1 203
1 204
1 205
1 206
1 207
1 208
1 209
1 210
1 211
1 212
1 213
1 214
1 215
1 216
1 217
1 218
1 219
1 220
1 221
1 222
1 223
1 224
1 225
1 226
1 227
1 228
1 229
1 230
1 231
1 232
1 233
1 234
1 235
1 236
1 237
1 238
1 239
1 240
1 241
1 242
1 243
1 244
1 245
1 246
1 247
1 248
1 249
1 250
1 251
1 252
1 253
1 254
1 255
1 256
1 257
1 258
1 259
1 260
1 261
1 262
1 263
1 264
1 265
1 266
1 267
1 268
1 269
1 270
1 271
1 272
1 273
1 274
1 275
1 276
1 277
1 278
1 279
1 280
1 281
1 282
1 283
1 284
1 285
1 286
1 287
1 288
1 289
1 290
1 291
1 292
1 293
1 294
1 295
1 296
1 297
1 298
1 299
1 300
1 301

CELL_TYPES 200
9
9
9
9
9
9
9
9
9
9
9
9
9
9
9
9
9
9
9
9
9
9
9
9
9
9
9
9
9
9
9
9
9
9
9
9
9
9
9
9
9
9
9
9
9
9
9
9
9
9
9
9
9
9
9
9
9
9
9
9
9
9
9
9
9
9
9
9
9
9
9
9
9
9
9
9
9
9
9
9
9
9
9
9
9
9
9
9
9
9
9
9
9
9
9
9
9
9
9
9
1
1
1
1
1
1
1
1
1
1
1
1
1
1
1
1
1
1
1
1
1
1
1
1
1
1
1
1
1
1
1
1
1
1
1
1
1
1
1
1
1
1
1
1
1
1
1
1
1
1
1
1
1
1
1
1
1
1
1
1
1
1
1
1
1
1
1
1
1
1
1
1
1
1
1
1
1
1
1
1
1
1
1
1
1
1
1
1
1
1
1
1
1
1
1
1
1
1
1
1

CELL_DATA 200

VECTORS Vinf float
49.53023835598501 0.029328841324525155 4.3144773004012515
49.53271421847016 0.030346112238126267 4.279362363475375
49.53548451348533 0.03136902383580486 4.239762769598644
49.53848819020698 0.03233739753648759 4.196410052314325
49.54165706654049 0.03319572665791229 4.150129576905447
49.54491943689028 0.03389796159374991 4.101797687825662
49.548204412653554 0.03441122927760033 4.052290012142063
49.55144619692042 0.03471767015626366 4.002431319774782
49.554587458064525 0.034813996772400886 3.9529576377531956
49.55758123920761 0.03470901128159057 3.9044975184107695
49.560449372458194 0.033417366414670316 3.856628202654921
49.56368391196694 0.02614936763054093 3.7987922165319827
49.56584391427466 0.027030221583385954 3.760201113873753
49.56789683133014 0.02763518308458922 3.7224658587860477
49.569823879553496 0.027939257597515203 3.686037688691584
49.57161139439452 0.02791490031262789 3.6513153551644977
49.57324962502576 0.02753094881704034 3.61864202445567
49.57473113057699 0.02675213447159856 3.588306090358262
49.576049159009266 0.025539300379317086 3.5605446118859323
49.577196396397994 0.023850230974640455 3.5355477601566565
49.578164298870604 0.021640752390390525 3.5134638029035727
49.57894299844998 0.018865692878997403 3.494406002180306
49.57952170013737 0.01547945216388416 3.478463183148131
49.580331286713424 0.014613404726035633 3.4552495427950136
49.58083590573638 0.014783018832819529 3.443755804870967
49.58126666178445 0.014635909223173186 3.433050963600253
49.58161897339807 0.014181070611284999 3.4234114264572773
49.58189778385018 0.013417622165882274 3.4150101869620855
49.582110607321475 0.012332292087572732 3.4079679389206015
49.58226104806838 0.010901403368121657 3.4023885254164865
49.58234621159276 0.009096819415318638 3.398374064555653
49.58235905331569 0.006892037344512928 3.396016646857555
49.582684718422875 0.013787085595042324 3.3996945298636425
49.58265389267063 0.011633389657641935 3.3987125955120465
49.582567929787665 0.009705085476159966 3.3992011435522422
49.582437339212575 0.008026662836400217 3.40112164217065
49.58227012927156 0.0066102122230884425 3.404503169251126
49.5820571601336 0.00545681145162747 3.409490266538615
49.581766564628595 0.0045716409761277525 3.41634114783178
49.58123322382142 0.003421196072914179 3.424573168943657
49.580707003585836 0.0020771870041888605 3.4354366725524286
49.5799988951874 0.0007766100531914958 3.4489522785939277
49.579077790201225 -0.0004406840301720329 3.4657892974157347
49.57790435611329 -0.0015242286959986882 3.4866051516716015
49.57644494682174 -0.0023805279159416527 3.5116470265641597
49.574890915834104 -0.0022138546380718192 3.5410073034918863
49.57303075642228 -0.0024490793585724966 3.568952793333925
49.57163293079055 -0.001979207496915032 3.5882269404893936
49.57114154896875 -0.0010592461188932154 3.5927325843478073
49.571377448964824 -0.0002849734674124107 3.5860910422953056
49.571377631948494 0.0002885070712336646 3.5860895347813235
49.57114209565382 0.00106272223852409 3.5927288918015456
49.57163381029198 0.001982642359428258 3.588221525299029
49.57303198662539 0.0024524909362996132 3.568945537749004
49.57489255277605 0.00221723300682074 3.540997586289283
49.57644698821415 0.002381059467313368 3.5116333368693433
49.57790700119274 0.0015250725377175594 3.4865864848590515
49.57908113833147 0.0004416828857696445 3.4657644268294403
49.5800030030561 -0.0007756594136680719 3.4489201156538147
49.580711855513165 -0.00207652373173908 3.43539649000132
49.58123870311816 -0.0034210736387770336 3.42452475293249
49.58177263899002 -0.004572200285638858 3.416284833467804
49.58206328223932 -0.005458578107522144 3.409426969809875
49.58227588062278 -0.006613051957904523 3.404434139999161
49.582442424209574 -0.008030178621929701 3.4010483548366826
49.58257235875453 -0.009708766757447833 3.3991247534515887
49.582657986745005 -0.01163689796331341 3.3986334353692484
49.58268886507464 -0.01379043109454011 3.3996122268140585
49.58236126793117 -0.006903597759081507 3.3959374963364075
49.58234819552824 -0.009106775464428158 3.398292454301522
49.58226243458834 -0.010909557281034935 3.40230680377851
49.58211128247105 -0.012338087569674423 3.407889058922273
49.581898139819224 -0.013420588284011633 3.4149358367856832
49.58161972970999 -0.014181186046981322 3.4233411388926336
49.581268464900745 -0.014633578541711363 3.4329828405638003
49.580839089131686 -0.014778809079122584 3.443687778444885
49.580335891016915 -0.014607826872720093 3.455180095502699
49.579530695797885 -0.015475613044831311 3.47838834929793
49.578953184630734 -0.018862021406631704 3.4943281480297292
49.578175507330705 -0.021637337153035913 3.513382720860593
49.57720849295682 -0.02384711670760953 3.5354633373310618
49.576062043266596 -0.02553651266504663 3.560456771320742
49.5747447285904 -0.02674969592149496 3.588214767046223
49.573263880381205 -0.02752888791620217 3.6185471571222054
49.571626260382324 -0.027913253925260333 3.651216885943662
49.569839313696185 -0.027938068756011243 3.6859355693704443
49.56791279239845 -0.027634496316567794 3.722360062464734
49.56586036118072 -0.027030077936781253 3.7600916482422617
49.563700803680135 -0.02614980078599793 3.798679133810466
49.56046650453227 -0.03341935520504803 3.8565102353663065
49.557598365907914 -0.034715990127034566 3.904375887407942
49.554604823304025 -0.03482130718900988 3.952832640648676
49.55146378686591 -0.03472529556408412 4.00230310629962
49.5482222146635 -0.03441915200529851 4.052158750060149
49.54493743880201 -0.033906163410436535 4.101663558877183
49.541675255941186 -0.03320418890357952 4.149992775692329
49.538506553799415 -0.03234610091310013 4.19627078712648
49.53550303663481 -0.03137794800279576 4.239621263868424
49.5327328849766 -0.03035523537452862 4.279218856774298
49.53025714807386 -0.029338139789441636 4.314332048387699
49.53023835598501 0.029328841324525155 4.3144773004012515
49.53271421847016 0.030346112238126267 4.279362363475375
49.53548451348533 0.03136902383580486 4.239762769598644
49.53848819020698 0.03233739753648759 4.196410052314325
49.54165706654049 0.03319572665791229 4.150129576905447
49.54491943689028 0.03389796159374991 4.101797687825662
49.548204412653554 0.03441122927760033 4.052290012142063
49.55144619692042 0.03471767015626366 4.002431319774782
49.554587458064525 0.034813996772400886 3.9529576377531956
49.55758123920761 0.03470901128159057 3.9044975184107695
49.560449372458194 0.033417366414670316 3.856628202654921
49.56368391196694 0.02614936763054093 3.7987922165319827
49.56584391427466 0.027030221583385954 3.760201113873753
49.56789683133014 0.02763518308458922 3.7224658587860477
49.569823879553496 0.027939257597515203 3.686037688691584
49.57161139439452 0.02791490031262789 3.6513153551644977
49.57324962502576 0.02753094881704034 3.61864202445567
49.57473113057699 0.02675213447159856 3.588306090358262
49.576049159009266 0.025539300379317086 3.5605446118859323
49.577196396397994 0.023850230974640455 3.5355477601566565
49.578164298870604 0.021640752390390525 3.5134638029035727
49.57894299844998 0.018865692878997403 3.494406002180306
49.57952170013737 0.01547945216388416 3.478463183148131
49.580331286713424 0.014613404726035633 3.4552495427950136
49.58083590573638 0.014783018832819529 3.443755804870967
49.58126666178445 0.014635909223173186 3.433050963600253
49.58161897339807 0.014181070611284999 3.4234114264572773
49.58189778385018 0.013417622165882274 3.4150101869620855
49.582110607321475 0.012332292087572732 3.4079679389206015
49.58226104806838 0.010901403368121657 3.4023885254164865
49.58234621159276 0.009096819415318638 3.398374064555653
49.58235905331569 0.006892037344512928 3.396016646857555
49.582684718422875 0.013787085595042324 3.3996945298636425
49.58265389267063 0.011633389657641935 3.3987125955120465
49.582567929787665 0.009705085476159966 3.3992011435522422
49.582437339212575 0.008026662836400217 3.40112164217065
49.58227012927156 0.0066102122230884425 3.404503169251126
49.5820571601336 0.00545681145162747 3.409490266538615
49.581766564628595 0.0045716409761277525 3.41634114783178
49.58123322382142 0.003421196072914179 3.424573168943657
49.580707003585836 0.0020771870041888605 3.4354366725524286
49.5799988951874 0.0007766100531914958 3.4489522785939277
49.579077790201225 -0.0004406840301720329 3.4657892974157347
49.57790435611329 -0.0015242286959986882 3.4866051516716015
49.57644494682174 -0.0023805279159416527 3.5116470265641597
49.574890915834104 -0.0022138546380718192 3.5410073034918863
49.57303075642228 -0.0024490793585724966 3.568952793333925
49.57163293079055 -0.001979207496915032 3.5882269404893936
49.57114154896875 -0.0010592461188932154 3.5927325843478073
49.571377448964824 -0.0002849734674124107 3.5860910422953056
49.571377631948494 0.0002885070712336646 3.5860895347813235
49.57114209565382 0.00106272223852409 3.5927288918015456
49.57163381029198 0.001982642359428258 3.588221525299029
49.57303198662539 0.0024524909362996132 3.568945537749004
49.57489255277605 0.00221723300682074 3.540997586289283
49.57644698821415 0.002381059467313368 3.5116333368693433
49.57790700119274 0.0015250725377175594 3.4865864848590515
49.57908113833147 0.0004416828857696445 3.4657644268294403
49.5800030030561 -0.0007756594136680719 3.4489201156538147
49.580711855513165 -0.00207652373173908 3.43539649000132
49.58123870311816 -0.0034210736387770336 3.42452475293249
49.58177263899002 -0.004572200285638858 3.416284833467804
49.58206328223932 -0.005458578107522144 3.409426969809875
49.58227588062278 -0.006613051957904523 3.404434139999161
49.582442424209574 -0.008030178621929701 3.4010483548366826
49.58257235875453 -0.009708766757447833 3.3991247534515887
49.582657986745005 -0.01163689796331341 3.3986334353692484
49.58268886507464 -0.01379043109454011 3.3996122268140585
49.58236126793117 -0.006903597759081507 3.3959374963364075
49.58234819552824 -0.009106775464428158 3.398292454301522
49.58226243458834 -0.010909557281034935 3.40230680377851
49.58211128247105 -0.012338087569674423 3.407889058922273
49.581898139819224 -0.013420588284011633 3.4149358367856832
49.58161972970999 -0.014181186046981322 3.4233411388926336
49.581268464900745 -0.014633578541711363 3.4329828405638003
49.580839089131686 -0.014778809079122584 3.443687778444885
49.580335891016915 -0.014607826872720093 3.455180095502699
49.579530695797885 -0.015475613044831311 3.47838834929793
49.578953184630734 -0.018862021406631704 3.4943281480297292
49.578175507330705 -0.021637337153035913 3.513382720860593
49.57720849295682 -0.02384711670760953 3.5354633373310618
49.576062043266596 -0.02553651266504663 3.560456771320742
49.5747447285904 -0.02674969592149496 3.588214767046223
49.573263880381205 -0.02752888791620217 3.6185471571222054
49.571626260382324 -0.027913253925260333 3.651216885943662
49.569839313696185 -0.027938068756011243 3.6859355693704443
49.56791279239845 -0.027634496316567794 3.722360062464734
49.56586036118072 -0.027030077936781253 3.7600916482422617
49.563700803680135 -0.02614980078599793 3.798679133810466
49.56046650453227 -0.03341935520504803 3.8565102353663065
49.557598365907914 -0.034715990127034566 3.904375887407942
49.554604823304025 -0.03482130718900988 3.952832640648676
49.55146378686591 -0.03472529556408412 4.00230310629962
49.5482222146635 -0.03441915200529851 4.052158750060149
49.54493743880201 -0.033906163410436535 4.101663558877183
49.541675255941186 -0.03320418890357952 4.149992775692329
49.538506553799415 -0.03234610091310013 4.19627078712648
49.53550303663481 -0.03137794800279576 4.239621263868424
49.5327328849766 -0.03035523537452862 4.279218856774298
49.53025714807386 -0.029338139789441636 4.314332048387699

VECTORS L float
-0.006661590933536025 0.0 0.09071360765182053
-0.012018628016926892 0.0 0.16366257209701843
-0.017758425406971222 0.0 0.24182374014776287
-0.02407379045146957 0.0 0.3278226482975539
-0.03100688667847622 0.0 0.4222334545484804
-0.03855936961336206 0.0 0.5250787028664585
-0.04671620931597552 0.0 0.6361537244107349
-0.055453082586122145 0.0 0.7551273002185585
-0.06473913896585938 0.0 0.8815793269894416
-0.07453808361749804 0.0 1.0150155630776911
-0.08480816847383675 0.0 1.154867507981533
-0.09550075571971683 0.0 1.3004728406840562
-0.10658755292404273 0.0 1.45144629158232
-0.11801057120796081 0.0 1.6069982024014495
-0.1297146808419413 0.0 1.7663778490720123
-0.1416460765808695 0.0 1.9288525435704367
-0.15375248905553895 0.0 2.093710512523407
-0.16598402913523563 0.0 2.260272395238435
-0.17829391200001926 0.0 2.4279011036921845
-0.19063887272052096 0.0 2.596007481650505
-0.2029791924100042 0.0 2.7640506607917392
-0.2152781681659369 0.0 2.9315308426843725
-0.2275002537300504 0.0 3.097963979394774
-0.23963825807528466 0.0 3.2632521477670724
-0.25161835021095663 0.0 3.4263899610118047
-0.2634511607146264 0.0 3.587522180050429
-0.275111533015358 0.0 3.746306237570044
-0.28658104901778203 0.0 3.9024913268348826
-0.297844461021163 0.0 4.055869813669283
-0.30888848992382967 0.0 4.206260871115988
-0.3197009615261441 0.0 4.353498718120527
-0.33027060226870014 0.0 4.497429838014732
-0.34059234164307645 0.0 4.637985183612111
-0.35060852492216227 0.0 4.774379646918704
-0.3603185663381067 0.0 4.9066052512941685
-0.3697063211809233 0.0 5.03444214762108
-0.3787503618628663 0.0 5.157598547675414
-0.38742457841289596 0.0 5.2757189013052095
-0.3956454015115645 0.0 5.3876652109162375
-0.4034618241166773 0.0 5.494104633648046
-0.4107790905870151 0.0 5.59374684318878
-0.4175475874414902 0.0 5.685916232479623
-0.42369867102772646 0.0 5.769678052837932
-0.42914842704203676 0.0 5.843889608878027
-0.4337939797653449 0.0 5.907149999867591
-0.43751651351407866 0.0 5.957841264059949
-0.44016965405125985 0.0 5.993970163618068
-0.4416627103603167 0.0 6.014301721885931
-0.4420243184513291 0.0 6.0192258871219995
-0.44020529413252885 0.0 5.994455489177859
-0.4402050343319032 0.0 5.994451951366507
-0.44202354037991504 0.0 6.019215291805401
-0.4416613986480024 0.0 6.014283859762992
-0.4401678023323166 0.0 5.993944948004054
-0.43751411525789313 0.0 5.957808606024829
-0.43379102829650457 0.0 5.907109808509542
-0.4291448972980557 0.0 5.8438415429109325
-0.4236945661667715 0.0 5.76962215526784
-0.4175429252822501 0.0 5.685852745950904
-0.4107739017389906 0.0 5.593676184523521
-0.4034561488263783 0.0 5.494027350899431
-0.39563927543477345 0.0 5.387581789623634
-0.387418099777875 0.0 5.27563067908303
-0.37874360139827273 0.0 5.157506487664704
-0.36969936202307213 0.0 5.034347381923037
-0.36031148338844754 0.0 4.906508799872457
-0.35060138259539 0.0 4.774282386934565