# vtk DataFile Version 4.0
[MyVLM domain - lattices] 
ASCII
DATASET UNSTRUCTURED_GRID
POINTS 302 float
1.2444999999999997 -1.2445 0.0
1.2399745454545452 -1.2399745454545454 0.0
1.2346178849721705 -1.2346178849721707 0.0
1.2284300185528754 -1.2284300185528756 0.0
1.2214109461966602 -1.2214109461966605 0.0
1.2135606679035247 -1.213560667903525 0.0
1.2048791836734691 -1.2048791836734694 0.0
1.1953664935064932 -1.1953664935064934 0.0
1.1850225974025972 -1.1850225974025974 0.0
1.1738474953617808 -1.173847495361781 0.0
1.1618411873840442 -1.1618411873840444 0.0
1.1490036734693874 -1.1490036734693876 0.0
1.1353349536178106 -1.1353349536178108 0.0
1.1208350278293133 -1.1208350278293135 0.0
1.1055038961038959 -1.105503896103896 0.0
1.0893415584415582 -1.0893415584415584 0.0
1.0723480148423004 -1.0723480148423006 0.0
1.054523265306122 -1.0545232653061223 0.0
1.0358673098330238 -1.035867309833024 0.0
1.0163801484230053 -1.0163801484230055 0.0
0.9960617810760664 -0.9960617810760668 0.0
0.9749122077922076 -0.9749122077922077 0.0
0.9529314285714284 -0.9529314285714284 0.0
0.9301194434137288 -0.930119443413729 0.0
0.9064762523191091 -0.9064762523191096 0.0
0.8820018552875695 -0.8820018552875695 0.0
0.8566962523191093 -0.8566962523191094 0.0
0.8305594434137288 -0.8305594434137291 0.0
0.8035914285714284 -0.8035914285714285 0.0
0.7757922077922076 -0.7757922077922077 0.0
0.7471617810760666 -0.7471617810760667 0.0
0.7177001484230053 -0.7177001484230054 0.0
0.6874073098330239 -0.687407309833024 0.0
0.6562832653061222 -0.6562832653061225 0.0
0.6243280148423004 -0.6243280148423005 0.0
0.5915415584415582 -0.5915415584415583 0.0
0.5579238961038958 -0.5579238961038959 0.0
0.5234750278293133 -0.5234750278293134 0.0
0.48819495361781057 -0.48819495361781057 0.0
0.4520836734693877 -0.4520836734693877 0.0
0.4151411873840445 -0.4151411873840446 0.0
0.37736749536178105 -0.37736749536178116 0.0
0.3387625974025974 -0.3387625974025974 0.0
0.2993264935064933 -0.29932649350649343 0.0
0.25905918367346925 -0.25905918367346925 0.0
0.21796066790352486 -0.21796066790352486 0.0
0.17603094619666027 -0.1760309461966605 0.0
0.13327001855287546 -0.13327001855287568 0.0
0.08967788497217066 -0.08967788497217066 0.0
0.045254545454545436 -0.045254545454545436 0.0
0.0 0.0 0.0
0.04525454545454545 0.04525454545454546 0.0
0.08967788497217066 0.08967788497217068 0.0
0.13327001855287568 0.1332700185528757 0.0
0.17603094619666046 0.1760309461966605 0.0
0.21796066790352497 0.21796066790352508 0.0
0.2590591836734693 0.25905918367346936 0.0
0.29932649350649343 0.2993264935064935 0.0
0.3387625974025973 0.33876259740259734 0.0
0.37736749536178094 0.377367495361781 0.0
0.41514118738404443 0.4151411873840445 0.0
0.45208367346938766 0.4520836734693878 0.0
0.48819495361781057 0.4881949536178107 0.0
0.5234750278293133 0.5234750278293134 0.0
0.5579238961038959 0.557923896103896 0.0
0.5915415584415582 0.5915415584415583 0.0
0.6243280148423003 0.6243280148423004 0.0
0.6562832653061222 0.6562832653061225 0.0
0.687407309833024 0.6874073098330241 0.0
0.7177001484230054 0.7177001484230056 0.0
0.7471617810760667 0.7471617810760669 0.0
0.7757922077922076 0.7757922077922077 0.0
0.8035914285714284 0.8035914285714285 0.0
0.8305594434137288 0.830559443413729 0.0
0.8566962523191093 0.8566962523191094 0.0
0.8820018552875692 0.8820018552875695 0.0
0.9064762523191091 0.9064762523191093 0.0
0.9301194434137288 0.9301194434137292 0.0
0.9529314285714284 0.9529314285714284 0.0
0.9749122077922076 0.9749122077922077 0.0
0.9960617810760666 0.9960617810760668 0.0
1.0163801484230053 1.0163801484230055 0.0
1.0358673098330238 1.035867309833024 0.0
1.054523265306122 1.0545232653061223 0.0
1.0723480148423001 1.0723480148423004 0.0
1.0893415584415582 1.0893415584415584 0.0
1.1055038961038959 1.105503896103896 0.0
1.120835027829313 1.1208350278293133 0.0
1.1353349536178106 1.1353349536178106 0.0
1.1490036734693874 1.1490036734693876 0.0
1.1618411873840444 1.1618411873840446 0.0
1.1738474953617808 1.173847495361781 0.0
1.1850225974025972 1.1850225974025972 0.0
1.1953664935064932 1.1953664935064934 0.0
1.2048791836734691 1.2048791836734694 0.0
1.2135606679035245 1.2135606679035247 0.0
1.22141094619666 1.2214109461966602 0.0
1.2284300185528754 1.2284300185528756 0.0
1.2346178849721703 1.2346178849721705 0.0
1.2399745454545452 1.2399745454545454 0.0
1.2444999999999997 1.2445 0.0
1.7422999999999997 -1.2445 0.0
1.7377745454545452 -1.2399745454545454 0.0
1.7324178849721703 -1.2346178849721707 0.0
1.7262300185528754 -1.2284300185528756 0.0
1.7192109461966603 -1.2214109461966605 0.0
1.7113606679035245 -1.213560667903525 0.0
1.7026791836734692 -1.2048791836734694 0.0
1.6931664935064934 -1.1953664935064934 0.0
1.6828225974025972 -1.1850225974025974 0.0
1.6716474953617806 -1.173847495361781 0.0
1.6596411873840444 -1.1618411873840444 0.0
1.6468036734693878 -1.1490036734693876 0.0
1.6331349536178106 -1.1353349536178108 0.0
1.6186350278293133 -1.1208350278293135 0.0
1.603303896103896 -1.105503896103896 0.0
1.5871415584415582 -1.0893415584415584 0.0
1.5701480148423004 -1.0723480148423006 0.0
1.552323265306122 -1.0545232653061223 0.0
1.5336673098330238 -1.035867309833024 0.0
1.5141801484230053 -1.0163801484230055 0.0
1.4938617810760666 -0.9960617810760668 0.0
1.4727122077922075 -0.9749122077922077 0.0
1.4507314285714283 -0.9529314285714284 0.0
1.4279194434137288 -0.930119443413729 0.0
1.4042762523191092 -0.9064762523191096 0.0
1.3798018552875693 -0.8820018552875695 0.0
1.3544962523191093 -0.8566962523191094 0.0
1.328359443413729 -0.8305594434137291 0.0
1.3013914285714283 -0.8035914285714285 0.0
1.2735922077922077 -0.7757922077922077 0.0
1.2449617810760665 -0.7471617810760667 0.0
1.2155001484230055 -0.7177001484230054 0.0
1.1852073098330238 -0.687407309833024 0.0
1.1540832653061224 -0.6562832653061225 0.0
1.1221280148423003 -0.6243280148423005 0.0
1.0893415584415582 -0.5915415584415583 0.0
1.055723896103896 -0.5579238961038959 0.0
1.0212750278293132 -0.5234750278293134 0.0
0.9859949536178108 -0.48819495361781057 0.0
0.9498836734693876 -0.4520836734693877 0.0
0.9129411873840445 -0.4151411873840446 0.0
0.875167495361781 -0.37736749536178116 0.0
0.8365625974025973 -0.3387625974025974 0.0
0.7971264935064933 -0.29932649350649343 0.0
0.7568591836734693 -0.25905918367346925 0.0
0.7157606679035249 -0.21796066790352486 0.0
0.6738309461966603 -0.1760309461966605 0.0
0.6310700185528755 -0.13327001855287568 0.0
0.5874778849721707 -0.08967788497217066 0.0
0.5430545454545455 -0.045254545454545436 0.0
0.4978 0.0 0.0
0.5430545454545455 0.04525454545454546 0.0
0.5874778849721707 0.08967788497217068 0.0
0.6310700185528757 0.1332700185528757 0.0
0.6738309461966605 0.1760309461966605 0.0
0.715760667903525 0.21796066790352508 0.0
0.7568591836734693 0.25905918367346936 0.0
0.7971264935064934 0.2993264935064935 0.0
0.8365625974025973 0.33876259740259734 0.0
0.875167495361781 0.377367495361781 0.0
0.9129411873840445 0.4151411873840445 0.0
0.9498836734693876 0.4520836734693878 0.0
0.9859949536178105 0.4881949536178107 0.0
1.0212750278293132 0.5234750278293134 0.0
1.055723896103896 0.557923896103896 0.0
1.0893415584415582 0.5915415584415583 0.0
1.1221280148423003 0.6243280148423004 0.0
1.1540832653061224 0.6562832653061225 0.0
1.185207309833024 0.6874073098330241 0.0
1.2155001484230055 0.7177001484230056 0.0
1.2449617810760667 0.7471617810760669 0.0
1.2735922077922077 0.7757922077922077 0.0
1.3013914285714283 0.8035914285714285 0.0
1.3283594434137287 0.830559443413729 0.0
1.3544962523191093 0.8566962523191094 0.0
1.3798018552875693 0.8820018552875695 0.0
1.4042762523191092 0.9064762523191093 0.0
1.427919443413729 0.9301194434137292 0.0
1.4507314285714283 0.9529314285714284 0.0
1.4727122077922075 0.9749122077922077 0.0
1.4938617810760666 0.9960617810760668 0.0
1.5141801484230053 1.0163801484230055 0.0
1.5336673098330238 1.035867309833024 0.0
1.552323265306122 1.0545232653061223 0.0
1.5701480148423002 1.0723480148423004 0.0
1.5871415584415582 1.0893415584415584 0.0
1.603303896103896 1.105503896103896 0.0
1.6186350278293131 1.1208350278293133 0.0
1.6331349536178106 1.1353349536178106 0.0
1.6468036734693874 1.1490036734693876 0.0
1.6596411873840444 1.1618411873840446 0.0
1.6716474953617806 1.173847495361781 0.0
1.6828225974025972 1.1850225974025972 0.0
1.6931664935064934 1.1953664935064934 0.0
1.7026791836734692 1.2048791836734694 0.0
1.7113606679035245 1.2135606679035247 0.0
1.71921094619666 1.2214109461966602 0.0
1.7262300185528754 1.2284300185528756 0.0
1.7324178849721703 1.2346178849721705 0.0
1.7377745454545452 1.2399745454545454 0.0
1.7422999999999997 1.2445 0.0
1.6155872727272724 -1.2422372727272726 0.0
1.6106462152133578 -1.237296215213358 0.0
1.604873951762523 -1.2315239517625232 0.0
1.598270482374768 -1.224920482374768 0.0
1.5908358070500925 -1.2174858070500927 0.0
1.582569925788497 -1.2092199257884972 0.0
1.5734728385899812 -1.2001228385899814 0.0
1.5635445454545454 -1.1901945454545453 0.0
1.552785046382189 -1.1794350463821892 0.0
1.5411943413729126 -1.1678443413729127 0.0
1.5287724304267158 -1.155422430426716 0.0
1.5155193135435991 -1.142169313543599 0.0
1.501434990723562 -1.1280849907235622 0.0
1.4865194619666047 -1.1131694619666048 0.0
1.4707727272727271 -1.0974227272727273 0.0
1.4541947866419294 -1.0808447866419293 0.0
1.4367856400742112 -1.0634356400742113 0.0
1.418545287569573 -1.0451952875695731 0.0
1.3994737291280146 -1.0261237291280147 0.0
1.379570964749536 -1.0062209647495362 0.0
1.358836994434137 -0.9854869944341371 0.0
1.337271818181818 -0.9639218181818181 0.0
1.3148754359925787 -0.9415254359925787 0.0
1.291647847866419 -0.9182978478664192 0.0
1.2675890538033394 -0.8942390538033393 0.0
1.2426990538033393 -0.8693490538033395 0.0
1.2169778478664193 -0.8436278478664192 0.0
1.1904254359925788 -0.8170754359925788 0.0
1.163041818181818 -0.7896918181818181 0.0
1.1348269944341371 -0.7614769944341371 0.0
1.105780964749536 -0.7324309647495362 0.0
1.0759037291280147 -0.7025537291280148 0.0
1.0451952875695731 -0.6718452875695733 0.0
1.0136556400742114 -0.6403056400742114 0.0
0.9812847866419293 -0.6079347866419293 0.0
0.9480827272727271 -0.5747327272727272 0.0
0.9140494619666047 -0.5406994619666048 0.0
0.8791849907235622 -0.5058349907235622 0.0
0.8434893135435992 -0.47013931354359917 0.0
0.8069624304267162 -0.43361243042671627 0.0
0.7696043413729128 -0.3962543413729128 0.0
0.7314150463821893 -0.3580650463821894 0.0
0.6923945454545455 -0.3190445454545454 0.0
0.6525428385899814 -0.27919283858998134 0.0
0.6118599257884971 -0.23850992578849706 0.0
0.5703458070500929 -0.19699580705009279 0.0
0.5280004823747682 -0.15465048237476808 0.0
0.4848239517625232 -0.11147395176252317 0.0
0.4408162152133581 -0.06746621521335805 0.0
0.39597727272727273 -0.022627272727272718 0.0
0.39597727272727273 0.02262727272727273 0.0
0.4408162152133581 0.06746621521335806 0.0
0.4848239517625232 0.11147395176252319 0.0
0.528000482374768 0.15465048237476808 0.0
0.5703458070500929 0.19699580705009276 0.0
0.6118599257884971 0.23850992578849717 0.0
0.6525428385899814 0.2791928385899814 0.0
0.6923945454545455 0.3190445454545454 0.0
0.7314150463821891 0.3580650463821891 0.0
0.7696043413729128 0.39625434137291277 0.0
0.8069624304267162 0.43361243042671616 0.0
0.8434893135435992 0.4701393135435992 0.0
0.8791849907235619 0.5058349907235621 0.0
0.9140494619666046 0.5406994619666047 0.0
0.9480827272727271 0.5747327272727272 0.0
0.9812847866419294 0.6079347866419295 0.0
1.0136556400742114 0.6403056400742114 0.0
1.0451952875695731 0.6718452875695732 0.0
1.0759037291280147 0.7025537291280147 0.0
1.105780964749536 0.7324309647495362 0.0
1.1348269944341371 0.7614769944341373 0.0
1.163041818181818 0.789691818181818 0.0
1.1904254359925786 0.8170754359925786 0.0
1.216977847866419 0.843627847866419 0.0
1.2426990538033393 0.8693490538033394 0.0
1.2675890538033392 0.8942390538033393 0.0
1.291647847866419 0.9182978478664192 0.0
1.3148754359925787 0.9415254359925787 0.0
1.3372718181818182 0.9639218181818181 0.0
1.3588369944341372 0.9854869944341373 0.0
1.379570964749536 1.0062209647495362 0.0
1.3994737291280148 1.0261237291280147 0.0
1.418545287569573 1.0451952875695731 0.0
1.4367856400742112 1.0634356400742113 0.0
1.4541947866419291 1.0808447866419293 0.0
1.470772727272727 1.097422727272727 0.0
1.4865194619666047 1.1131694619666048 0.0
1.501434990723562 1.128084990723562 0.0
1.5155193135435991 1.1421693135435993 0.0
1.528772430426716 1.1554224304267162 0.0
1.5411943413729128 1.1678443413729127 0.0
1.5527850463821888 1.179435046382189 0.0
1.5635445454545451 1.1901945454545453 0.0
1.573472838589981 1.2001228385899811 0.0
1.5825699257884969 1.209219925788497 0.0
1.5908358070500925 1.2174858070500927 0.0
1.5982704823747678 1.224920482374768 0.0
1.604873951762523 1.2315239517625232 0.0
1.6106462152133578 1.237296215213358 0.0
1.6155872727272724 1.2422372727272726 0.0

CELLS 200 700
4 0 101 102 1
4 1 102 103 2
4 2 103 104 3
4 3 104 105 4
4 4 105 106 5
4 5 106 107 6
4 6 107 108 7
4 7 108 109 8
4 8 109 110 9
4 9 110 111 10
4 10 111 112 11
4 11 112 113 12
4 12 113 114 13
4 13 114 115 14
4 14 115 116 15
4 15 116 117 16
4 16 117 118 17
4 17 118 119 18
4 18 119 120 19
4 19 120 121 20
4 20 121 122 21
4 21 122 123 22
4 22 123 124 23
4 23 124 125 24
4 24 125 126 25
4 25 126 127 26
4 26 127 128 27
4 27 128 129 28
4 28 129 130 29
4 29 130 131 30
4 30 131 132 31
4 31 132 133 32
4 32 133 134 33
4 33 134 135 34
4 34 135 136 35
4 35 136 137 36
4 36 137 138 37
4 37 138 139 38
4 38 139 140 39
4 39 140 141 40
4 40 141 142 41
4 41 142 143 42
4 42 143 144 43
4 43 144 145 44
4 44 145 146 45
4 45 146 147 46
4 46 147 148 47
4 47 148 149 48
4 48 149 150 49
4 49 150 151 50
4 50 151 152 51
4 51 152 153 52
4 52 153 154 53
4 53 154 155 54
4 54 155 156 55
4 55 156 157 56
4 56 157 158 57
4 57 158 159 58
4 58 159 160 59
4 59 160 161 60
4 60 161 162 61
4 61 162 163 62
4 62 163 164 63
4 63 164 165 64
4 64 165 166 65
4 65 166 167 66
4 66 167 168 67
4 67 168 169 68
4 68 169 170 69
4 69 170 171 70
4 70 171 172 71
4 71 172 173 72
4 72 173 174 73
4 73 174 175 74
4 74 175 176 75
4 75 176 177 76
4 76 177 178 77
4 77 178 179 78
4 78 179 180 79
4 79 180 181 80
4 80 181 182 81
4 81 182 183 82
4 82 183 184 83
4 83 184 185 84
4 84 185 186 85
4 85 186 187 86
4 86 187 188 87
4 87 188 189 88
4 88 189 190 89
4 89 190 191 90
4 90 191 192 91
4 91 192 193 92
4 92 193 194 93
4 93 194 195 94
4 94 195 196 95
4 95 196 197 96
4 96 197 198 97
4 97 198 199 98
4 98 199 200 99
4 99 200 201 100
1 202
1 203
1 204
1 205
1 206
1 207
1 208
1 209
1 210
1 211
1 212
1 213
1 214
1 215
1 216
1 217
1 218
1 219
1 220
1 221
1 222
1 223
1 224
1 225
1 226
1 227
1 228
1 229
1 230
1 231
1 232
1 233
1 234
1 235
1 236
1 237
1 238
1 239
1 240
1 241
1 242
1 243
1 244
1 245
1 246
1 247
1 248
1 249
1 250
1 251
1 252
1 253
1 254
1 255
1 256
1 257
1 258
1 259
1 260
1 261
1 262
1 263
1 264
1 265
1 266
1 267
1 268
1 269
1 270
1 271
1 272
1 273
1 274
1 275
1 276
1 277
1 278
1 279
1 280
1 281
1 282
1 283
1 284
1 285
1 286
1 287
1 288
1 289
1 290
1 291
1 292
1 293
1 294
1 295
1 296
1 297
1 298
1 299
1 300
1 301

CELL_TYPES 200
9
9
9
9
9
9
9
9
9
9
9
9
9
9
9
9
9
9
9
9
9
9
9
9
9
9
9
9
9
9
9
9
9
9
9
9
9
9
9
9
9
9
9
9
9
9
9
9
9
9
9
9
9
9
9
9
9
9
9
9
9
9
9
9
9
9
9
9
9
9
9
9
9
9
9
9
9
9
9
9
9
9
9
9
9
9
9
9
9
9
9
9
9
9
9
9
9
9
9
9
1
1
1
1
1
1
1
1
1
1
1
1
1
1
1
1
1
1
1
1
1
1
1
1
1
1
1
1
1
1
1
1
1
1
1
1
1
1
1
1
1
1
1
1
1
1
1
1
1
1
1
1
1
1
1
1
1
1
1
1
1
1
1
1
1
1
1
1
1
1
1
1
1
1
1
1
1
1
1
1
1
1
1
1
1
1
1
1
1
1
1
1
1
1
1
1
1
1
1
1

CELL_DATA 200

VECTORS Vinf float
49.5313698041565 0.03927613627638344 4.297006349159549
49.533798172820006 0.039872085695705044 4.262713941317221
49.53652050646182 0.04041078556668372 4.223972890273278
49.53947937866872 0.040835595883086113 4.181469758737536
49.54261082150369 0.04109483066706852 4.135980552395832
49.54584792625339 0.04114637795178745 4.088328747597126
49.54912513838138 0.04096121019550967 4.039334502015147
49.55238242271664 0.04052498037492456 3.9897653626512675
49.555568432288354 0.039837334554478944 3.940299080087792
49.55864208932355 0.038909227805851244 3.8915053610135186
49.561572492930786 0.03775913679846187 3.8438468794219323
49.56433758387785 0.036409323459376045 3.797693672132537
49.56613974271997 0.035269906758557464 3.7580078374275665
49.56847766456913 0.03366525191476838 3.716130469135623
49.570675009107156 0.03134541359453633 3.6756109826150474
49.57276500546038 0.030074720336986483 3.638188233585924
49.574419524411084 0.02883764550605777 3.6052856623184746
49.575880449013326 0.027553201189537083 3.5750920943590456
49.57716215208342 0.0262409174512202 3.5475823521972134
49.57828106743585 0.02491675584526635 3.5226952492701904
49.5792533218411 0.023592155468570342 3.500341679177435
49.580092471168925 0.02227449774110608 3.480411575515692
49.58080846518467 0.020969145793645935 3.462778499106016
49.58115988251036 0.019803349707353625 3.4504954470166087
49.58190024065272 0.018422020422012887 3.43383548844798
49.58229358331909 0.01719866694051516 3.4222282303112967
49.58260239823932 0.01602002075228931 3.4123463429911767
49.582841375606215 0.014888079122051865 3.4040843246137817
49.58302195715481 0.013798013722438806 3.3973733352630373
49.5831501480949 0.012741326038752913 3.392175690306955
49.58308342485741 0.011015820901667427 3.388882207561058
49.583257670852525 0.010700474477037852 3.386237213287716
49.583243134016456 0.009708480202526522 3.3854447832484493
49.58319077467861 0.00872959236434873 3.3860337585356652
49.583105112457275 0.0077546812404569315 3.387915239949346
49.58298213151929 0.0067704864365118545 3.3910017472010985
49.582739392942685 0.005575333839769072 3.39557347647089
49.5829254684505 0.006464993326413104 3.4029090229469268
49.58261657703447 0.004920159209409147 3.4082064190817962
49.58217167259429 0.0035918150520303314 3.4156891431589442
49.58156908459935 0.002497674089429066 3.425889299766081
49.58032977674799 0.0005418433801568582 3.4408955350208092
49.5794141045243 -0.0003675439507567477 3.4570976200414893
49.578186373629556 -0.0013005422071777515 3.477988743843518
49.57668977245124 -0.002084954590251294 3.5033928402245347
49.57496065476283 -0.0025939477807635537 3.532259969445883
49.57315448551323 -0.002565350593132678 3.5608317472143294
49.57223509663863 -0.0017435972059429475 3.5795003625339685
49.57165270088507 -0.0008716082082825668 3.5847023350919334
49.571793176763514 -0.00010942166834357541 3.57868592984441
49.571693854124426 0.0002236957659102155 3.578259955777998
49.571418324373916 0.0010292347860288485 3.584866253236789
49.57183306786049 0.002033598020622109 3.580463289915423
49.57307313893748 0.0026069814710409193 3.5617666242552732
49.57488219811877 0.0026794427988511087 3.5332987483311893
49.5766390623304 0.002198220344611026 3.5043525847253347
49.578164538782254 0.0014259286402211247 3.4787568582914212
49.57941317278695 0.0005078895307808267 3.457614809362554
49.580357753758506 -0.000383858062812257 3.4411583661395473
49.581646173739514 -0.0023321815026162446 3.425923122268701
49.58229638986926 -0.0034520756089263887 3.41556378272198
49.58276307093503 -0.004822675354195116 3.4079971368360074
49.583065847963596 -0.006404955937575004 3.4026714326166214
49.58285771167177 -0.005545074330829553 3.395366124004961
49.58307979317258 -0.006747084813749235 3.3908004507522254
49.58318571033203 -0.007736365776131682 3.387724415810342
49.58325863283001 -0.008712636558558298 3.3858506611070474
49.58330179091277 -0.009690940709019021 3.385266924999536
49.583309796070914 -0.010681338460826768 3.3860626849888127
49.58313332934 -0.011002914933694343 3.3886844085217924
49.58319471167609 -0.012717613021068002 3.392004184678815
49.58306471874829 -0.013771707768694456 3.397202131428826
49.582883365695146 -0.014859159864216119 3.403912538412563
49.58264450279361 -0.015988613011867076 3.412172740336544
49.58233653140278 -0.01716502529737149 3.4220512723126295
49.581944583779 -0.01838648143351207 3.4336535888900497
49.58120644451379 -0.01963292195883254 3.449981988643502
49.580649852147594 -0.02140641177013337 3.465312541929376
49.58014273522829 -0.02223561878460362 3.480208623944688
49.579305690941226 -0.023552975694512503 3.500131072819661
49.578335398756714 -0.024877587566013954 3.5224771195986757
49.57721823009896 -0.02620193141165617 3.5473568538521514
49.57593806157273 -0.027514419956579748 3.574859315711054
49.57447853234736 -0.028798989734978027 3.605045615015596
49.572825375641685 -0.03003608235002061 3.637940882274692
49.5707310473592 -0.031244077759000854 3.6755086615332933
49.568538363131516 -0.03355913133869627 3.7159190335861294
49.56620525527168 -0.03516162150000168 3.757691804499174
49.56440330440687 -0.03640589059979956 3.797620216218244
49.56164120173105 -0.037763093811529105 3.843758202002108
49.55871401136109 -0.03892024303416499 3.891392759177605
49.555643646835236 -0.039855078257070034 3.9401560205719752
49.552460886894366 -0.040549097760475605 3.989587417674822
49.54920671560801 -0.04099130868878052 4.039119194364213
49.54593241369911 -0.041182025431111886 4.088075326101119
49.542697973320095 -0.041135560514495156 4.135689724611449
49.53956892397108 -0.04088091520327186 4.181143407753125
49.53661216238405 -0.040460184013083454 4.223613798868673
49.53389165350791 -0.03992504340492962 4.2623255412098375
49.53146482661107 -0.03933213019988748 4.296592507141806
49.5313698041565 0.03927613627638344 4.297006349159549
49.533798172820006 0.039872085695705044 4.262713941317221
49.53652050646182 0.04041078556668372 4.223972890273278
49.53947937866872 0.040835595883086113 4.181469758737536
49.54261082150369 0.04109483066706852 4.135980552395832
49.54584792625339 0.04114637795178745 4.088328747597126
49.54912513838138 0.04096121019550967 4.039334502015147
49.55238242271664 0.04052498037492456 3.9897653626512675
49.555568432288354 0.039837334554478944 3.940299080087792
49.55864208932355 0.038909227805851244 3.8915053610135186
49.561572492930786 0.03775913679846187 3.8438468794219323
49.56433758387785 0.036409323459376045 3.797693672132537
49.56613974271997 0.035269906758557464 3.7580078374275665
49.56847766456913 0.03366525191476838 3.716130469135623
49.570675009107156 0.03134541359453633 3.6756109826150474
49.57276500546038 0.030074720336986483 3.638188233585924
49.574419524411084 0.02883764550605777 3.6052856623184746
49.575880449013326 0.027553201189537083 3.5750920943590456
49.57716215208342 0.0262409174512202 3.5475823521972134
49.57828106743585 0.02491675584526635 3.5226952492701904
49.5792533218411 0.023592155468570342 3.500341679177435
49.580092471168925 0.02227449774110608 3.480411575515692
49.58080846518467 0.020969145793645935 3.462778499106016
49.58115988251036 0.019803349707353625 3.4504954470166087
49.58190024065272 0.018422020422012887 3.43383548844798
49.58229358331909 0.01719866694051516 3.4222282303112967
49.58260239823932 0.01602002075228931 3.4123463429911767
49.582841375606215 0.014888079122051865 3.4040843246137817
49.58302195715481 0.013798013722438806 3.3973733352630373
49.5831501480949 0.012741326038752913 3.392175690306955
49.58308342485741 0.011015820901667427 3.388882207561058
49.583257670852525 0.010700474477037852 3.386237213287716
49.583243134016456 0.009708480202526522 3.3854447832484493
49.58319077467861 0.00872959236434873 3.3860337585356652
49.583105112457275 0.0077546812404569315 3.387915239949346
49.58298213151929 0.0067704864365118545 3.3910017472010985
49.582739392942685 0.005575333839769072 3.39557347647089
49.5829254684505 0.006464993326413104 3.4029090229469268
49.58261657703447 0.004920159209409147 3.4082064190817962
49.58217167259429 0.0035918150520303314 3.4156891431589442
49.58156908459935 0.002497674089429066 3.425889299766081
49.58032977674799 0.0005418433801568582 3.4408955350208092
49.5794141045243 -0.0003675439507567477 3.4570976200414893
49.578186373629556 -0.0013005422071777515 3.477988743843518
49.57668977245124 -0.002084954590251294 3.5033928402245347
49.57496065476283 -0.0025939477807635537 3.532259969445883
49.57315448551323 -0.002565350593132678 3.5608317472143294
49.57223509663863 -0.0017435972059429475 3.5795003625339685
49.57165270088507 -0.0008716082082825668 3.5847023350919334
49.571793176763514 -0.00010942166834357541 3.57868592984441
49.571693854124426 0.0002236957659102155 3.578259955777998
49.571418324373916 0.0010292347860288485 3.584866253236789
49.57183306786049 0.002033598020622109 3.580463289915423
49.57307313893748 0.0026069814710409193 3.5617666242552732
49.57488219811877 0.0026794427988511087 3.5332987483311893
49.5766390623304 0.002198220344611026 3.5043525847253347
49.578164538782254 0.0014259286402211247 3.4787568582914212
49.57941317278695 0.0005078895307808267 3.457614809362554
49.580357753758506 -0.000383858062812257 3.4411583661395473
49.581646173739514 -0.0023321815026162446 3.425923122268701
49.58229638986926 -0.0034520756089263887 3.41556378272198
49.58276307093503 -0.004822675354195116 3.4079971368360074
49.583065847963596 -0.006404955937575004 3.4026714326166214
49.58285771167177 -0.005545074330829553 3.395366124004961
49.58307979317258 -0.006747084813749235 3.3908004507522254
49.58318571033203 -0.007736365776131682 3.387724415810342
49.58325863283001 -0.008712636558558298 3.3858506611070474
49.58330179091277 -0.009690940709019021 3.385266924999536
49.583309796070914 -0.010681338460826768 3.3860626849888127
49.58313332934 -0.011002914933694343 3.3886844085217924
49.58319471167609 -0.012717613021068002 3.392004184678815
49.58306471874829 -0.013771707768694456 3.397202131428826
49.582883365695146 -0.014859159864216119 3.403912538412563
49.58264450279361 -0.015988613011867076 3.412172740336544
49.58233653140278 -0.01716502529737149 3.4220512723126295
49.581944583779 -0.01838648143351207 3.4336535888900497
49.58120644451379 -0.01963292195883254 3.449981988643502
49.580649852147594 -0.02140641177013337 3.465312541929376
49.58014273522829 -0.02223561878460362 3.480208623944688
49.579305690941226 -0.023552975694512503 3.500131072819661
49.578335398756714 -0.024877587566013954 3.5224771195986757
49.57721823009896 -0.02620193141165617 3.5473568538521514
49.57593806157273 -0.027514419956579748 3.574859315711054
49.57447853234736 -0.028798989734978027 3.605045615015596
49.572825375641685 -0.03003608235002061 3.637940882274692
49.5707310473592 -0.031244077759000854 3.6755086615332933
49.568538363131516 -0.03355913133869627 3.7159190335861294
49.56620525527168 -0.03516162150000168 3.757691804499174
49.56440330440687 -0.03640589059979956 3.797620216218244
49.56164120173105 -0.037763093811529105 3.843758202002108
49.55871401136109 -0.03892024303416499 3.891392759177605
49.555643646835236 -0.039855078257070034 3.9401560205719752
49.552460886894366 -0.040549097760475605 3.989587417674822
49.54920671560801 -0.04099130868878052 4.039119194364213
49.54593241369911 -0.041182025431111886 4.088075326101119
49.542697973320095 -0.041135560514495156 4.135689724611449
49.53956892397108 -0.04088091520327186 4.181143407753125
49.53661216238405 -0.040460184013083454 4.223613798868673
49.53389165350791 -0.03992504340492962 4.2623255412098375
49.53146482661107 -0.03933213019988748 4.296592507141806

VECTORS L float
-0.006638604121970073 0.0 0.09040058683947036
-0.011977844508604339 0.0 0.1631072063879035
-0.017698949686795796 0.0 0.24101383494664314
-0.023994107986903702 0.0 0.3267375795955762
-0.030905371950914872 0.0 0.4208510869941291
-0.038434407169014306 0.0 0.523377038164907
-0.04656624293797285 0.0 0.6341115709205509
-0.05527667219007782 0.0 0.7527250477218005
-0.0645350885631921 0.0 0.8788006892205608
-0.07430577570411707 0.0 1.011852131230988
-0.08454867064775574 0.0 1.1513338199756984
-0.09521718622940617 0.0 1.296611358983556
-0.10627105038458443 0.0 1.4471363470853247
-0.1176535454829113 0.0 1.6021364371164177
-0.12931151555828105 0.0 1.760887782551015
-0.14119536471790198 0.0 1.9227150158373196
-0.15325682345233743 0.0 2.0869608313280383
-0.16544523024201457 0.0 2.252935350395763
-0.17771324151210072 0.0 2.4199938762233137
-0.1900170861497185 0.0 2.5875403596687283
-0.20231674383428114 0.0 2.7550298276623546
-0.2145760951167663 0.0 2.921970426897694
-0.2267631660388444 0.0 3.0879267549100886
-0.23885212842644052 0.0 3.2525470988920797
-0.2507999827746854 0.0 3.4152459170034577
-0.26260118816697237 0.0 3.575947756317122
-0.2742316539679259 0.0 3.734324564800556
-0.28567373365016624 0.0 3.8901360424748033
-0.29691171198373895 0.0 4.043168188627652
-0.3079313361142231 0.0 4.19322691631249
-0.31874061287730604 0.0 4.340421257884851
-0.3292754018932002 0.0 4.483877787566308
-0.33955029976169154 0.0 4.623795273224663
-0.34954839433065504 0.0 4.7599434151690865
-0.3592507203143992 0.0 4.892063955349456
-0.3686355609956701 0.0 5.019861168347006
-0.37767908299918784 0.0 5.143010505345136
-0.38635318343151326 0.0 5.261129277752674
-0.39460358627212105 0.0 5.37347838680478
-0.4024084612031879 0.0 5.479760560137286
-0.40969455150376016 0.0 5.578978231026454
-0.4164733584014167 0.0 5.671288016391053
-0.4226192986141971 0.0 5.7549797973299
-0.4280687202216788 0.0 5.8291867996154725
-0.43271765366519577 0.0 5.892493227254488
-0.43644078811596926 0.0 5.943192671452147
-0.43910321889139603 0.0 5.9794480799832135
-0.4406008839217835 0.0 5.999842397093932
-0.44097879836298404 0.0 6.004988612568142
-0.43918451407913084 0.0 5.980555109796022
-0.43917964214261185 0.0 5.980488766644318
-0.44098994984845535 0.0 6.0051404669056225
-0.44062921237192476 0.0 6.0002281571829466
-0.439139493295695 0.0 5.9799420433790775
-0.4364812527877611 0.0 5.943743695433851
-0.43275717911638484 0.0 5.893031461485199
-0.4281030566903623 0.0 5.8296543733496415
-0.4226455538425543 0.0 5.755337325510145
-0.41649016637378905 0.0 5.671516897423591
-0.4097088207648211 0.0 5.57917254138899
-0.4024162418896788 0.0 5.479866512926738
-0.3946063393317901 0.0 5.373515876344013
-0.3863523283508199 0.0 5.261117633769231
-0.3776758046274235 0.0 5.142965862416302
-0.3686305230739561 0.0 5.019792564907032
-0.35924445693784396 0.0 4.891978664389822
-0.3495412910955002 0.0 4.759846687511486