# vtk DataFile Version 4.0
[MyVLM domain - lattices] 
ASCII
DATASET UNSTRUCTURED_GRID
POINTS 302 float
1.2444999999999997 -1.2445 0.0
1.2399745454545452 -1.2399745454545454 0.0
1.2346178849721705 -1.2346178849721707 0.0
1.2284300185528754 -1.2284300185528756 0.0
1.2214109461966602 -1.2214109461966605 0.0
1.2135606679035247 -1.213560667903525 0.0
1.2048791836734691 -1.2048791836734694 0.0
1.1953664935064932 -1.1953664935064934 0.0
1.1850225974025972 -1.1850225974025974 0.0
1.1738474953617808 -1.173847495361781 0.0
1.1618411873840442 -1.1618411873840444 0.0
1.1490036734693874 -1.1490036734693876 0.0
1.1353349536178106 -1.1353349536178108 0.0
1.1208350278293133 -1.1208350278293135 0.0
1.1055038961038959 -1.105503896103896 0.0
1.0893415584415582 -1.0893415584415584 0.0
1.0723480148423004 -1.0723480148423006 0.0
1.054523265306122 -1.0545232653061223 0.0
1.0358673098330238 -1.035867309833024 0.0
1.0163801484230053 -1.0163801484230055 0.0
0.9960617810760664 -0.9960617810760668 0.0
0.9749122077922076 -0.9749122077922077 0.0
0.9529314285714284 -0.9529314285714284 0.0
0.9301194434137288 -0.930119443413729 0.0
0.9064762523191091 -0.9064762523191096 0.0
0.8820018552875695 -0.8820018552875695 0.0
0.8566962523191093 -0.8566962523191094 0.0
0.8305594434137288 -0.8305594434137291 0.0
0.8035914285714284 -0.8035914285714285 0.0
0.7757922077922076 -0.7757922077922077 0.0
0.7471617810760666 -0.7471617810760667 0.0
0.7177001484230053 -0.7177001484230054 0.0
0.6874073098330239 -0.687407309833024 0.0
0.6562832653061222 -0.6562832653061225 0.0
0.6243280148423004 -0.6243280148423005 0.0
0.5915415584415582 -0.5915415584415583 0.0
0.5579238961038958 -0.5579238961038959 0.0
0.5234750278293133 -0.5234750278293134 0.0
0.48819495361781057 -0.48819495361781057 0.0
0.4520836734693877 -0.4520836734693877 0.0
0.4151411873840445 -0.4151411873840446 0.0
0.37736749536178105 -0.37736749536178116 0.0
0.3387625974025974 -0.3387625974025974 0.0
0.2993264935064933 -0.29932649350649343 0.0
0.25905918367346925 -0.25905918367346925 0.0
0.21796066790352486 -0.21796066790352486 0.0
0.17603094619666027 -0.1760309461966605 0.0
0.13327001855287546 -0.13327001855287568 0.0
0.08967788497217066 -0.08967788497217066 0.0
0.045254545454545436 -0.045254545454545436 0.0
0.0 0.0 0.0
0.04525454545454545 0.04525454545454546 0.0
0.08967788497217066 0.08967788497217068 0.0
0.13327001855287568 0.1332700185528757 0.0
0.17603094619666046 0.1760309461966605 0.0
0.21796066790352497 0.21796066790352508 0.0
0.2590591836734693 0.25905918367346936 0.0
0.29932649350649343 0.2993264935064935 0.0
0.3387625974025973 0.33876259740259734 0.0
0.37736749536178094 0.377367495361781 0.0
0.41514118738404443 0.4151411873840445 0.0
0.45208367346938766 0.4520836734693878 0.0
0.48819495361781057 0.4881949536178107 0.0
0.5234750278293133 0.5234750278293134 0.0
0.5579238961038959 0.557923896103896 0.0
0.5915415584415582 0.5915415584415583 0.0
0.6243280148423003 0.6243280148423004 0.0
0.6562832653061222 0.6562832653061225 0.0
0.687407309833024 0.6874073098330241 0.0
0.7177001484230054 0.7177001484230056 0.0
0.7471617810760667 0.7471617810760669 0.0
0.7757922077922076 0.7757922077922077 0.0
0.8035914285714284 0.8035914285714285 0.0
0.8305594434137288 0.830559443413729 0.0
0.8566962523191093 0.8566962523191094 0.0
0.8820018552875692 0.8820018552875695 0.0
0.9064762523191091 0.9064762523191093 0.0
0.9301194434137288 0.9301194434137292 0.0
0.9529314285714284 0.9529314285714284 0.0
0.9749122077922076 0.9749122077922077 0.0
0.9960617810760666 0.9960617810760668 0.0
1.0163801484230053 1.0163801484230055 0.0
1.0358673098330238 1.035867309833024 0.0
1.054523265306122 1.0545232653061223 0.0
1.0723480148423001 1.0723480148423004 0.0
1.0893415584415582 1.0893415584415584 0.0
1.1055038961038959 1.105503896103896 0.0
1.120835027829313 1.1208350278293133 0.0
1.1353349536178106 1.1353349536178106 0.0
1.1490036734693874 1.1490036734693876 0.0
1.1618411873840444 1.1618411873840446 0.0
1.1738474953617808 1.173847495361781 0.0
1.1850225974025972 1.1850225974025972 0.0
1.1953664935064932 1.1953664935064934 0.0
1.2048791836734691 1.2048791836734694 0.0
1.2135606679035245 1.2135606679035247 0.0
1.22141094619666 1.2214109461966602 0.0
1.2284300185528754 1.2284300185528756 0.0
1.2346178849721703 1.2346178849721705 0.0
1.2399745454545452 1.2399745454545454 0.0
1.2444999999999997 1.2445 0.0
1.7422999999999997 -1.2445 0.0
1.7377745454545452 -1.2399745454545454 0.0
1.7324178849721703 -1.2346178849721707 0.0
1.7262300185528754 -1.2284300185528756 0.0
1.7192109461966603 -1.2214109461966605 0.0
1.7113606679035245 -1.213560667903525 0.0
1.7026791836734692 -1.2048791836734694 0.0
1.6931664935064934 -1.1953664935064934 0.0
1.6828225974025972 -1.1850225974025974 0.0
1.6716474953617806 -1.173847495361781 0.0
1.6596411873840444 -1.1618411873840444 0.0
1.6468036734693878 -1.1490036734693876 0.0
1.6331349536178106 -1.1353349536178108 0.0
1.6186350278293133 -1.1208350278293135 0.0
1.603303896103896 -1.105503896103896 0.0
1.5871415584415582 -1.0893415584415584 0.0
1.5701480148423004 -1.0723480148423006 0.0
1.552323265306122 -1.0545232653061223 0.0
1.5336673098330238 -1.035867309833024 0.0
1.5141801484230053 -1.0163801484230055 0.0
1.4938617810760666 -0.9960617810760668 0.0
1.4727122077922075 -0.9749122077922077 0.0
1.4507314285714283 -0.9529314285714284 0.0
1.4279194434137288 -0.930119443413729 0.0
1.4042762523191092 -0.9064762523191096 0.0
1.3798018552875693 -0.8820018552875695 0.0
1.3544962523191093 -0.8566962523191094 0.0
1.328359443413729 -0.8305594434137291 0.0
1.3013914285714283 -0.8035914285714285 0.0
1.2735922077922077 -0.7757922077922077 0.0
1.2449617810760665 -0.7471617810760667 0.0
1.2155001484230055 -0.7177001484230054 0.0
1.1852073098330238 -0.687407309833024 0.0
1.1540832653061224 -0.6562832653061225 0.0
1.1221280148423003 -0.6243280148423005 0.0
1.0893415584415582 -0.5915415584415583 0.0
1.055723896103896 -0.5579238961038959 0.0
1.0212750278293132 -0.5234750278293134 0.0
0.9859949536178108 -0.48819495361781057 0.0
0.9498836734693876 -0.4520836734693877 0.0
0.9129411873840445 -0.4151411873840446 0.0
0.875167495361781 -0.37736749536178116 0.0
0.8365625974025973 -0.3387625974025974 0.0
0.7971264935064933 -0.29932649350649343 0.0
0.7568591836734693 -0.25905918367346925 0.0
0.7157606679035249 -0.21796066790352486 0.0
0.6738309461966603 -0.1760309461966605 0.0
0.6310700185528755 -0.13327001855287568 0.0
0.5874778849721707 -0.08967788497217066 0.0
0.5430545454545455 -0.045254545454545436 0.0
0.4978 0.0 0.0
0.5430545454545455 0.04525454545454546 0.0
0.5874778849721707 0.08967788497217068 0.0
0.6310700185528757 0.1332700185528757 0.0
0.6738309461966605 0.1760309461966605 0.0
0.715760667903525 0.21796066790352508 0.0
0.7568591836734693 0.25905918367346936 0.0
0.7971264935064934 0.2993264935064935 0.0
0.8365625974025973 0.33876259740259734 0.0
0.875167495361781 0.377367495361781 0.0
0.9129411873840445 0.4151411873840445 0.0
0.9498836734693876 0.4520836734693878 0.0
0.9859949536178105 0.4881949536178107 0.0
1.0212750278293132 0.5234750278293134 0.0
1.055723896103896 0.557923896103896 0.0
1.0893415584415582 0.5915415584415583 0.0
1.1221280148423003 0.6243280148423004 0.0
1.1540832653061224 0.6562832653061225 0.0
1.185207309833024 0.6874073098330241 0.0
1.2155001484230055 0.7177001484230056 0.0
1.2449617810760667 0.7471617810760669 0.0
1.2735922077922077 0.7757922077922077 0.0
1.3013914285714283 0.8035914285714285 0.0
1.3283594434137287 0.830559443413729 0.0
1.3544962523191093 0.8566962523191094 0.0
1.3798018552875693 0.8820018552875695 0.0
1.4042762523191092 0.9064762523191093 0.0
1.427919443413729 0.9301194434137292 0.0
1.4507314285714283 0.9529314285714284 0.0
1.4727122077922075 0.9749122077922077 0.0
1.4938617810760666 0.9960617810760668 0.0
1.5141801484230053 1.0163801484230055 0.0
1.5336673098330238 1.035867309833024 0.0
1.552323265306122 1.0545232653061223 0.0
1.5701480148423002 1.0723480148423004 0.0
1.5871415584415582 1.0893415584415584 0.0
1.603303896103896 1.105503896103896 0.0
1.6186350278293131 1.1208350278293133 0.0
1.6331349536178106 1.1353349536178106 0.0
1.6468036734693874 1.1490036734693876 0.0
1.6596411873840444 1.1618411873840446 0.0
1.6716474953617806 1.173847495361781 0.0
1.6828225974025972 1.1850225974025972 0.0
1.6931664935064934 1.1953664935064934 0.0
1.7026791836734692 1.2048791836734694 0.0
1.7113606679035245 1.2135606679035247 0.0
1.71921094619666 1.2214109461966602 0.0
1.7262300185528754 1.2284300185528756 0.0
1.7324178849721703 1.2346178849721705 0.0
1.7377745454545452 1.2399745454545454 0.0
1.7422999999999997 1.2445 0.0
1.6155872727272724 -1.2422372727272726 0.0
1.6106462152133578 -1.237296215213358 0.0
1.604873951762523 -1.2315239517625232 0.0
1.598270482374768 -1.224920482374768 0.0
1.5908358070500925 -1.2174858070500927 0.0
1.582569925788497 -1.2092199257884972 0.0
1.5734728385899812 -1.2001228385899814 0.0
1.5635445454545454 -1.1901945454545453 0.0
1.552785046382189 -1.1794350463821892 0.0
1.5411943413729126 -1.1678443413729127 0.0
1.5287724304267158 -1.155422430426716 0.0
1.5155193135435991 -1.142169313543599 0.0
1.501434990723562 -1.1280849907235622 0.0
1.4865194619666047 -1.1131694619666048 0.0
1.4707727272727271 -1.0974227272727273 0.0
1.4541947866419294 -1.0808447866419293 0.0
1.4367856400742112 -1.0634356400742113 0.0
1.418545287569573 -1.0451952875695731 0.0
1.3994737291280146 -1.0261237291280147 0.0
1.379570964749536 -1.0062209647495362 0.0
1.358836994434137 -0.9854869944341371 0.0
1.337271818181818 -0.9639218181818181 0.0
1.3148754359925787 -0.9415254359925787 0.0
1.291647847866419 -0.9182978478664192 0.0
1.2675890538033394 -0.8942390538033393 0.0
1.2426990538033393 -0.8693490538033395 0.0
1.2169778478664193 -0.8436278478664192 0.0
1.1904254359925788 -0.8170754359925788 0.0
1.163041818181818 -0.7896918181818181 0.0
1.1348269944341371 -0.7614769944341371 0.0
1.105780964749536 -0.7324309647495362 0.0
1.0759037291280147 -0.7025537291280148 0.0
1.0451952875695731 -0.6718452875695733 0.0
1.0136556400742114 -0.6403056400742114 0.0
0.9812847866419293 -0.6079347866419293 0.0
0.9480827272727271 -0.5747327272727272 0.0
0.9140494619666047 -0.5406994619666048 0.0
0.8791849907235622 -0.5058349907235622 0.0
0.8434893135435992 -0.47013931354359917 0.0
0.8069624304267162 -0.43361243042671627 0.0
0.7696043413729128 -0.3962543413729128 0.0
0.7314150463821893 -0.3580650463821894 0.0
0.6923945454545455 -0.3190445454545454 0.0
0.6525428385899814 -0.27919283858998134 0.0
0.6118599257884971 -0.23850992578849706 0.0
0.5703458070500929 -0.19699580705009279 0.0
0.5280004823747682 -0.15465048237476808 0.0
0.4848239517625232 -0.11147395176252317 0.0
0.4408162152133581 -0.06746621521335805 0.0
0.39597727272727273 -0.022627272727272718 0.0
0.39597727272727273 0.02262727272727273 0.0
0.4408162152133581 0.06746621521335806 0.0
0.4848239517625232 0.11147395176252319 0.0
0.528000482374768 0.15465048237476808 0.0
0.5703458070500929 0.19699580705009276 0.0
0.6118599257884971 0.23850992578849717 0.0
0.6525428385899814 0.2791928385899814 0.0
0.6923945454545455 0.3190445454545454 0.0
0.7314150463821891 0.3580650463821891 0.0
0.7696043413729128 0.39625434137291277 0.0
0.8069624304267162 0.43361243042671616 0.0
0.8434893135435992 0.4701393135435992 0.0
0.8791849907235619 0.5058349907235621 0.0
0.9140494619666046 0.5406994619666047 0.0
0.9480827272727271 0.5747327272727272 0.0
0.9812847866419294 0.6079347866419295 0.0
1.0136556400742114 0.6403056400742114 0.0
1.0451952875695731 0.6718452875695732 0.0
1.0759037291280147 0.7025537291280147 0.0
1.105780964749536 0.7324309647495362 0.0
1.1348269944341371 0.7614769944341373 0.0
1.163041818181818 0.789691818181818 0.0
1.1904254359925786 0.8170754359925786 0.0
1.216977847866419 0.843627847866419 0.0
1.2426990538033393 0.8693490538033394 0.0
1.2675890538033392 0.8942390538033393 0.0
1.291647847866419 0.9182978478664192 0.0
1.3148754359925787 0.9415254359925787 0.0
1.3372718181818182 0.9639218181818181 0.0
1.3588369944341372 0.9854869944341373 0.0
1.379570964749536 1.0062209647495362 0.0
1.3994737291280148 1.0261237291280147 0.0
1.418545287569573 1.0451952875695731 0.0
1.4367856400742112 1.0634356400742113 0.0
1.4541947866419291 1.0808447866419293 0.0
1.470772727272727 1.097422727272727 0.0
1.4865194619666047 1.1131694619666048 0.0
1.501434990723562 1.128084990723562 0.0
1.5155193135435991 1.1421693135435993 0.0
1.528772430426716 1.1554224304267162 0.0
1.5411943413729128 1.1678443413729127 0.0
1.5527850463821888 1.179435046382189 0.0
1.5635445454545451 1.1901945454545453 0.0
1.573472838589981 1.2001228385899811 0.0
1.5825699257884969 1.209219925788497 0.0
1.5908358070500925 1.2174858070500927 0.0
1.5982704823747678 1.224920482374768 0.0
1.604873951762523 1.2315239517625232 0.0
1.6106462152133578 1.237296215213358 0.0
1.6155872727272724 1.2422372727272726 0.0

CELLS 200 700
4 0 101 102 1
4 1 102 103 2
4 2 103 104 3
4 3 104 105 4
4 4 105 106 5
4 5 106 107 6
4 6 107 108 7
4 7 108 109 8
4 8 109 110 9
4 9 110 111 10
4 10 111 112 11
4 11 112 113 12
4 12 113 114 13
4 13 114 115 14
4 14 115 116 15
4 15 116 117 16
4 16 117 118 17
4 17 118 119 18
4 18 119 120 19
4 19 120 121 20
4 20 121 122 21
4 21 122 123 22
4 22 123 124 23
4 23 124 125 24
4 24 125 126 25
4 25 126 127 26
4 26 127 128 27
4 27 128 129 28
4 28 129 130 29
4 29 130 131 30
4 30 131 132 31
4 31 132 133 32
4 32 133 134 33
4 33 134 135 34
4 34 135 136 35
4 35 136 137 36
4 36 137 138 37
4 37 138 139 38
4 38 139 140 39
4 39 140 141 40
4 40 141 142 41
4 41 142 143 42
4 42 143 144 43
4 43 144 145 44
4 44 145 146 45
4 45 146 147 46
4 46 147 148 47
4 47 148 149 48
4 48 149 150 49
4 49 150 151 50
4 50 151 152 51
4 51 152 153 52
4 52 153 154 53
4 53 154 155 54
4 54 155 156 55
4 55 156 157 56
4 56 157 158 57
4 57 158 159 58
4 58 159 160 59
4 59 160 161 60
4 60 161 162 61
4 61 162 163 62
4 62 163 164 63
4 63 164 165 64
4 64 165 166 65
4 65 166 167 66
4 66 167 168 67
4 67 168 169 68
4 68 169 170 69
4 69 170 171 70
4 70 171 172 71
4 71 172 173 72
4 72 173 174 73
4 73 174 175 74
4 74 175 176 75
4 75 176 177 76
4 76 177 178 77
4 77 178 179 78
4 78 179 180 79
4 79 180 181 80
4 80 181 182 81
4 81 182 183 82
4 82 183 184 83
4 83 184 185 84
4 84 185 186 85
4 85 186 187 86
4 86 187 188 87
4 87 188 189 88
4 88 189 190 89
4 89 190 191 90
4 90 191 192 91
4 91 192 193 92
4 92 193 194 93
4 93 194 195 94
4 94 195 196 95
4 95 196 197 96
4 96 197 198 97
4 97 198 199 98
4 98 199 200 99
4 99 200 201 100
1 202
1 203
1 204
1 205
1 206
1 207
1 208
1 209
1 210
1 211
1 212
1 213
1 214
1 215
1 216
1 217
1 218
1 219
1 220
1 221
1 222
1 223
1 224
1 225
1 226
1 227
1 228
1 229
1 230
1 231
1 232
1 233
1 234
1 235
1 236
1 237
1 238
1 239
1 240
1 241
1 242
1 243
1 244
1 245
1 246
1 247
1 248
1 249
1 250
1 251
1 252
1 253
1 254
1 255
1 256
1 257
1 258
1 259
1 260
1 261
1 262
1 263
1 264
1 265
1 266
1 267
1 268
1 269
1 270
1 271
1 272
1 273
1 274
1 275
1 276
1 277
1 278
1 279
1 280
1 281
1 282
1 283
1 284
1 285
1 286
1 287
1 288
1 289
1 290
1 291
1 292
1 293
1 294
1 295
1 296
1 297
1 298
1 299
1 300
1 301

CELL_TYPES 200
9
9
9
9
9
9
9
9
9
9
9
9
9
9
9
9
9
9
9
9
9
9
9
9
9
9
9
9
9
9
9
9
9
9
9
9
9
9
9
9
9
9
9
9
9
9
9
9
9
9
9
9
9
9
9
9
9
9
9
9
9
9
9
9
9
9
9
9
9
9
9
9
9
9
9
9
9
9
9
9
9
9
9
9
9
9
9
9
9
9
9
9
9
9
9
9
9
9
9
9
1
1
1
1
1
1
1
1
1
1
1
1
1
1
1
1
1
1
1
1
1
1
1
1
1
1
1
1
1
1
1
1
1
1
1
1
1
1
1
1
1
1
1
1
1
1
1
1
1
1
1
1
1
1
1
1
1
1
1
1
1
1
1
1
1
1
1
1
1
1
1
1
1
1
1
1
1
1
1
1
1
1
1
1
1
1
1
1
1
1
1
1
1
1
1
1
1
1
1
1

CELL_DATA 200

VECTORS Vinf float
49.530425593280846 0.0288310250968478 4.305529362368433
49.53283572978814 0.029839387674279537 4.2709888116629084
49.53553919208553 0.030857953515808452 4.2319827537577845
49.538479397372456 0.03182840333552073 4.18921213572272
49.541593088434965 0.03269660656837122 4.143471229889487
49.54481379749783 0.03341707764581706 4.095606207720239
49.54807597880538 0.033956340319267114 4.046464902155974
49.55131899566807 0.034294412159450866 3.99684811220714
49.55449011163744 0.03442405435786124 3.9474731201101756
49.55754591173678 0.03434807809856 3.8989563100003135
49.56045207436657 0.034075588463398 3.851815223710218
49.56318190343551 0.03361829298321351 3.806484124799202
49.56571429014106 0.03298778821743584 3.7633341884852594
49.568031729192 0.03219420921554809 3.722690782564914
49.57011877491704 0.031246086892810825 3.6848443699637836
49.57196107818828 0.030150949992861675 3.6500555933769796
49.573962989797685 0.030752712936302804 3.616072425582368
49.575213991293495 0.021340201871924584 3.581111726314551
49.57652351206316 0.022122264249307456 3.555716773045539
49.57770120553607 0.022443994320618776 3.5316710017839803
49.57872791714497 0.022298529461995634 3.509418858271085
49.57959620730735 0.021673981853429558 3.489282423386609
49.580305504897005 0.020548671399803552 3.4715020168344646
49.58085608342523 0.018889384116427294 3.456265274123021
49.58124410489534 0.016653660328323706 3.4437241771536553
49.5814602319766 0.013795053803703182 3.4340046222565896
49.58210433516537 0.013311369195973435 3.4197022730721924
49.582168613633215 0.012131751915505579 3.4112049625294376
49.58241469883708 0.011788601860379189 3.404587966131634
49.58258423035789 0.01117843275877201 3.3991601003078284
49.58267964169551 0.010301170012891223 3.3951587036003588
49.58270277534573 0.00914322507628301 3.3927596011521004
49.58264846223318 0.007683273326160205 3.3921016085419944
49.582504615540294 0.005900826550622736 3.393274411835875
49.58291694808358 0.010642894554534816 3.3982519959949204
49.58280151583727 0.008787174679891725 3.399669403677119
49.58262195528656 0.007150521563762606 3.402524337083488
49.58238627593726 0.005749111867858622 3.406921204125205
49.582083588323606 0.004580373517089924 3.413108615148818
49.58167147310996 0.0036436769948809218 3.421469115592336
49.58088926369209 0.0021617978934204353 3.4322254545703954
49.58017389149763 0.0008213433484671742 3.445374901612118
49.57922045463255 -0.00040879736849939156 3.461917623879641
49.57800792167415 -0.00146103477440548 3.48253457403072
49.57652181248257 -0.0022479846600008766 3.5075155411400574
49.5750199708868 -0.0021586556816757117 3.537213439225036
49.57314244050333 -0.0023730845214176136 3.5652817940451142
49.57172354213829 -0.0018945849967034502 3.584840765723758
49.57120958204079 -0.0009700909834213282 3.5896614461209153
49.57142619370804 -0.00019155585858929888 3.5832778383921022
49.57142647963926 0.00020668418798562568 3.583277482281537
49.57121036203756 0.0009853257753024008 3.5896606476739397
49.571724802187624 0.001909907783656787 3.58484111537767
49.573144152945126 0.0023884820242935476 3.5652846787522074
49.57502212530842 0.002174106366577676 3.5372193374917544
49.576524190679386 0.002262784742898231 3.507525066145384
49.57801076126871 0.0014762970011480906 3.482546197256453
49.57922374666385 0.0004244552417869484 3.461931074501543
49.58017760161127 -0.0008053343626397453 3.445390106967141
49.58089335313892 -0.002145449787853036 3.432242264584868
49.58167623498552 -0.0036276325415277896 3.421487214014752
49.582088727092454 -0.004564278849896707 3.4131266785132732
49.582391873772934 -0.005732925455549523 3.406937895730833
49.58262812575616 -0.007134229655609758 3.402538080451068
49.582808377950045 -0.00877079346570591 3.3996786560980503
49.58292460352142 -0.010626461073200756 3.398255510007107
49.58276976437811 -0.007611987034133761 3.39230197683853
49.582653082816556 -0.007667446049180179 3.3921027388248572
49.58270820112697 -0.009126355467890175 3.392752211061163
49.58268591020388 -0.010283386376195967 3.395142523410861
49.582591363583134 -0.011159849977299114 3.3991350467656964
49.58242270480811 -0.011769321876124401 3.4045541391998917
49.582177488063714 -0.012111863278637 3.41116261754446
49.58211423667482 -0.013290591063818297 3.4196509961874226
49.58147583547569 -0.013778882966839818 3.4339401735345065
49.581260498520955 -0.01663782474953422 3.4436532231918093
49.58087324207232 -0.018873905213909466 3.4561880584843654
49.580323407255236 -0.020533570337185485 3.471418715467944
49.579614834980575 -0.0216592811364129 3.489193127991534
49.578747252737415 -0.022284253046522918 3.5093235870358255
49.57772123058478 -0.02243016649432839 3.5315697291551063
49.57654420545049 -0.022108907891031846 3.555609466384138
49.57523532832784 -0.021327336642564088 3.580998379153681
49.57398595351707 -0.0307434840095424 3.615953523245093
49.57198447744769 -0.03014201197199416 3.649931130242112
49.57014250596938 -0.031237429952976466 3.684714138270907
49.56805576528309 -0.03218580418738749 3.7225549534964477
49.565738605444956 -0.032979602750052406 3.7631929736967535
49.56320647484675 -0.03361029269272188 3.806337757684729
49.56047688276681 -0.034067738415768885 3.851663945984748
49.55757094258672 -0.0343403444328201 3.8988003643320486
49.55451535486524 -0.034416405848198814 3.9473127478962695
49.551344444925874 -0.03428682151842908 3.996683554985432
49.54810163024415 -0.03394878507679682 4.0462964051784
49.54483964826499 -0.03340954050880402 4.0954340244325875
49.54161913512367 -0.03268907526170819 4.143295626270167
49.53850563463553 -0.03182087001781664 4.189033393651448
49.53556561157404 -0.030850413924727507 4.231801172879762
49.53286231949859 -0.029831840173076673 4.270804709578615
49.5304523373169 -0.028823469770211954 4.305343073332621
49.530425593280846 0.0288310250968478 4.305529362368433
49.53283572978814 0.029839387674279537 4.2709888116629084
49.53553919208553 0.030857953515808452 4.2319827537577845
49.538479397372456 0.03182840333552073 4.18921213572272
49.541593088434965 0.03269660656837122 4.143471229889487
49.54481379749783 0.03341707764581706 4.095606207720239
49.54807597880538 0.033956340319267114 4.046464902155974
49.55131899566807 0.034294412159450866 3.99684811220714
49.55449011163744 0.03442405435786124 3.9474731201101756
49.55754591173678 0.03434807809856 3.8989563100003135
49.56045207436657 0.034075588463398 3.851815223710218
49.56318190343551 0.03361829298321351 3.806484124799202
49.56571429014106 0.03298778821743584 3.7633341884852594
49.568031729192 0.03219420921554809 3.722690782564914
49.57011877491704 0.031246086892810825 3.6848443699637836
49.57196107818828 0.030150949992861675 3.6500555933769796
49.573962989797685 0.030752712936302804 3.616072425582368
49.575213991293495 0.021340201871924584 3.581111726314551
49.57652351206316 0.022122264249307456 3.555716773045539
49.57770120553607 0.022443994320618776 3.5316710017839803
49.57872791714497 0.022298529461995634 3.509418858271085
49.57959620730735 0.021673981853429558 3.489282423386609
49.580305504897005 0.020548671399803552 3.4715020168344646
49.58085608342523 0.018889384116427294 3.456265274123021
49.58124410489534 0.016653660328323706 3.4437241771536553
49.5814602319766 0.013795053803703182 3.4340046222565896
49.58210433516537 0.013311369195973435 3.4197022730721924
49.582168613633215 0.012131751915505579 3.4112049625294376
49.58241469883708 0.011788601860379189 3.404587966131634
49.58258423035789 0.01117843275877201 3.3991601003078284
49.58267964169551 0.010301170012891223 3.3951587036003588
49.58270277534573 0.00914322507628301 3.3927596011521004
49.58264846223318 0.007683273326160205 3.3921016085419944
49.582504615540294 0.005900826550622736 3.393274411835875
49.58291694808358 0.010642894554534816 3.3982519959949204
49.58280151583727 0.008787174679891725 3.399669403677119
49.58262195528656 0.007150521563762606 3.402524337083488
49.58238627593726 0.005749111867858622 3.406921204125205
49.582083588323606 0.004580373517089924 3.413108615148818
49.58167147310996 0.0036436769948809218 3.421469115592336
49.58088926369209 0.0021617978934204353 3.4322254545703954
49.58017389149763 0.0008213433484671742 3.445374901612118
49.57922045463255 -0.00040879736849939156 3.461917623879641
49.57800792167415 -0.00146103477440548 3.48253457403072
49.57652181248257 -0.0022479846600008766 3.5075155411400574
49.5750199708868 -0.0021586556816757117 3.537213439225036
49.57314244050333 -0.0023730845214176136 3.5652817940451142
49.57172354213829 -0.0018945849967034502 3.584840765723758
49.57120958204079 -0.0009700909834213282 3.5896614461209153
49.57142619370804 -0.00019155585858929888 3.5832778383921022
49.57142647963926 0.00020668418798562568 3.583277482281537
49.57121036203756 0.0009853257753024008 3.5896606476739397
49.571724802187624 0.001909907783656787 3.58484111537767
49.573144152945126 0.0023884820242935476 3.5652846787522074
49.57502212530842 0.002174106366577676 3.5372193374917544
49.576524190679386 0.002262784742898231 3.507525066145384
49.57801076126871 0.0014762970011480906 3.482546197256453
49.57922374666385 0.0004244552417869484 3.461931074501543
49.58017760161127 -0.0008053343626397453 3.445390106967141
49.58089335313892 -0.002145449787853036 3.432242264584868
49.58167623498552 -0.0036276325415277896 3.421487214014752
49.582088727092454 -0.004564278849896707 3.4131266785132732
49.582391873772934 -0.005732925455549523 3.406937895730833
49.58262812575616 -0.007134229655609758 3.402538080451068
49.582808377950045 -0.00877079346570591 3.3996786560980503
49.58292460352142 -0.010626461073200756 3.398255510007107
49.58276976437811 -0.007611987034133761 3.39230197683853
49.582653082816556 -0.007667446049180179 3.3921027388248572
49.58270820112697 -0.009126355467890175 3.392752211061163
49.58268591020388 -0.010283386376195967 3.395142523410861
49.582591363583134 -0.011159849977299114 3.3991350467656964
49.58242270480811 -0.011769321876124401 3.4045541391998917
49.582177488063714 -0.012111863278637 3.41116261754446
49.58211423667482 -0.013290591063818297 3.4196509961874226
49.58147583547569 -0.013778882966839818 3.4339401735345065
49.581260498520955 -0.01663782474953422 3.4436532231918093
49.58087324207232 -0.018873905213909466 3.4561880584843654
49.580323407255236 -0.020533570337185485 3.471418715467944
49.579614834980575 -0.0216592811364129 3.489193127991534
49.578747252737415 -0.022284253046522918 3.5093235870358255
49.57772123058478 -0.02243016649432839 3.5315697291551063
49.57654420545049 -0.022108907891031846 3.555609466384138
49.57523532832784 -0.021327336642564088 3.580998379153681
49.57398595351707 -0.0307434840095424 3.615953523245093
49.57198447744769 -0.03014201197199416 3.649931130242112
49.57014250596938 -0.031237429952976466 3.684714138270907
49.56805576528309 -0.03218580418738749 3.7225549534964477
49.565738605444956 -0.032979602750052406 3.7631929736967535
49.56320647484675 -0.03361029269272188 3.806337757684729
49.56047688276681 -0.034067738415768885 3.851663945984748
49.55757094258672 -0.0343403444328201 3.8988003643320486
49.55451535486524 -0.034416405848198814 3.9473127478962695
49.551344444925874 -0.03428682151842908 3.996683554985432
49.54810163024415 -0.03394878507679682 4.0462964051784
49.54483964826499 -0.03340954050880402 4.0954340244325875
49.54161913512367 -0.03268907526170819 4.143295626270167
49.53850563463553 -0.03182087001781664 4.189033393651448
49.53556561157404 -0.030850413924727507 4.231801172879762
49.53286231949859 -0.029831840173076673 4.270804709578615
49.5304523373169 -0.028823469770211954 4.305343073332621

VECTORS L float
-0.006653868175053911 0.0 0.09060844369175065
-0.01200516153148705 0.0 0.16347919345836787
-0.01773917115147012 0.0 0.24156154707758168
-0.0240485423076742 0.0 0.327478833999582
-0.03097544406861547 0.0 0.42180528767319264
-0.03852157314423243 0.0 0.5245640128914274
-0.04667195916006918 0.0 0.635551151943967
-0.055402379722739564 0.0 0.7544368585955888
-0.06468219639467282 0.0 0.8808039167139021
-0.0744756226671297 0.0 1.01416500677638
-0.08474242358062843 0.0 1.1539722328877733
-0.09543845736951169 0.0 1.2996244985756547
-0.10651626260672181 0.0 1.4504755021809073
-0.11792577918257724 0.0 1.6058435547205288
-0.1296151667095331 0.0 1.7650227244399006
-0.14153157759328547 0.0 1.9272933640381213
-0.15362072010775468 0.0 2.0919161608813956
-0.16583059318463772 0.0 2.2581829951595207
-0.17812790902973 0.0 2.4256405733675064
-0.1904614150017808 0.0 2.5935909673323496
-0.20278890012572653 0.0 2.7614593729466343
-0.21507405080057865 0.0 2.9287512930571484
-0.2272850362627187 0.0 3.0950332751401697
-0.2393936632028923 0.0 3.2599213993754006
-0.2513742685274038 0.0 3.423066200922403
-0.26320134973454734 0.0 3.584120401787533
-0.2748705537195489 0.0 3.743024723963107
-0.28632152682704204 0.0 3.8989573070455243
-0.29756937668223526 0.0 4.052123877744723
-0.30859774619338176 0.0 4.2023016948540075
-0.319393583804557 0.0 4.349313029999602
-0.3299443337282931 0.0 4.492986905889522
-0.34023648574895904 0.0 4.633139348393223
-0.3502544728713475 0.0 4.7695583753716555
-0.3599822650630365 0.0 4.902025699318687
-0.36936471558673145 0.0 5.029790364563195
-0.3783949426202551 0.0 5.152758658518631
-0.38705022324631894 0.0 5.270621153928928
-0.39530114306777264 0.0 5.3829773029206045
-0.4030667105348746 0.0 5.488724210443565
-0.4103785517164012 0.0 5.588292541608168
-0.4171324698813784 0.0 5.680263406922925
-0.4232706227740203 0.0 5.763849144739227
-0.42871084827030637 0.0 5.837930919818378
-0.4333517142093106 0.0 5.90112748894966
-0.43707558748749675 0.0 5.951836994062302
-0.43973369565577763 0.0 5.988033539884357
-0.4412343705837904 0.0 6.008468844001781
-0.44160462399931966 0.0 6.0135107361568485
-0.43979579477952147 0.0 5.988879169044573
-0.4397956639173735 0.0 5.988877387041195
-0.44160448532906477 0.0 6.013508847827286
-0.44123424405739203 0.0 6.008467121040078
-0.43973358886865543 0.0 5.98803208572045
-0.43707548330359286 0.0 5.951835575347482
-0.43335157465381974 0.0 5.901125588565477
-0.4287106114153828 0.0 5.837927694468036
-0.4232702244797822 0.0 5.763843721003726
-0.4171318397205069 0.0 5.680254825764666
-0.4103776082998448 0.0 5.588279694719159
-0.4030653548467483 0.0 5.488705749484012
-0.3952992728468767 0.0 5.382951835357936
-0.3870476972021304 0.0 5.270586755752317
-0.3783916079400132 0.0 5.1527132488142335
-0.3693603661846183 0.0 5.029731136976159
-0.359976505225987 0.0 4.9019472652623985
-0.35024547116780236 0.0 4.769435795493705
-0.3402298899918327 0.0 4.633049531271443