# vtk DataFile Version 4.0
[MyVLM domain - lattices] 
ASCII
DATASET UNSTRUCTURED_GRID
POINTS 302 float
1.2444999999999997 -1.2445 0.0
1.2399745454545452 -1.2399745454545454 0.0
1.2346178849721705 -1.2346178849721707 0.0
1.2284300185528754 -1.2284300185528756 0.0
1.2214109461966602 -1.2214109461966605 0.0
1.2135606679035247 -1.213560667903525 0.0
1.2048791836734691 -1.2048791836734694 0.0
1.1953664935064932 -1.1953664935064934 0.0
1.1850225974025972 -1.1850225974025974 0.0
1.1738474953617808 -1.173847495361781 0.0
1.1618411873840442 -1.1618411873840444 0.0
1.1490036734693874 -1.1490036734693876 0.0
1.1353349536178106 -1.1353349536178108 0.0
1.1208350278293133 -1.1208350278293135 0.0
1.1055038961038959 -1.105503896103896 0.0
1.0893415584415582 -1.0893415584415584 0.0
1.0723480148423004 -1.0723480148423006 0.0
1.054523265306122 -1.0545232653061223 0.0
1.0358673098330238 -1.035867309833024 0.0
1.0163801484230053 -1.0163801484230055 0.0
0.9960617810760664 -0.9960617810760668 0.0
0.9749122077922076 -0.9749122077922077 0.0
0.9529314285714284 -0.9529314285714284 0.0
0.9301194434137288 -0.930119443413729 0.0
0.9064762523191091 -0.9064762523191096 0.0
0.8820018552875695 -0.8820018552875695 0.0
0.8566962523191093 -0.8566962523191094 0.0
0.8305594434137288 -0.8305594434137291 0.0
0.8035914285714284 -0.8035914285714285 0.0
0.7757922077922076 -0.7757922077922077 0.0
0.7471617810760666 -0.7471617810760667 0.0
0.7177001484230053 -0.7177001484230054 0.0
0.6874073098330239 -0.687407309833024 0.0
0.6562832653061222 -0.6562832653061225 0.0
0.6243280148423004 -0.6243280148423005 0.0
0.5915415584415582 -0.5915415584415583 0.0
0.5579238961038958 -0.5579238961038959 0.0
0.5234750278293133 -0.5234750278293134 0.0
0.48819495361781057 -0.48819495361781057 0.0
0.4520836734693877 -0.4520836734693877 0.0
0.4151411873840445 -0.4151411873840446 0.0
0.37736749536178105 -0.37736749536178116 0.0
0.3387625974025974 -0.3387625974025974 0.0
0.2993264935064933 -0.29932649350649343 0.0
0.25905918367346925 -0.25905918367346925 0.0
0.21796066790352486 -0.21796066790352486 0.0
0.17603094619666027 -0.1760309461966605 0.0
0.13327001855287546 -0.13327001855287568 0.0
0.08967788497217066 -0.08967788497217066 0.0
0.045254545454545436 -0.045254545454545436 0.0
0.0 0.0 0.0
0.04525454545454545 0.04525454545454546 0.0
0.08967788497217066 0.08967788497217068 0.0
0.13327001855287568 0.1332700185528757 0.0
0.17603094619666046 0.1760309461966605 0.0
0.21796066790352497 0.21796066790352508 0.0
0.2590591836734693 0.25905918367346936 0.0
0.29932649350649343 0.2993264935064935 0.0
0.3387625974025973 0.33876259740259734 0.0
0.37736749536178094 0.377367495361781 0.0
0.41514118738404443 0.4151411873840445 0.0
0.45208367346938766 0.4520836734693878 0.0
0.48819495361781057 0.4881949536178107 0.0
0.5234750278293133 0.5234750278293134 0.0
0.5579238961038959 0.557923896103896 0.0
0.5915415584415582 0.5915415584415583 0.0
0.6243280148423003 0.6243280148423004 0.0
0.6562832653061222 0.6562832653061225 0.0
0.687407309833024 0.6874073098330241 0.0
0.7177001484230054 0.7177001484230056 0.0
0.7471617810760667 0.7471617810760669 0.0
0.7757922077922076 0.7757922077922077 0.0
0.8035914285714284 0.8035914285714285 0.0
0.8305594434137288 0.830559443413729 0.0
0.8566962523191093 0.8566962523191094 0.0
0.8820018552875692 0.8820018552875695 0.0
0.9064762523191091 0.9064762523191093 0.0
0.9301194434137288 0.9301194434137292 0.0
0.9529314285714284 0.9529314285714284 0.0
0.9749122077922076 0.9749122077922077 0.0
0.9960617810760666 0.9960617810760668 0.0
1.0163801484230053 1.0163801484230055 0.0
1.0358673098330238 1.035867309833024 0.0
1.054523265306122 1.0545232653061223 0.0
1.0723480148423001 1.0723480148423004 0.0
1.0893415584415582 1.0893415584415584 0.0
1.1055038961038959 1.105503896103896 0.0
1.120835027829313 1.1208350278293133 0.0
1.1353349536178106 1.1353349536178106 0.0
1.1490036734693874 1.1490036734693876 0.0
1.1618411873840444 1.1618411873840446 0.0
1.1738474953617808 1.173847495361781 0.0
1.1850225974025972 1.1850225974025972 0.0
1.1953664935064932 1.1953664935064934 0.0
1.2048791836734691 1.2048791836734694 0.0
1.2135606679035245 1.2135606679035247 0.0
1.22141094619666 1.2214109461966602 0.0
1.2284300185528754 1.2284300185528756 0.0
1.2346178849721703 1.2346178849721705 0.0
1.2399745454545452 1.2399745454545454 0.0
1.2444999999999997 1.2445 0.0
1.7422999999999997 -1.2445 0.0
1.7377745454545452 -1.2399745454545454 0.0
1.7324178849721703 -1.2346178849721707 0.0
1.7262300185528754 -1.2284300185528756 0.0
1.7192109461966603 -1.2214109461966605 0.0
1.7113606679035245 -1.213560667903525 0.0
1.7026791836734692 -1.2048791836734694 0.0
1.6931664935064934 -1.1953664935064934 0.0
1.6828225974025972 -1.1850225974025974 0.0
1.6716474953617806 -1.173847495361781 0.0
1.6596411873840444 -1.1618411873840444 0.0
1.6468036734693878 -1.1490036734693876 0.0
1.6331349536178106 -1.1353349536178108 0.0
1.6186350278293133 -1.1208350278293135 0.0
1.603303896103896 -1.105503896103896 0.0
1.5871415584415582 -1.0893415584415584 0.0
1.5701480148423004 -1.0723480148423006 0.0
1.552323265306122 -1.0545232653061223 0.0
1.5336673098330238 -1.035867309833024 0.0
1.5141801484230053 -1.0163801484230055 0.0
1.4938617810760666 -0.9960617810760668 0.0
1.4727122077922075 -0.9749122077922077 0.0
1.4507314285714283 -0.9529314285714284 0.0
1.4279194434137288 -0.930119443413729 0.0
1.4042762523191092 -0.9064762523191096 0.0
1.3798018552875693 -0.8820018552875695 0.0
1.3544962523191093 -0.8566962523191094 0.0
1.328359443413729 -0.8305594434137291 0.0
1.3013914285714283 -0.8035914285714285 0.0
1.2735922077922077 -0.7757922077922077 0.0
1.2449617810760665 -0.7471617810760667 0.0
1.2155001484230055 -0.7177001484230054 0.0
1.1852073098330238 -0.687407309833024 0.0
1.1540832653061224 -0.6562832653061225 0.0
1.1221280148423003 -0.6243280148423005 0.0
1.0893415584415582 -0.5915415584415583 0.0
1.055723896103896 -0.5579238961038959 0.0
1.0212750278293132 -0.5234750278293134 0.0
0.9859949536178108 -0.48819495361781057 0.0
0.9498836734693876 -0.4520836734693877 0.0
0.9129411873840445 -0.4151411873840446 0.0
0.875167495361781 -0.37736749536178116 0.0
0.8365625974025973 -0.3387625974025974 0.0
0.7971264935064933 -0.29932649350649343 0.0
0.7568591836734693 -0.25905918367346925 0.0
0.7157606679035249 -0.21796066790352486 0.0
0.6738309461966603 -0.1760309461966605 0.0
0.6310700185528755 -0.13327001855287568 0.0
0.5874778849721707 -0.08967788497217066 0.0
0.5430545454545455 -0.045254545454545436 0.0
0.4978 0.0 0.0
0.5430545454545455 0.04525454545454546 0.0
0.5874778849721707 0.08967788497217068 0.0
0.6310700185528757 0.1332700185528757 0.0
0.6738309461966605 0.1760309461966605 0.0
0.715760667903525 0.21796066790352508 0.0
0.7568591836734693 0.25905918367346936 0.0
0.7971264935064934 0.2993264935064935 0.0
0.8365625974025973 0.33876259740259734 0.0
0.875167495361781 0.377367495361781 0.0
0.9129411873840445 0.4151411873840445 0.0
0.9498836734693876 0.4520836734693878 0.0
0.9859949536178105 0.4881949536178107 0.0
1.0212750278293132 0.5234750278293134 0.0
1.055723896103896 0.557923896103896 0.0
1.0893415584415582 0.5915415584415583 0.0
1.1221280148423003 0.6243280148423004 0.0
1.1540832653061224 0.6562832653061225 0.0
1.185207309833024 0.6874073098330241 0.0
1.2155001484230055 0.7177001484230056 0.0
1.2449617810760667 0.7471617810760669 0.0
1.2735922077922077 0.7757922077922077 0.0
1.3013914285714283 0.8035914285714285 0.0
1.3283594434137287 0.830559443413729 0.0
1.3544962523191093 0.8566962523191094 0.0
1.3798018552875693 0.8820018552875695 0.0
1.4042762523191092 0.9064762523191093 0.0
1.427919443413729 0.9301194434137292 0.0
1.4507314285714283 0.9529314285714284 0.0
1.4727122077922075 0.9749122077922077 0.0
1.4938617810760666 0.9960617810760668 0.0
1.5141801484230053 1.0163801484230055 0.0
1.5336673098330238 1.035867309833024 0.0
1.552323265306122 1.0545232653061223 0.0
1.5701480148423002 1.0723480148423004 0.0
1.5871415584415582 1.0893415584415584 0.0
1.603303896103896 1.105503896103896 0.0
1.6186350278293131 1.1208350278293133 0.0
1.6331349536178106 1.1353349536178106 0.0
1.6468036734693874 1.1490036734693876 0.0
1.6596411873840444 1.1618411873840446 0.0
1.6716474953617806 1.173847495361781 0.0
1.6828225974025972 1.1850225974025972 0.0
1.6931664935064934 1.1953664935064934 0.0
1.7026791836734692 1.2048791836734694 0.0
1.7113606679035245 1.2135606679035247 0.0
1.71921094619666 1.2214109461966602 0.0
1.7262300185528754 1.2284300185528756 0.0
1.7324178849721703 1.2346178849721705 0.0
1.7377745454545452 1.2399745454545454 0.0
1.7422999999999997 1.2445 0.0
1.6155872727272724 -1.2422372727272726 0.0
1.6106462152133578 -1.237296215213358 0.0
1.604873951762523 -1.2315239517625232 0.0
1.598270482374768 -1.224920482374768 0.0
1.5908358070500925 -1.2174858070500927 0.0
1.582569925788497 -1.2092199257884972 0.0
1.5734728385899812 -1.2001228385899814 0.0
1.5635445454545454 -1.1901945454545453 0.0
1.552785046382189 -1.1794350463821892 0.0
1.5411943413729126 -1.1678443413729127 0.0
1.5287724304267158 -1.155422430426716 0.0
1.5155193135435991 -1.142169313543599 0.0
1.501434990723562 -1.1280849907235622 0.0
1.4865194619666047 -1.1131694619666048 0.0
1.4707727272727271 -1.0974227272727273 0.0
1.4541947866419294 -1.0808447866419293 0.0
1.4367856400742112 -1.0634356400742113 0.0
1.418545287569573 -1.0451952875695731 0.0
1.3994737291280146 -1.0261237291280147 0.0
1.379570964749536 -1.0062209647495362 0.0
1.358836994434137 -0.9854869944341371 0.0
1.337271818181818 -0.9639218181818181 0.0
1.3148754359925787 -0.9415254359925787 0.0
1.291647847866419 -0.9182978478664192 0.0
1.2675890538033394 -0.8942390538033393 0.0
1.2426990538033393 -0.8693490538033395 0.0
1.2169778478664193 -0.8436278478664192 0.0
1.1904254359925788 -0.8170754359925788 0.0
1.163041818181818 -0.7896918181818181 0.0
1.1348269944341371 -0.7614769944341371 0.0
1.105780964749536 -0.7324309647495362 0.0
1.0759037291280147 -0.7025537291280148 0.0
1.0451952875695731 -0.6718452875695733 0.0
1.0136556400742114 -0.6403056400742114 0.0
0.9812847866419293 -0.6079347866419293 0.0
0.9480827272727271 -0.5747327272727272 0.0
0.9140494619666047 -0.5406994619666048 0.0
0.8791849907235622 -0.5058349907235622 0.0
0.8434893135435992 -0.47013931354359917 0.0
0.8069624304267162 -0.43361243042671627 0.0
0.7696043413729128 -0.3962543413729128 0.0
0.7314150463821893 -0.3580650463821894 0.0
0.6923945454545455 -0.3190445454545454 0.0
0.6525428385899814 -0.27919283858998134 0.0
0.6118599257884971 -0.23850992578849706 0.0
0.5703458070500929 -0.19699580705009279 0.0
0.5280004823747682 -0.15465048237476808 0.0
0.4848239517625232 -0.11147395176252317 0.0
0.4408162152133581 -0.06746621521335805 0.0
0.39597727272727273 -0.022627272727272718 0.0
0.39597727272727273 0.02262727272727273 0.0
0.4408162152133581 0.06746621521335806 0.0
0.4848239517625232 0.11147395176252319 0.0
0.528000482374768 0.15465048237476808 0.0
0.5703458070500929 0.19699580705009276 0.0
0.6118599257884971 0.23850992578849717 0.0
0.6525428385899814 0.2791928385899814 0.0
0.6923945454545455 0.3190445454545454 0.0
0.7314150463821891 0.3580650463821891 0.0
0.7696043413729128 0.39625434137291277 0.0
0.8069624304267162 0.43361243042671616 0.0
0.8434893135435992 0.4701393135435992 0.0
0.8791849907235619 0.5058349907235621 0.0
0.9140494619666046 0.5406994619666047 0.0
0.9480827272727271 0.5747327272727272 0.0
0.9812847866419294 0.6079347866419295 0.0
1.0136556400742114 0.6403056400742114 0.0
1.0451952875695731 0.6718452875695732 0.0
1.0759037291280147 0.7025537291280147 0.0
1.105780964749536 0.7324309647495362 0.0
1.1348269944341371 0.7614769944341373 0.0
1.163041818181818 0.789691818181818 0.0
1.1904254359925786 0.8170754359925786 0.0
1.216977847866419 0.843627847866419 0.0
1.2426990538033393 0.8693490538033394 0.0
1.2675890538033392 0.8942390538033393 0.0
1.291647847866419 0.9182978478664192 0.0
1.3148754359925787 0.9415254359925787 0.0
1.3372718181818182 0.9639218181818181 0.0
1.3588369944341372 0.9854869944341373 0.0
1.379570964749536 1.0062209647495362 0.0
1.3994737291280148 1.0261237291280147 0.0
1.418545287569573 1.0451952875695731 0.0
1.4367856400742112 1.0634356400742113 0.0
1.4541947866419291 1.0808447866419293 0.0
1.470772727272727 1.097422727272727 0.0
1.4865194619666047 1.1131694619666048 0.0
1.501434990723562 1.128084990723562 0.0
1.5155193135435991 1.1421693135435993 0.0
1.528772430426716 1.1554224304267162 0.0
1.5411943413729128 1.1678443413729127 0.0
1.5527850463821888 1.179435046382189 0.0
1.5635445454545451 1.1901945454545453 0.0
1.573472838589981 1.2001228385899811 0.0
1.5825699257884969 1.209219925788497 0.0
1.5908358070500925 1.2174858070500927 0.0
1.5982704823747678 1.224920482374768 0.0
1.604873951762523 1.2315239517625232 0.0
1.6106462152133578 1.237296215213358 0.0
1.6155872727272724 1.2422372727272726 0.0

CELLS 200 700
4 0 101 102 1
4 1 102 103 2
4 2 103 104 3
4 3 104 105 4
4 4 105 106 5
4 5 106 107 6
4 6 107 108 7
4 7 108 109 8
4 8 109 110 9
4 9 110 111 10
4 10 111 112 11
4 11 112 113 12
4 12 113 114 13
4 13 114 115 14
4 14 115 116 15
4 15 116 117 16
4 16 117 118 17
4 17 118 119 18
4 18 119 120 19
4 19 120 121 20
4 20 121 122 21
4 21 122 123 22
4 22 123 124 23
4 23 124 125 24
4 24 125 126 25
4 25 126 127 26
4 26 127 128 27
4 27 128 129 28
4 28 129 130 29
4 29 130 131 30
4 30 131 132 31
4 31 132 133 32
4 32 133 134 33
4 33 134 135 34
4 34 135 136 35
4 35 136 137 36
4 36 137 138 37
4 37 138 139 38
4 38 139 140 39
4 39 140 141 40
4 40 141 142 41
4 41 142 143 42
4 42 143 144 43
4 43 144 145 44
4 44 145 146 45
4 45 146 147 46
4 46 147 148 47
4 47 148 149 48
4 48 149 150 49
4 49 150 151 50
4 50 151 152 51
4 51 152 153 52
4 52 153 154 53
4 53 154 155 54
4 54 155 156 55
4 55 156 157 56
4 56 157 158 57
4 57 158 159 58
4 58 159 160 59
4 59 160 161 60
4 60 161 162 61
4 61 162 163 62
4 62 163 164 63
4 63 164 165 64
4 64 165 166 65
4 65 166 167 66
4 66 167 168 67
4 67 168 169 68
4 68 169 170 69
4 69 170 171 70
4 70 171 172 71
4 71 172 173 72
4 72 173 174 73
4 73 174 175 74
4 74 175 176 75
4 75 176 177 76
4 76 177 178 77
4 77 178 179 78
4 78 179 180 79
4 79 180 181 80
4 80 181 182 81
4 81 182 183 82
4 82 183 184 83
4 83 184 185 84
4 84 185 186 85
4 85 186 187 86
4 86 187 188 87
4 87 188 189 88
4 88 189 190 89
4 89 190 191 90
4 90 191 192 91
4 91 192 193 92
4 92 193 194 93
4 93 194 195 94
4 94 195 196 95
4 95 196 197 96
4 96 197 198 97
4 97 198 199 98
4 98 199 200 99
4 99 200 201 100
1 202
1 203
1 204
1 205
1 206
1 207
1 208
1 209
1 210
1 211
1 212
1 213
1 214
1 215
1 216
1 217
1 218
1 219
1 220
1 221
1 222
1 223
1 224
1 225
1 226
1 227
1 228
1 229
1 230
1 231
1 232
1 233
1 234
1 235
1 236
1 237
1 238
1 239
1 240
1 241
1 242
1 243
1 244
1 245
1 246
1 247
1 248
1 249
1 250
1 251
1 252
1 253
1 254
1 255
1 256
1 257
1 258
1 259
1 260
1 261
1 262
1 263
1 264
1 265
1 266
1 267
1 268
1 269
1 270
1 271
1 272
1 273
1 274
1 275
1 276
1 277
1 278
1 279
1 280
1 281
1 282
1 283
1 284
1 285
1 286
1 287
1 288
1 289
1 290
1 291
1 292
1 293
1 294
1 295
1 296
1 297
1 298
1 299
1 300
1 301

CELL_TYPES 200
9
9
9
9
9
9
9
9
9
9
9
9
9
9
9
9
9
9
9
9
9
9
9
9
9
9
9
9
9
9
9
9
9
9
9
9
9
9
9
9
9
9
9
9
9
9
9
9
9
9
9
9
9
9
9
9
9
9
9
9
9
9
9
9
9
9
9
9
9
9
9
9
9
9
9
9
9
9
9
9
9
9
9
9
9
9
9
9
9
9
9
9
9
9
9
9
9
9
9
9
1
1
1
1
1
1
1
1
1
1
1
1
1
1
1
1
1
1
1
1
1
1
1
1
1
1
1
1
1
1
1
1
1
1
1
1
1
1
1
1
1
1
1
1
1
1
1
1
1
1
1
1
1
1
1
1
1
1
1
1
1
1
1
1
1
1
1
1
1
1
1
1
1
1
1
1
1
1
1
1
1
1
1
1
1
1
1
1
1
1
1
1
1
1
1
1
1
1
1
1

CELL_DATA 200

VECTORS Vinf float
49.57083774225294 0.0475960788246211 3.599989858153806
49.57248414777133 0.04835530934615173 3.570191434411269
49.574323866484534 0.04911778117399704 3.536546263941124
49.57631445307162 0.04983892977471855 3.4996499170576896
49.57840853258172 0.050478329942811026 3.4601719392695243
49.580556625128025 0.051003447722956896 3.418820312209403
49.5827105761528 0.05139250726024616 3.376298887181573
49.584826955368236 0.05163580368506337 3.3332663324814558
49.586869737135984 0.05173513230369934 3.290305340364648
49.5888117750889 0.051701530341177554 3.2479076990122486
49.59063497565702 0.05155202846731698 3.2064754565423472
49.59205474234503 0.052708997068905736 3.168364868057931
49.593738187860815 0.05252259337499589 3.1314855874602063
49.595353660675876 0.051795944433195726 3.0951180899288553
49.5968978563526 0.05045752455642042 3.0596058336453953
49.59837283097422 0.04842904587798062 3.025269955799749
49.59897396491496 0.049260228695687164 2.992738527830702
49.60003143735513 0.048771852884370664 2.96450086181422
49.60104601076458 0.04826013530330289 2.938659438932204
49.602034290275455 0.04770986248172262 2.915293765770885
49.60300262160991 0.047099179393639355 2.894495339240676
49.60466256524682 0.04924922794517945 2.8763031106785246
49.60613122636413 0.048596471411205704 2.8605667984897334
49.60765196884627 0.04792345745610818 2.846587518705413
49.606489636157605 0.04371378090169535 2.839745719387909
49.60720450868779 0.042600665827659256 2.8339524881234572
49.60783571899077 0.041372588757053255 2.831407026941483
49.60836918744578 0.04002668337388276 2.831858247604589
49.61009232383988 0.03981577401676242 2.8340785824700645
49.6107033820656 0.038163365598715644 2.838201917660306
49.609269832181305 0.035361778177244625 2.8471479141380573
49.60931801228423 0.03363373187401447 2.855925358938671
49.609237896588084 0.03183188410837381 2.866372313556768
49.61074370418753 0.030733550218660515 2.87808853823685
49.610237184001484 0.028859214233384087 2.8923820127243527
49.608287805853905 0.026022655960569283 2.907371840329418
49.607763782542754 0.023931041455094396 2.924701226161087
49.60712637425771 0.0217164778163633 2.9444980525364075
49.607641890044135 0.019392399445295052 2.967945068052487
49.606215240255665 0.01679216515057553 2.9930180051240294
49.60406393494971 0.014276524823047261 3.0189706691390974
49.602515599744244 0.011675196412496055 3.0486641641716687
49.606353699537955 0.011900352770245932 3.0753269558136545
49.601283758611935 0.007707943308585303 3.11196409590198
49.596269203460125 0.004100816652189217 3.152674263353706
49.59137862478467 0.0012781467268896782 3.1963667502822966
49.586830566684874 -0.0005283322933202265 3.239580133442904
49.58304174791366 -0.0011488502292725047 3.2760860066721214
49.58519390967955 0.0003915884167858349 3.3014104594392
49.58376067151395 0.00030166567022722117 3.3163400424341436
49.58378516427456 0.0001216344227523186 3.3165479473980124
49.58528739214645 0.0001284717260123347 3.302241696042834
49.5832544702781 0.0019151755191562372 3.278028023256757
49.58711154950955 0.0013667592229890558 3.2429785435421885
49.5917498890092 -0.0004187813535534438 3.2014818874798787
49.59673110579797 -0.0032837838743762296 3.159698678140953
49.60180846244636 -0.006986722891945409 3.1211522473529123
49.606899609036795 -0.01129924670374808 3.08698912613772
49.603191999475825 -0.011221394821241529 3.0619717333067387
49.604736390154734 -0.013898202115760955 3.034367674221558
49.607109172661204 -0.016488839157834948 3.0098741281909396
49.60857948454868 -0.01925497053566448 2.9850397668027147
49.60790466396486 -0.021810050551346053 2.960312114207479
49.60852385074403 -0.02427346739980623 2.9382435446942576
49.60898159742862 -0.026578375023644938 2.9179502368903902
49.61109152607307 -0.029547675445690407 2.900027950586071
49.611342342070536 -0.03163427444113425 2.8816323310417533
49.60974952479408 -0.03276516626717694 2.865696759283564
49.609807028694156 -0.03465876914154994 2.850594159852681
49.60974446076302 -0.036471553874833036 2.836833875321484
49.61138945423173 -0.039307429467466105 2.8230177729498056
49.610731147952364 -0.041022182947722176 2.8146808797077494
49.608770604716085 -0.04123733275828124 2.8096683338794834
49.60820888348853 -0.042543130919642506 2.807594986010492
49.60756260922453 -0.043710271078799615 2.8094513685792784
49.60684958934444 -0.044757846220170934 2.8150273476778027
49.60830045409183 -0.04890872243427908 2.821753301955237
49.60678345335643 -0.04955241403552268 2.835628123677796
49.60533045685431 -0.050182485668568706 2.851177889801163
49.60346902205995 -0.047943484641665604 2.8691825608607875
49.60253742999271 -0.04851574878142656 2.8897375593423273
49.60158868793884 -0.04902987088635477 2.9128545622516193
49.600616521256455 -0.04950770888216394 2.9384504854196836
49.59960421100598 -0.049964742545156975 2.9664479482078745
49.59907799119306 -0.04919921260408113 2.9990468070075935
49.59765405875856 -0.05121831007981187 3.0328443602939816
49.59623115029885 -0.052494065770203734 3.067973535935179
49.59479435283749 -0.05311428222569439 3.1040914645074116
49.59333534642061 -0.053158906146840205 3.1408374353046575
49.59157611556061 -0.052135014550681646 3.178715135931914
49.589807971977315 -0.052276156966385975 3.219874568564261
49.5879209023023 -0.052304659130486195 3.261989758719294
49.58593257395371 -0.0522033335114564 3.304660612538198
49.58386965444055 -0.05196093276606796 3.347398566840051
49.58176762616811 -0.05157537953894305 3.389625317371177
49.57966931461941 -0.05105600878060112 3.430687488249589
49.57762222697343 -0.05042413430178751 3.4698870341363612
49.57567518442727 -0.049711747726097745 3.50652183488928
49.57387492792624 -0.04895867828618368 3.539927824882054
49.57226332620096 -0.048208876860079915 3.569514194833631
49.57083774225294 0.0475960788246211 3.599989858153806
49.57248414777133 0.04835530934615173 3.570191434411269
49.574323866484534 0.04911778117399704 3.536546263941124
49.57631445307162 0.04983892977471855 3.4996499170576896
49.57840853258172 0.050478329942811026 3.4601719392695243
49.580556625128025 0.051003447722956896 3.418820312209403
49.5827105761528 0.05139250726024616 3.376298887181573
49.584826955368236 0.05163580368506337 3.3332663324814558
49.586869737135984 0.05173513230369934 3.290305340364648
49.5888117750889 0.051701530341177554 3.2479076990122486
49.59063497565702 0.05155202846731698 3.2064754565423472
49.59205474234503 0.052708997068905736 3.168364868057931
49.593738187860815 0.05252259337499589 3.1314855874602063
49.595353660675876 0.051795944433195726 3.0951180899288553
49.5968978563526 0.05045752455642042 3.0596058336453953
49.59837283097422 0.04842904587798062 3.025269955799749
49.59897396491496 0.049260228695687164 2.992738527830702
49.60003143735513 0.048771852884370664 2.96450086181422
49.60104601076458 0.04826013530330289 2.938659438932204
49.602034290275455 0.04770986248172262 2.915293765770885
49.60300262160991 0.047099179393639355 2.894495339240676
49.60466256524682 0.04924922794517945 2.8763031106785246
49.60613122636413 0.048596471411205704 2.8605667984897334
49.60765196884627 0.04792345745610818 2.846587518705413
49.606489636157605 0.04371378090169535 2.839745719387909
49.60720450868779 0.042600665827659256 2.8339524881234572
49.60783571899077 0.041372588757053255 2.831407026941483
49.60836918744578 0.04002668337388276 2.831858247604589
49.61009232383988 0.03981577401676242 2.8340785824700645
49.6107033820656 0.038163365598715644 2.838201917660306
49.609269832181305 0.035361778177244625 2.8471479141380573
49.60931801228423 0.03363373187401447 2.855925358938671
49.609237896588084 0.03183188410837381 2.866372313556768
49.61074370418753 0.030733550218660515 2.87808853823685
49.610237184001484 0.028859214233384087 2.8923820127243527
49.608287805853905 0.026022655960569283 2.907371840329418
49.607763782542754 0.023931041455094396 2.924701226161087
49.60712637425771 0.0217164778163633 2.9444980525364075
49.607641890044135 0.019392399445295052 2.967945068052487
49.606215240255665 0.01679216515057553 2.9930180051240294
49.60406393494971 0.014276524823047261 3.0189706691390974
49.602515599744244 0.011675196412496055 3.0486641641716687
49.606353699537955 0.011900352770245932 3.0753269558136545
49.601283758611935 0.007707943308585303 3.11196409590198
49.596269203460125 0.004100816652189217 3.152674263353706
49.59137862478467 0.0012781467268896782 3.1963667502822966
49.586830566684874 -0.0005283322933202265 3.239580133442904
49.58304174791366 -0.0011488502292725047 3.2760860066721214
49.58519390967955 0.0003915884167858349 3.3014104594392
49.58376067151395 0.00030166567022722117 3.3163400424341436
49.58378516427456 0.0001216344227523186 3.3165479473980124
49.58528739214645 0.0001284717260123347 3.302241696042834
49.5832544702781 0.0019151755191562372 3.278028023256757
49.58711154950955 0.0013667592229890558 3.2429785435421885
49.5917498890092 -0.0004187813535534438 3.2014818874798787
49.59673110579797 -0.0032837838743762296 3.159698678140953
49.60180846244636 -0.006986722891945409 3.1211522473529123
49.606899609036795 -0.01129924670374808 3.08698912613772
49.603191999475825 -0.011221394821241529 3.0619717333067387
49.604736390154734 -0.013898202115760955 3.034367674221558
49.607109172661204 -0.016488839157834948 3.0098741281909396
49.60857948454868 -0.01925497053566448 2.9850397668027147
49.60790466396486 -0.021810050551346053 2.960312114207479
49.60852385074403 -0.02427346739980623 2.9382435446942576
49.60898159742862 -0.026578375023644938 2.9179502368903902
49.61109152607307 -0.029547675445690407 2.900027950586071
49.611342342070536 -0.03163427444113425 2.8816323310417533
49.60974952479408 -0.03276516626717694 2.865696759283564
49.609807028694156 -0.03465876914154994 2.850594159852681
49.60974446076302 -0.036471553874833036 2.836833875321484
49.61138945423173 -0.039307429467466105 2.8230177729498056
49.610731147952364 -0.041022182947722176 2.8146808797077494
49.608770604716085 -0.04123733275828124 2.8096683338794834
49.60820888348853 -0.042543130919642506 2.807594986010492
49.60756260922453 -0.043710271078799615 2.8094513685792784
49.60684958934444 -0.044757846220170934 2.8150273476778027
49.60830045409183 -0.04890872243427908 2.821753301955237
49.60678345335643 -0.04955241403552268 2.835628123677796
49.60533045685431 -0.050182485668568706 2.851177889801163
49.60346902205995 -0.047943484641665604 2.8691825608607875
49.60253742999271 -0.04851574878142656 2.8897375593423273
49.60158868793884 -0.04902987088635477 2.9128545622516193
49.600616521256455 -0.04950770888216394 2.9384504854196836
49.59960421100598 -0.049964742545156975 2.9664479482078745
49.59907799119306 -0.04919921260408113 2.9990468070075935
49.59765405875856 -0.05121831007981187 3.0328443602939816
49.59623115029885 -0.052494065770203734 3.067973535935179
49.59479435283749 -0.05311428222569439 3.1040914645074116
49.59333534642061 -0.053158906146840205 3.1408374353046575
49.59157611556061 -0.052135014550681646 3.178715135931914
49.589807971977315 -0.052276156966385975 3.219874568564261
49.5879209023023 -0.052304659130486195 3.261989758719294
49.58593257395371 -0.0522033335114564 3.304660612538198
49.58386965444055 -0.05196093276606796 3.347398566840051
49.58176762616811 -0.05157537953894305 3.389625317371177
49.57966931461941 -0.05105600878060112 3.430687488249589
49.57762222697343 -0.05042413430178751 3.4698870341363612
49.57567518442727 -0.049711747726097745 3.50652183488928
49.57387492792624 -0.04895867828618368 3.539927824882054
49.57226332620096 -0.048208876860079915 3.569514194833631

VECTORS L float
-0.005498786066930636 0.0 0.07487921831490608
-0.009934402017181551 0.0 0.13528081442306536
-0.014689118951838163 0.0 0.2000277391155667
-0.019921532144675597 0.0 0.2712796490846641
-0.025665786737004346 0.0 0.34950151268145574
-0.031923735402256966 0.0 0.4347185585176266
-0.038682405158019864 0.0 0.5267541281870272
-0.045921818471111715 0.0 0.6253361794515577
-0.053616387476752056 0.0 0.7301162718936812
-0.06173657321302306 0.0 0.8406921613905463
-0.07024934622582311 0.0 0.9566140723599802
-0.07911927029060137 0.0 1.0773994552424795
-0.08830631163431428 0.0 1.202503153780789
-0.09776824062435226 0.0 1.3313501098000602
-0.1074626061065448 0.0 1.4633622485757698
-0.11734773538448608 0.0 1.5979720959610857
-0.1273846223632104 0.0 1.734648490011354
-0.13753860586151614 0.0 1.872919435249272
-0.14777523807835707 0.0 2.0123158418823617
-0.15806317662532976 0.0 2.1524109077919014
-0.168375837963001 0.0 2.292842634051478
-0.17869093461261168 0.0 2.4333075229495273
-0.1889901098575367 0.0 2.5735556035697447
-0.1992600247704301 0.0 2.713405234284202
-0.20949841551164705 0.0 2.8528255874627773
-0.21968672721157662 0.0 2.9915639938589327
-0.22981856683593252 0.0 3.129533396910694
-0.2398859559174634 0.0 3.2666251505671218
-0.24987790785489158 0.0 3.402689645786221
-0.25978912918832425 0.0 3.5376547993601473
-0.26961591703163285 0.0 3.6714701875743856
-0.2793348475532496 0.0 3.8038168385365254
-0.2889354157887202 0.0 3.9345517018501344
-0.2984036428099603 0.0 4.063484420735536
-0.3077282935750296 0.0 4.190462003032645
-0.31688351601031745 0.0 4.315132410484249
-0.3258508970695366 0.0 4.437244905110001
-0.3346051987159397 0.0 4.556455810243733
-0.34311522566121677 0.0 4.672340326888846
-0.35132472148164945 0.0 4.784132388320437
-0.3591706391111888 0.0 4.890973456860313
-0.3665959307707514 0.0 4.992086689573982
-0.3734906121239664 0.0 5.08597438478073
-0.37981814871201863 0.0 5.172139037816011
-0.3854351619924123 0.0 5.248628204439491
-0.39018593381630745 0.0 5.313321406945606
-0.39390493175153174 0.0 5.363964522519621
-0.3964608770533418 0.0 5.398769874814772
-0.3978260546724441 0.0 5.4173600566722095
-0.39710935784176654 0.0 5.407600502873119
-0.3971557544958286 0.0 5.40823230508297
-0.3979757833138856 0.0 5.41939897280643
-0.39672260653873426 0.0 5.402333952237971
-0.39428136668924163 0.0 5.369090590989833
-0.39067346534134867 0.0 5.319960323072659
-0.3860237694110563 0.0 5.256643512339444
-0.38049176990406297 0.0 5.181312013030301
-0.37422536421775665 0.0 5.095979804480384
-0.3673558359401071 0.0 5.002434628988649
-0.35991945244101703 0.0 4.901170354160705
-0.35201687745184884 0.0 4.793557759187694
-0.34370168687411246 0.0 4.680326409027545
-0.33504241853328587 0.0 4.562409611274757
-0.3261090463709118 0.0 4.440760229703508
-0.3169447346153336 0.0 4.315966049260907
-0.30758521102232117 0.0 4.188513589406274
-0.2980526562183606 0.0 4.058704892800079
-0.2883822862227359 0.0 3.927019510376665