# vtk DataFile Version 4.0
[MyVLM domain - lattices] 
ASCII
DATASET UNSTRUCTURED_GRID
POINTS 302 float
1.2444999999999997 -1.2445 0.0
1.2399745454545452 -1.2399745454545454 0.0
1.2346178849721705 -1.2346178849721707 0.0
1.2284300185528754 -1.2284300185528756 0.0
1.2214109461966602 -1.2214109461966605 0.0
1.2135606679035247 -1.213560667903525 0.0
1.2048791836734691 -1.2048791836734694 0.0
1.1953664935064932 -1.1953664935064934 0.0
1.1850225974025972 -1.1850225974025974 0.0
1.1738474953617808 -1.173847495361781 0.0
1.1618411873840442 -1.1618411873840444 0.0
1.1490036734693874 -1.1490036734693876 0.0
1.1353349536178106 -1.1353349536178108 0.0
1.1208350278293133 -1.1208350278293135 0.0
1.1055038961038959 -1.105503896103896 0.0
1.0893415584415582 -1.0893415584415584 0.0
1.0723480148423004 -1.0723480148423006 0.0
1.054523265306122 -1.0545232653061223 0.0
1.0358673098330238 -1.035867309833024 0.0
1.0163801484230053 -1.0163801484230055 0.0
0.9960617810760664 -0.9960617810760668 0.0
0.9749122077922076 -0.9749122077922077 0.0
0.9529314285714284 -0.9529314285714284 0.0
0.9301194434137288 -0.930119443413729 0.0
0.9064762523191091 -0.9064762523191096 0.0
0.8820018552875695 -0.8820018552875695 0.0
0.8566962523191093 -0.8566962523191094 0.0
0.8305594434137288 -0.8305594434137291 0.0
0.8035914285714284 -0.8035914285714285 0.0
0.7757922077922076 -0.7757922077922077 0.0
0.7471617810760666 -0.7471617810760667 0.0
0.7177001484230053 -0.7177001484230054 0.0
0.6874073098330239 -0.687407309833024 0.0
0.6562832653061222 -0.6562832653061225 0.0
0.6243280148423004 -0.6243280148423005 0.0
0.5915415584415582 -0.5915415584415583 0.0
0.5579238961038958 -0.5579238961038959 0.0
0.5234750278293133 -0.5234750278293134 0.0
0.48819495361781057 -0.48819495361781057 0.0
0.4520836734693877 -0.4520836734693877 0.0
0.4151411873840445 -0.4151411873840446 0.0
0.37736749536178105 -0.37736749536178116 0.0
0.3387625974025974 -0.3387625974025974 0.0
0.2993264935064933 -0.29932649350649343 0.0
0.25905918367346925 -0.25905918367346925 0.0
0.21796066790352486 -0.21796066790352486 0.0
0.17603094619666027 -0.1760309461966605 0.0
0.13327001855287546 -0.13327001855287568 0.0
0.08967788497217066 -0.08967788497217066 0.0
0.045254545454545436 -0.045254545454545436 0.0
0.0 0.0 0.0
0.04525454545454545 0.04525454545454546 0.0
0.08967788497217066 0.08967788497217068 0.0
0.13327001855287568 0.1332700185528757 0.0
0.17603094619666046 0.1760309461966605 0.0
0.21796066790352497 0.21796066790352508 0.0
0.2590591836734693 0.25905918367346936 0.0
0.29932649350649343 0.2993264935064935 0.0
0.3387625974025973 0.33876259740259734 0.0
0.37736749536178094 0.377367495361781 0.0
0.41514118738404443 0.4151411873840445 0.0
0.45208367346938766 0.4520836734693878 0.0
0.48819495361781057 0.4881949536178107 0.0
0.5234750278293133 0.5234750278293134 0.0
0.5579238961038959 0.557923896103896 0.0
0.5915415584415582 0.5915415584415583 0.0
0.6243280148423003 0.6243280148423004 0.0
0.6562832653061222 0.6562832653061225 0.0
0.687407309833024 0.6874073098330241 0.0
0.7177001484230054 0.7177001484230056 0.0
0.7471617810760667 0.7471617810760669 0.0
0.7757922077922076 0.7757922077922077 0.0
0.8035914285714284 0.8035914285714285 0.0
0.8305594434137288 0.830559443413729 0.0
0.8566962523191093 0.8566962523191094 0.0
0.8820018552875692 0.8820018552875695 0.0
0.9064762523191091 0.9064762523191093 0.0
0.9301194434137288 0.9301194434137292 0.0
0.9529314285714284 0.9529314285714284 0.0
0.9749122077922076 0.9749122077922077 0.0
0.9960617810760666 0.9960617810760668 0.0
1.0163801484230053 1.0163801484230055 0.0
1.0358673098330238 1.035867309833024 0.0
1.054523265306122 1.0545232653061223 0.0
1.0723480148423001 1.0723480148423004 0.0
1.0893415584415582 1.0893415584415584 0.0
1.1055038961038959 1.105503896103896 0.0
1.120835027829313 1.1208350278293133 0.0
1.1353349536178106 1.1353349536178106 0.0
1.1490036734693874 1.1490036734693876 0.0
1.1618411873840444 1.1618411873840446 0.0
1.1738474953617808 1.173847495361781 0.0
1.1850225974025972 1.1850225974025972 0.0
1.1953664935064932 1.1953664935064934 0.0
1.2048791836734691 1.2048791836734694 0.0
1.2135606679035245 1.2135606679035247 0.0
1.22141094619666 1.2214109461966602 0.0
1.2284300185528754 1.2284300185528756 0.0
1.2346178849721703 1.2346178849721705 0.0
1.2399745454545452 1.2399745454545454 0.0
1.2444999999999997 1.2445 0.0
1.7422999999999997 -1.2445 0.0
1.7377745454545452 -1.2399745454545454 0.0
1.7324178849721703 -1.2346178849721707 0.0
1.7262300185528754 -1.2284300185528756 0.0
1.7192109461966603 -1.2214109461966605 0.0
1.7113606679035245 -1.213560667903525 0.0
1.7026791836734692 -1.2048791836734694 0.0
1.6931664935064934 -1.1953664935064934 0.0
1.6828225974025972 -1.1850225974025974 0.0
1.6716474953617806 -1.173847495361781 0.0
1.6596411873840444 -1.1618411873840444 0.0
1.6468036734693878 -1.1490036734693876 0.0
1.6331349536178106 -1.1353349536178108 0.0
1.6186350278293133 -1.1208350278293135 0.0
1.603303896103896 -1.105503896103896 0.0
1.5871415584415582 -1.0893415584415584 0.0
1.5701480148423004 -1.0723480148423006 0.0
1.552323265306122 -1.0545232653061223 0.0
1.5336673098330238 -1.035867309833024 0.0
1.5141801484230053 -1.0163801484230055 0.0
1.4938617810760666 -0.9960617810760668 0.0
1.4727122077922075 -0.9749122077922077 0.0
1.4507314285714283 -0.9529314285714284 0.0
1.4279194434137288 -0.930119443413729 0.0
1.4042762523191092 -0.9064762523191096 0.0
1.3798018552875693 -0.8820018552875695 0.0
1.3544962523191093 -0.8566962523191094 0.0
1.328359443413729 -0.8305594434137291 0.0
1.3013914285714283 -0.8035914285714285 0.0
1.2735922077922077 -0.7757922077922077 0.0
1.2449617810760665 -0.7471617810760667 0.0
1.2155001484230055 -0.7177001484230054 0.0
1.1852073098330238 -0.687407309833024 0.0
1.1540832653061224 -0.6562832653061225 0.0
1.1221280148423003 -0.6243280148423005 0.0
1.0893415584415582 -0.5915415584415583 0.0
1.055723896103896 -0.5579238961038959 0.0
1.0212750278293132 -0.5234750278293134 0.0
0.9859949536178108 -0.48819495361781057 0.0
0.9498836734693876 -0.4520836734693877 0.0
0.9129411873840445 -0.4151411873840446 0.0
0.875167495361781 -0.37736749536178116 0.0
0.8365625974025973 -0.3387625974025974 0.0
0.7971264935064933 -0.29932649350649343 0.0
0.7568591836734693 -0.25905918367346925 0.0
0.7157606679035249 -0.21796066790352486 0.0
0.6738309461966603 -0.1760309461966605 0.0
0.6310700185528755 -0.13327001855287568 0.0
0.5874778849721707 -0.08967788497217066 0.0
0.5430545454545455 -0.045254545454545436 0.0
0.4978 0.0 0.0
0.5430545454545455 0.04525454545454546 0.0
0.5874778849721707 0.08967788497217068 0.0
0.6310700185528757 0.1332700185528757 0.0
0.6738309461966605 0.1760309461966605 0.0
0.715760667903525 0.21796066790352508 0.0
0.7568591836734693 0.25905918367346936 0.0
0.7971264935064934 0.2993264935064935 0.0
0.8365625974025973 0.33876259740259734 0.0
0.875167495361781 0.377367495361781 0.0
0.9129411873840445 0.4151411873840445 0.0
0.9498836734693876 0.4520836734693878 0.0
0.9859949536178105 0.4881949536178107 0.0
1.0212750278293132 0.5234750278293134 0.0
1.055723896103896 0.557923896103896 0.0
1.0893415584415582 0.5915415584415583 0.0
1.1221280148423003 0.6243280148423004 0.0
1.1540832653061224 0.6562832653061225 0.0
1.185207309833024 0.6874073098330241 0.0
1.2155001484230055 0.7177001484230056 0.0
1.2449617810760667 0.7471617810760669 0.0
1.2735922077922077 0.7757922077922077 0.0
1.3013914285714283 0.8035914285714285 0.0
1.3283594434137287 0.830559443413729 0.0
1.3544962523191093 0.8566962523191094 0.0
1.3798018552875693 0.8820018552875695 0.0
1.4042762523191092 0.9064762523191093 0.0
1.427919443413729 0.9301194434137292 0.0
1.4507314285714283 0.9529314285714284 0.0
1.4727122077922075 0.9749122077922077 0.0
1.4938617810760666 0.9960617810760668 0.0
1.5141801484230053 1.0163801484230055 0.0
1.5336673098330238 1.035867309833024 0.0
1.552323265306122 1.0545232653061223 0.0
1.5701480148423002 1.0723480148423004 0.0
1.5871415584415582 1.0893415584415584 0.0
1.603303896103896 1.105503896103896 0.0
1.6186350278293131 1.1208350278293133 0.0
1.6331349536178106 1.1353349536178106 0.0
1.6468036734693874 1.1490036734693876 0.0
1.6596411873840444 1.1618411873840446 0.0
1.6716474953617806 1.173847495361781 0.0
1.6828225974025972 1.1850225974025972 0.0
1.6931664935064934 1.1953664935064934 0.0
1.7026791836734692 1.2048791836734694 0.0
1.7113606679035245 1.2135606679035247 0.0
1.71921094619666 1.2214109461966602 0.0
1.7262300185528754 1.2284300185528756 0.0
1.7324178849721703 1.2346178849721705 0.0
1.7377745454545452 1.2399745454545454 0.0
1.7422999999999997 1.2445 0.0
1.6155872727272724 -1.2422372727272726 0.0
1.6106462152133578 -1.237296215213358 0.0
1.604873951762523 -1.2315239517625232 0.0
1.598270482374768 -1.224920482374768 0.0
1.5908358070500925 -1.2174858070500927 0.0
1.582569925788497 -1.2092199257884972 0.0
1.5734728385899812 -1.2001228385899814 0.0
1.5635445454545454 -1.1901945454545453 0.0
1.552785046382189 -1.1794350463821892 0.0
1.5411943413729126 -1.1678443413729127 0.0
1.5287724304267158 -1.155422430426716 0.0
1.5155193135435991 -1.142169313543599 0.0
1.501434990723562 -1.1280849907235622 0.0
1.4865194619666047 -1.1131694619666048 0.0
1.4707727272727271 -1.0974227272727273 0.0
1.4541947866419294 -1.0808447866419293 0.0
1.4367856400742112 -1.0634356400742113 0.0
1.418545287569573 -1.0451952875695731 0.0
1.3994737291280146 -1.0261237291280147 0.0
1.379570964749536 -1.0062209647495362 0.0
1.358836994434137 -0.9854869944341371 0.0
1.337271818181818 -0.9639218181818181 0.0
1.3148754359925787 -0.9415254359925787 0.0
1.291647847866419 -0.9182978478664192 0.0
1.2675890538033394 -0.8942390538033393 0.0
1.2426990538033393 -0.8693490538033395 0.0
1.2169778478664193 -0.8436278478664192 0.0
1.1904254359925788 -0.8170754359925788 0.0
1.163041818181818 -0.7896918181818181 0.0
1.1348269944341371 -0.7614769944341371 0.0
1.105780964749536 -0.7324309647495362 0.0
1.0759037291280147 -0.7025537291280148 0.0
1.0451952875695731 -0.6718452875695733 0.0
1.0136556400742114 -0.6403056400742114 0.0
0.9812847866419293 -0.6079347866419293 0.0
0.9480827272727271 -0.5747327272727272 0.0
0.9140494619666047 -0.5406994619666048 0.0
0.8791849907235622 -0.5058349907235622 0.0
0.8434893135435992 -0.47013931354359917 0.0
0.8069624304267162 -0.43361243042671627 0.0
0.7696043413729128 -0.3962543413729128 0.0
0.7314150463821893 -0.3580650463821894 0.0
0.6923945454545455 -0.3190445454545454 0.0
0.6525428385899814 -0.27919283858998134 0.0
0.6118599257884971 -0.23850992578849706 0.0
0.5703458070500929 -0.19699580705009279 0.0
0.5280004823747682 -0.15465048237476808 0.0
0.4848239517625232 -0.11147395176252317 0.0
0.4408162152133581 -0.06746621521335805 0.0
0.39597727272727273 -0.022627272727272718 0.0
0.39597727272727273 0.02262727272727273 0.0
0.4408162152133581 0.06746621521335806 0.0
0.4848239517625232 0.11147395176252319 0.0
0.528000482374768 0.15465048237476808 0.0
0.5703458070500929 0.19699580705009276 0.0
0.6118599257884971 0.23850992578849717 0.0
0.6525428385899814 0.2791928385899814 0.0
0.6923945454545455 0.3190445454545454 0.0
0.7314150463821891 0.3580650463821891 0.0
0.7696043413729128 0.39625434137291277 0.0
0.8069624304267162 0.43361243042671616 0.0
0.8434893135435992 0.4701393135435992 0.0
0.8791849907235619 0.5058349907235621 0.0
0.9140494619666046 0.5406994619666047 0.0
0.9480827272727271 0.5747327272727272 0.0
0.9812847866419294 0.6079347866419295 0.0
1.0136556400742114 0.6403056400742114 0.0
1.0451952875695731 0.6718452875695732 0.0
1.0759037291280147 0.7025537291280147 0.0
1.105780964749536 0.7324309647495362 0.0
1.1348269944341371 0.7614769944341373 0.0
1.163041818181818 0.789691818181818 0.0
1.1904254359925786 0.8170754359925786 0.0
1.216977847866419 0.843627847866419 0.0
1.2426990538033393 0.8693490538033394 0.0
1.2675890538033392 0.8942390538033393 0.0
1.291647847866419 0.9182978478664192 0.0
1.3148754359925787 0.9415254359925787 0.0
1.3372718181818182 0.9639218181818181 0.0
1.3588369944341372 0.9854869944341373 0.0
1.379570964749536 1.0062209647495362 0.0
1.3994737291280148 1.0261237291280147 0.0
1.418545287569573 1.0451952875695731 0.0
1.4367856400742112 1.0634356400742113 0.0
1.4541947866419291 1.0808447866419293 0.0
1.470772727272727 1.097422727272727 0.0
1.4865194619666047 1.1131694619666048 0.0
1.501434990723562 1.128084990723562 0.0
1.5155193135435991 1.1421693135435993 0.0
1.528772430426716 1.1554224304267162 0.0
1.5411943413729128 1.1678443413729127 0.0
1.5527850463821888 1.179435046382189 0.0
1.5635445454545451 1.1901945454545453 0.0
1.573472838589981 1.2001228385899811 0.0
1.5825699257884969 1.209219925788497 0.0
1.5908358070500925 1.2174858070500927 0.0
1.5982704823747678 1.224920482374768 0.0
1.604873951762523 1.2315239517625232 0.0
1.6106462152133578 1.237296215213358 0.0
1.6155872727272724 1.2422372727272726 0.0

CELLS 200 700
4 0 101 102 1
4 1 102 103 2
4 2 103 104 3
4 3 104 105 4
4 4 105 106 5
4 5 106 107 6
4 6 107 108 7
4 7 108 109 8
4 8 109 110 9
4 9 110 111 10
4 10 111 112 11
4 11 112 113 12
4 12 113 114 13
4 13 114 115 14
4 14 115 116 15
4 15 116 117 16
4 16 117 118 17
4 17 118 119 18
4 18 119 120 19
4 19 120 121 20
4 20 121 122 21
4 21 122 123 22
4 22 123 124 23
4 23 124 125 24
4 24 125 126 25
4 25 126 127 26
4 26 127 128 27
4 27 128 129 28
4 28 129 130 29
4 29 130 131 30
4 30 131 132 31
4 31 132 133 32
4 32 133 134 33
4 33 134 135 34
4 34 135 136 35
4 35 136 137 36
4 36 137 138 37
4 37 138 139 38
4 38 139 140 39
4 39 140 141 40
4 40 141 142 41
4 41 142 143 42
4 42 143 144 43
4 43 144 145 44
4 44 145 146 45
4 45 146 147 46
4 46 147 148 47
4 47 148 149 48
4 48 149 150 49
4 49 150 151 50
4 50 151 152 51
4 51 152 153 52
4 52 153 154 53
4 53 154 155 54
4 54 155 156 55
4 55 156 157 56
4 56 157 158 57
4 57 158 159 58
4 58 159 160 59
4 59 160 161 60
4 60 161 162 61
4 61 162 163 62
4 62 163 164 63
4 63 164 165 64
4 64 165 166 65
4 65 166 167 66
4 66 167 168 67
4 67 168 169 68
4 68 169 170 69
4 69 170 171 70
4 70 171 172 71
4 71 172 173 72
4 72 173 174 73
4 73 174 175 74
4 74 175 176 75
4 75 176 177 76
4 76 177 178 77
4 77 178 179 78
4 78 179 180 79
4 79 180 181 80
4 80 181 182 81
4 81 182 183 82
4 82 183 184 83
4 83 184 185 84
4 84 185 186 85
4 85 186 187 86
4 86 187 188 87
4 87 188 189 88
4 88 189 190 89
4 89 190 191 90
4 90 191 192 91
4 91 192 193 92
4 92 193 194 93
4 93 194 195 94
4 94 195 196 95
4 95 196 197 96
4 96 197 198 97
4 97 198 199 98
4 98 199 200 99
4 99 200 201 100
1 202
1 203
1 204
1 205
1 206
1 207
1 208
1 209
1 210
1 211
1 212
1 213
1 214
1 215
1 216
1 217
1 218
1 219
1 220
1 221
1 222
1 223
1 224
1 225
1 226
1 227
1 228
1 229
1 230
1 231
1 232
1 233
1 234
1 235
1 236
1 237
1 238
1 239
1 240
1 241
1 242
1 243
1 244
1 245
1 246
1 247
1 248
1 249
1 250
1 251
1 252
1 253
1 254
1 255
1 256
1 257
1 258
1 259
1 260
1 261
1 262
1 263
1 264
1 265
1 266
1 267
1 268
1 269
1 270
1 271
1 272
1 273
1 274
1 275
1 276
1 277
1 278
1 279
1 280
1 281
1 282
1 283
1 284
1 285
1 286
1 287
1 288
1 289
1 290
1 291
1 292
1 293
1 294
1 295
1 296
1 297
1 298
1 299
1 300
1 301

CELL_TYPES 200
9
9
9
9
9
9
9
9
9
9
9
9
9
9
9
9
9
9
9
9
9
9
9
9
9
9
9
9
9
9
9
9
9
9
9
9
9
9
9
9
9
9
9
9
9
9
9
9
9
9
9
9
9
9
9
9
9
9
9
9
9
9
9
9
9
9
9
9
9
9
9
9
9
9
9
9
9
9
9
9
9
9
9
9
9
9
9
9
9
9
9
9
9
9
9
9
9
9
9
9
1
1
1
1
1
1
1
1
1
1
1
1
1
1
1
1
1
1
1
1
1
1
1
1
1
1
1
1
1
1
1
1
1
1
1
1
1
1
1
1
1
1
1
1
1
1
1
1
1
1
1
1
1
1
1
1
1
1
1
1
1
1
1
1
1
1
1
1
1
1
1
1
1
1
1
1
1
1
1
1
1
1
1
1
1
1
1
1
1
1
1
1
1
1
1
1
1
1
1
1

CELL_DATA 200

VECTORS Vinf float
49.53106630149874 0.03115746517058871 4.295494166153833
49.53354695944265 0.03209833286471939 4.2605416984997415
49.536322326887834 0.03303054465764436 4.22112869836862
49.53933164801667 0.033893653467016935 4.177982997324528
49.542507464191395 0.034632033288557636 4.131924145657665
49.54577935589933 0.03519965403548979 4.083819907911127
49.549078401010256 0.03556374839896542 4.034533791382772
49.55234152157954 0.035706551736446476 3.9848739798169817
49.55551484304588 0.03562472809136527 3.9355543523937064
49.558555457121884 0.035326751774868395 3.887174498443249
49.5614314786548 0.03482912745443556 3.8402191273669577
49.564120800751425 0.03415260793647439 3.7950710762194815
49.56660925413881 0.03331937109648784 3.752029228071716
49.56853229083752 0.033883643013575264 3.715563927100511
49.57068521530292 0.031817876538468744 3.675666300427308
49.5728141892037 0.030099533891475846 3.6375567716292942
49.574467327830575 0.028858984131709883 3.604678947627915
49.57592639006609 0.027570859272834543 3.5745113731862905
49.57720552388323 0.026254974185120534 3.5470278072535706
49.57832129043158 0.02492781243518343 3.5221654531657034
49.579290369201736 0.023601292938094806 3.4998335338441064
49.58012710795222 0.022282876482480243 3.4799211230713807
49.58084207493325 0.020977388948367405 3.462302482303282
49.581223920817244 0.019792872699689965 3.4496300334215526
49.581935207797585 0.018427790127346775 3.4333874528678416
49.58232887290688 0.017200753927699618 3.4217971228387323
49.582636215603706 0.01601736741437051 3.41193322510084
49.5828716280803 0.014881057614630471 3.4036876296117957
49.583047221524744 0.013788343187366991 3.3969891342187233
49.58317013916414 0.012731248256825064 3.3917991265972347
49.583108513039114 0.010924872976741704 3.3884620521619007
49.58326926030073 0.0106942127754243 3.38586567153667
49.58325172225454 0.009704943533243327 3.385075483402528
49.583197028240306 0.008728923516747485 3.38567006086556
49.58311006642559 0.00775696675605519 3.3875615233021845
49.58298740454183 0.006775332717519963 3.3906601076506018
49.58274921460766 0.005559252539940074 3.3952308428001796
49.5829358646894 0.0064493401430683085 3.40262009619569
49.582626161892534 0.0048956280529364096 3.4079188754338556
49.582176623279764 0.0035594538623953567 3.4154120493770135
49.58156751720624 0.002460610800911187 3.4256355726936225
49.58032158949758 0.000544354718878664 3.4406256292202335
49.57940086241835 -0.0003611645044268974 3.456912077070627
49.578169311397744 -0.0012896898406599949 3.4778601369074456
49.57667056711794 -0.0020684274515224517 3.5033283191277307
49.57494415737606 -0.00257070224159444 3.532240047175346
49.57314927520746 -0.0025385271430706726 3.560779631584795
49.57224002432864 -0.0017268330770992537 3.5793899328652343
49.57166496998787 -0.0008609330126074635 3.5845091900967594
49.57180752586887 -0.00010548229391106978 3.578438945253448
49.57171193807983 0.0002344124339026701 3.577997277546332
49.57144175334205 0.0010397806349127638 3.5845770550375624
49.571861693774785 0.0020408101057880815 3.5801354101432157
49.57310666219371 0.0026100871817575375 3.561380110983042
49.57491321890174 0.002675171138694858 3.5329031254290766
49.576668130563235 0.0021896434714104387 3.5039366835561
49.57819148624713 0.0014144417444522058 3.4783282957000927
49.57943839905732 0.0004941679804108304 3.457180331636899
49.58038266637576 -0.0003978160120118561 3.44067919081286
49.58167072498352 -0.0023159438639920684 3.4255084384532517
49.58231790683681 -0.003444582940031031 3.41517673825064
49.58277963639273 -0.004823231902296116 3.4076453746053494
49.58307617597055 -0.0064116134342716395 3.4023532722555454
49.58286556762559 -0.005541864098328842 3.3949862635371097
49.583082741050355 -0.006766921006813724 3.3904348519918206
49.583188402265236 -0.007752274441761798 3.387351858802367
49.583262921188016 -0.008724998140667519 3.3854714754196937
49.5833086708595 -0.00970036567148943 3.384884746127576
49.583319812801676 -0.010688327567482777 3.3856805370456753
49.58315423230106 -0.010918575006182386 3.3882808134106606
49.58321297814512 -0.012722103643644945 3.3916208480971997
49.583087943903436 -0.013777538482157375 3.396812730081367
49.582911069678055 -0.014868678999565114 3.403512149657663
49.58267505558223 -0.016003568087428626 3.411757606927625
49.58236765975976 -0.017185755432032792 3.4216201724236774
49.581974362743104 -0.018411874879690475 3.433207924609207
49.58126304748994 -0.019776707785665804 3.4494470724257997
49.580882711262916 -0.02096060381999109 3.462114452227808
49.5801686227627 -0.022266111339374315 3.4797275649580266
49.57933273828225 -0.023584788339579443 3.4996338806488994
49.578364440299616 -0.024911748167801614 3.5219593063455363
49.5772493577939 -0.02623947243093583 3.5468148862731788
49.57597080628396 -0.02755599361062199 3.5742914708647486
49.57451223045753 -0.028844789621665937 3.6044518970758648
49.57285949358643 -0.030086015576453875 3.6373224259216523
49.57073071391162 -0.03180478424099605 3.6754208185255566
49.568578068890126 -0.03387091863065084 3.7153126342152976
49.56665539523691 -0.0333076987249058 3.75177223101786
49.564167147068794 -0.03414144305620477 3.794806331438839
49.5614780176112 -0.03481840574407327 3.839946586061789
49.55860218886644 -0.035316411038196764 3.8868941555995162
49.555561777738525 -0.03561471284207796 3.935266255323129
49.552388675779405 -0.035696816018951395 3.9845782360976596
49.54912579365315 -0.03555425657418377 4.03423057634072
49.54582700442354 -0.03519037977668623 4.083509471422514
49.54255538128208 -0.03462295737613284 4.131606817553662
49.53937983925519 -0.0338847610738558 4.17765919040904
49.53637078939263 -0.033021822721505015 4.220798908211464
49.533595681425915 -0.032089767944466434 4.260206499679578
49.531115262563695 -0.031149041967942506 4.295154205256596
49.53106630149874 0.03115746517058871 4.295494166153833
49.53354695944265 0.03209833286471939 4.2605416984997415
49.536322326887834 0.03303054465764436 4.22112869836862
49.53933164801667 0.033893653467016935 4.177982997324528
49.542507464191395 0.034632033288557636 4.131924145657665
49.54577935589933 0.03519965403548979 4.083819907911127
49.549078401010256 0.03556374839896542 4.034533791382772
49.55234152157954 0.035706551736446476 3.9848739798169817
49.55551484304588 0.03562472809136527 3.9355543523937064
49.558555457121884 0.035326751774868395 3.887174498443249
49.5614314786548 0.03482912745443556 3.8402191273669577
49.564120800751425 0.03415260793647439 3.7950710762194815
49.56660925413881 0.03331937109648784 3.752029228071716
49.56853229083752 0.033883643013575264 3.715563927100511
49.57068521530292 0.031817876538468744 3.675666300427308
49.5728141892037 0.030099533891475846 3.6375567716292942
49.574467327830575 0.028858984131709883 3.604678947627915
49.57592639006609 0.027570859272834543 3.5745113731862905
49.57720552388323 0.026254974185120534 3.5470278072535706
49.57832129043158 0.02492781243518343 3.5221654531657034
49.579290369201736 0.023601292938094806 3.4998335338441064
49.58012710795222 0.022282876482480243 3.4799211230713807
49.58084207493325 0.020977388948367405 3.462302482303282
49.581223920817244 0.019792872699689965 3.4496300334215526
49.581935207797585 0.018427790127346775 3.4333874528678416
49.58232887290688 0.017200753927699618 3.4217971228387323
49.582636215603706 0.01601736741437051 3.41193322510084
49.5828716280803 0.014881057614630471 3.4036876296117957
49.583047221524744 0.013788343187366991 3.3969891342187233
49.58317013916414 0.012731248256825064 3.3917991265972347
49.583108513039114 0.010924872976741704 3.3884620521619007
49.58326926030073 0.0106942127754243 3.38586567153667
49.58325172225454 0.009704943533243327 3.385075483402528
49.583197028240306 0.008728923516747485 3.38567006086556
49.58311006642559 0.00775696675605519 3.3875615233021845
49.58298740454183 0.006775332717519963 3.3906601076506018
49.58274921460766 0.005559252539940074 3.3952308428001796
49.5829358646894 0.0064493401430683085 3.40262009619569
49.582626161892534 0.0048956280529364096 3.4079188754338556
49.582176623279764 0.0035594538623953567 3.4154120493770135
49.58156751720624 0.002460610800911187 3.4256355726936225
49.58032158949758 0.000544354718878664 3.4406256292202335
49.57940086241835 -0.0003611645044268974 3.456912077070627
49.578169311397744 -0.0012896898406599949 3.4778601369074456
49.57667056711794 -0.0020684274515224517 3.5033283191277307
49.57494415737606 -0.00257070224159444 3.532240047175346
49.57314927520746 -0.0025385271430706726 3.560779631584795
49.57224002432864 -0.0017268330770992537 3.5793899328652343
49.57166496998787 -0.0008609330126074635 3.5845091900967594
49.57180752586887 -0.00010548229391106978 3.578438945253448
49.57171193807983 0.0002344124339026701 3.577997277546332
49.57144175334205 0.0010397806349127638 3.5845770550375624
49.571861693774785 0.0020408101057880815 3.5801354101432157
49.57310666219371 0.0026100871817575375 3.561380110983042
49.57491321890174 0.002675171138694858 3.5329031254290766
49.576668130563235 0.0021896434714104387 3.5039366835561
49.57819148624713 0.0014144417444522058 3.4783282957000927
49.57943839905732 0.0004941679804108304 3.457180331636899
49.58038266637576 -0.0003978160120118561 3.44067919081286
49.58167072498352 -0.0023159438639920684 3.4255084384532517
49.58231790683681 -0.003444582940031031 3.41517673825064
49.58277963639273 -0.004823231902296116 3.4076453746053494
49.58307617597055 -0.0064116134342716395 3.4023532722555454
49.58286556762559 -0.005541864098328842 3.3949862635371097
49.583082741050355 -0.006766921006813724 3.3904348519918206
49.583188402265236 -0.007752274441761798 3.387351858802367
49.583262921188016 -0.008724998140667519 3.3854714754196937
49.5833086708595 -0.00970036567148943 3.384884746127576
49.583319812801676 -0.010688327567482777 3.3856805370456753
49.58315423230106 -0.010918575006182386 3.3882808134106606
49.58321297814512 -0.012722103643644945 3.3916208480971997
49.583087943903436 -0.013777538482157375 3.396812730081367
49.582911069678055 -0.014868678999565114 3.403512149657663
49.58267505558223 -0.016003568087428626 3.411757606927625
49.58236765975976 -0.017185755432032792 3.4216201724236774
49.581974362743104 -0.018411874879690475 3.433207924609207
49.58126304748994 -0.019776707785665804 3.4494470724257997
49.580882711262916 -0.02096060381999109 3.462114452227808
49.5801686227627 -0.022266111339374315 3.4797275649580266
49.57933273828225 -0.023584788339579443 3.4996338806488994
49.578364440299616 -0.024911748167801614 3.5219593063455363
49.5772493577939 -0.02623947243093583 3.5468148862731788
49.57597080628396 -0.02755599361062199 3.5742914708647486
49.57451223045753 -0.028844789621665937 3.6044518970758648
49.57285949358643 -0.030086015576453875 3.6373224259216523
49.57073071391162 -0.03180478424099605 3.6754208185255566
49.568578068890126 -0.03387091863065084 3.7153126342152976
49.56665539523691 -0.0333076987249058 3.75177223101786
49.564167147068794 -0.03414144305620477 3.794806331438839
49.5614780176112 -0.03481840574407327 3.839946586061789
49.55860218886644 -0.035316411038196764 3.8868941555995162
49.555561777738525 -0.03561471284207796 3.935266255323129
49.552388675779405 -0.035696816018951395 3.9845782360976596
49.54912579365315 -0.03555425657418377 4.03423057634072
49.54582700442354 -0.03519037977668623 4.083509471422514
49.54255538128208 -0.03462295737613284 4.131606817553662
49.53937983925519 -0.0338847610738558 4.17765919040904
49.53637078939263 -0.033021822721505015 4.220798908211464
49.533595681425915 -0.032089767944466434 4.260206499679578
49.531115262563695 -0.031149041967942506 4.295154205256596

VECTORS L float
-0.00663533140772249 0.0 0.09035602095135535
-0.011971908300228096 0.0 0.16302637061114167
-0.01769012160705448 0.0 0.24089361937502327
-0.023982090100304738 0.0 0.32657392711967076
-0.03088989482465082 0.0 0.4206403286372286
-0.038415280174487275 0.0 0.5231165780594464
-0.046543393578088364 0.0 0.6338004218439509
-0.0552501775774659 0.0 0.7523642597482754
-0.0645051930202689 0.0 0.8783935893883541
-0.07427288067276112 0.0 1.0114041861383083
-0.08451326518252847 0.0 1.1508516892784817
-0.09518253574071386 0.0 1.2961395091105243
-0.10623382258383754 0.0 1.446629400900189
-0.1176192316533856 0.0 1.601669171668917
-0.12927867933990797 0.0 1.760440638338771
-0.1411621234857009 0.0 1.9222623563861712
-0.15322260797561352 0.0 2.0864949051908557
-0.1654103992931536 0.0 2.2524610431228247
-0.17767793762116194 0.0 2.4195131287047174
-0.18998141333929452 0.0 2.5870545884226517
-0.20228079329925047 0.0 2.754540274526748
-0.2145399391527403 0.0 2.921478076351457
-0.22672681154569335 0.0 3.0874317009115786
-0.2388151634390912 0.0 3.2520437315444415
-0.2507653920826706 0.0 3.414774881406234
-0.2625678321937185 0.0 3.5754935343901395
-0.2741976323635768 0.0 3.7338612787027747
-0.28563852301876647 0.0 3.8896565649094823
-0.29687532120963284 0.0 4.042672640576541
-0.30789412289091356 0.0 4.192720168634279
-0.3187032984727912 0.0 4.339913132380795
-0.3292380172940579 0.0 4.483368706193307
-0.33951251635363566 0.0 4.623280761107614
-0.3495103705618988 0.0 4.759425629962098
-0.35921255645893596 0.0 4.891544262524497
-0.3685973346935132 0.0 5.019340625159884
-0.3776408068272143 0.0 5.14248928306033
-0.38631339367065815 0.0 5.260587444309164
-0.39456684029800665 0.0 5.3729780018499165
-0.40237525178563815 0.0 5.479308333919253
-0.4096641424975226 0.0 5.578564139154342
-0.4164430192290467 0.0 5.6708748754752705
-0.4225903979600636 0.0 5.754586245305151
-0.4280413008796902 0.0 5.828813419223906
-0.43269148157354587 0.0 5.892136831180781
-0.43641514779644003 0.0 5.942843516736848
-0.4390768301554175 0.0 5.979088733775098
-0.44057243712755173 0.0 5.999455025465047
-0.440947746465407 0.0 6.004565766181784
-0.43915121309280586 0.0 5.980101636648534
-0.43914396736272976 0.0 5.980002968579326
-0.4409513291566021 0.0 6.0046145531527415
-0.44058786902092456 0.0 5.999665167867172
-0.43909565915255405 0.0 5.979345135928242
-0.4364355322552305 0.0 5.943121100247358
-0.4327100856596814 0.0 5.892390170628858
-0.42805512196950773 0.0 5.829001626655363
-0.4225972798243239 0.0 5.754679958464763
-0.4164420090007394 0.0 5.67086111878333
-0.4096623353519408 0.0 5.578539530514017
-0.4023688438625671 0.0 5.479221074610609
-0.3945571921091273 0.0 5.372846618516823
-0.3863016541631092 0.0 5.260427582634611
-0.3776277760223658 0.0 5.14231183726244
-0.36858351493932656 0.0 5.019152435916259
-0.35919828384882413 0.0 4.891349906556565
-0.3494958690125139 0.0 4.759228156434472