# vtk DataFile Version 4.0
[MyVLM domain - lattices] 
ASCII
DATASET UNSTRUCTURED_GRID
POINTS 302 float
1.2444999999999997 -1.2445 0.0
1.2399745454545452 -1.2399745454545454 0.0
1.2346178849721705 -1.2346178849721707 0.0
1.2284300185528754 -1.2284300185528756 0.0
1.2214109461966602 -1.2214109461966605 0.0
1.2135606679035247 -1.213560667903525 0.0
1.2048791836734691 -1.2048791836734694 0.0
1.1953664935064932 -1.1953664935064934 0.0
1.1850225974025972 -1.1850225974025974 0.0
1.1738474953617808 -1.173847495361781 0.0
1.1618411873840442 -1.1618411873840444 0.0
1.1490036734693874 -1.1490036734693876 0.0
1.1353349536178106 -1.1353349536178108 0.0
1.1208350278293133 -1.1208350278293135 0.0
1.1055038961038959 -1.105503896103896 0.0
1.0893415584415582 -1.0893415584415584 0.0
1.0723480148423004 -1.0723480148423006 0.0
1.054523265306122 -1.0545232653061223 0.0
1.0358673098330238 -1.035867309833024 0.0
1.0163801484230053 -1.0163801484230055 0.0
0.9960617810760664 -0.9960617810760668 0.0
0.9749122077922076 -0.9749122077922077 0.0
0.9529314285714284 -0.9529314285714284 0.0
0.9301194434137288 -0.930119443413729 0.0
0.9064762523191091 -0.9064762523191096 0.0
0.8820018552875695 -0.8820018552875695 0.0
0.8566962523191093 -0.8566962523191094 0.0
0.8305594434137288 -0.8305594434137291 0.0
0.8035914285714284 -0.8035914285714285 0.0
0.7757922077922076 -0.7757922077922077 0.0
0.7471617810760666 -0.7471617810760667 0.0
0.7177001484230053 -0.7177001484230054 0.0
0.6874073098330239 -0.687407309833024 0.0
0.6562832653061222 -0.6562832653061225 0.0
0.6243280148423004 -0.6243280148423005 0.0
0.5915415584415582 -0.5915415584415583 0.0
0.5579238961038958 -0.5579238961038959 0.0
0.5234750278293133 -0.5234750278293134 0.0
0.48819495361781057 -0.48819495361781057 0.0
0.4520836734693877 -0.4520836734693877 0.0
0.4151411873840445 -0.4151411873840446 0.0
0.37736749536178105 -0.37736749536178116 0.0
0.3387625974025974 -0.3387625974025974 0.0
0.2993264935064933 -0.29932649350649343 0.0
0.25905918367346925 -0.25905918367346925 0.0
0.21796066790352486 -0.21796066790352486 0.0
0.17603094619666027 -0.1760309461966605 0.0
0.13327001855287546 -0.13327001855287568 0.0
0.08967788497217066 -0.08967788497217066 0.0
0.045254545454545436 -0.045254545454545436 0.0
0.0 0.0 0.0
0.04525454545454545 0.04525454545454546 0.0
0.08967788497217066 0.08967788497217068 0.0
0.13327001855287568 0.1332700185528757 0.0
0.17603094619666046 0.1760309461966605 0.0
0.21796066790352497 0.21796066790352508 0.0
0.2590591836734693 0.25905918367346936 0.0
0.29932649350649343 0.2993264935064935 0.0
0.3387625974025973 0.33876259740259734 0.0
0.37736749536178094 0.377367495361781 0.0
0.41514118738404443 0.4151411873840445 0.0
0.45208367346938766 0.4520836734693878 0.0
0.48819495361781057 0.4881949536178107 0.0
0.5234750278293133 0.5234750278293134 0.0
0.5579238961038959 0.557923896103896 0.0
0.5915415584415582 0.5915415584415583 0.0
0.6243280148423003 0.6243280148423004 0.0
0.6562832653061222 0.6562832653061225 0.0
0.687407309833024 0.6874073098330241 0.0
0.7177001484230054 0.7177001484230056 0.0
0.7471617810760667 0.7471617810760669 0.0
0.7757922077922076 0.7757922077922077 0.0
0.8035914285714284 0.8035914285714285 0.0
0.8305594434137288 0.830559443413729 0.0
0.8566962523191093 0.8566962523191094 0.0
0.8820018552875692 0.8820018552875695 0.0
0.9064762523191091 0.9064762523191093 0.0
0.9301194434137288 0.9301194434137292 0.0
0.9529314285714284 0.9529314285714284 0.0
0.9749122077922076 0.9749122077922077 0.0
0.9960617810760666 0.9960617810760668 0.0
1.0163801484230053 1.0163801484230055 0.0
1.0358673098330238 1.035867309833024 0.0
1.054523265306122 1.0545232653061223 0.0
1.0723480148423001 1.0723480148423004 0.0
1.0893415584415582 1.0893415584415584 0.0
1.1055038961038959 1.105503896103896 0.0
1.120835027829313 1.1208350278293133 0.0
1.1353349536178106 1.1353349536178106 0.0
1.1490036734693874 1.1490036734693876 0.0
1.1618411873840444 1.1618411873840446 0.0
1.1738474953617808 1.173847495361781 0.0
1.1850225974025972 1.1850225974025972 0.0
1.1953664935064932 1.1953664935064934 0.0
1.2048791836734691 1.2048791836734694 0.0
1.2135606679035245 1.2135606679035247 0.0
1.22141094619666 1.2214109461966602 0.0
1.2284300185528754 1.2284300185528756 0.0
1.2346178849721703 1.2346178849721705 0.0
1.2399745454545452 1.2399745454545454 0.0
1.2444999999999997 1.2445 0.0
1.7422999999999997 -1.2445 0.0
1.7377745454545452 -1.2399745454545454 0.0
1.7324178849721703 -1.2346178849721707 0.0
1.7262300185528754 -1.2284300185528756 0.0
1.7192109461966603 -1.2214109461966605 0.0
1.7113606679035245 -1.213560667903525 0.0
1.7026791836734692 -1.2048791836734694 0.0
1.6931664935064934 -1.1953664935064934 0.0
1.6828225974025972 -1.1850225974025974 0.0
1.6716474953617806 -1.173847495361781 0.0
1.6596411873840444 -1.1618411873840444 0.0
1.6468036734693878 -1.1490036734693876 0.0
1.6331349536178106 -1.1353349536178108 0.0
1.6186350278293133 -1.1208350278293135 0.0
1.603303896103896 -1.105503896103896 0.0
1.5871415584415582 -1.0893415584415584 0.0
1.5701480148423004 -1.0723480148423006 0.0
1.552323265306122 -1.0545232653061223 0.0
1.5336673098330238 -1.035867309833024 0.0
1.5141801484230053 -1.0163801484230055 0.0
1.4938617810760666 -0.9960617810760668 0.0
1.4727122077922075 -0.9749122077922077 0.0
1.4507314285714283 -0.9529314285714284 0.0
1.4279194434137288 -0.930119443413729 0.0
1.4042762523191092 -0.9064762523191096 0.0
1.3798018552875693 -0.8820018552875695 0.0
1.3544962523191093 -0.8566962523191094 0.0
1.328359443413729 -0.8305594434137291 0.0
1.3013914285714283 -0.8035914285714285 0.0
1.2735922077922077 -0.7757922077922077 0.0
1.2449617810760665 -0.7471617810760667 0.0
1.2155001484230055 -0.7177001484230054 0.0
1.1852073098330238 -0.687407309833024 0.0
1.1540832653061224 -0.6562832653061225 0.0
1.1221280148423003 -0.6243280148423005 0.0
1.0893415584415582 -0.5915415584415583 0.0
1.055723896103896 -0.5579238961038959 0.0
1.0212750278293132 -0.5234750278293134 0.0
0.9859949536178108 -0.48819495361781057 0.0
0.9498836734693876 -0.4520836734693877 0.0
0.9129411873840445 -0.4151411873840446 0.0
0.875167495361781 -0.37736749536178116 0.0
0.8365625974025973 -0.3387625974025974 0.0
0.7971264935064933 -0.29932649350649343 0.0
0.7568591836734693 -0.25905918367346925 0.0
0.7157606679035249 -0.21796066790352486 0.0
0.6738309461966603 -0.1760309461966605 0.0
0.6310700185528755 -0.13327001855287568 0.0
0.5874778849721707 -0.08967788497217066 0.0
0.5430545454545455 -0.045254545454545436 0.0
0.4978 0.0 0.0
0.5430545454545455 0.04525454545454546 0.0
0.5874778849721707 0.08967788497217068 0.0
0.6310700185528757 0.1332700185528757 0.0
0.6738309461966605 0.1760309461966605 0.0
0.715760667903525 0.21796066790352508 0.0
0.7568591836734693 0.25905918367346936 0.0
0.7971264935064934 0.2993264935064935 0.0
0.8365625974025973 0.33876259740259734 0.0
0.875167495361781 0.377367495361781 0.0
0.9129411873840445 0.4151411873840445 0.0
0.9498836734693876 0.4520836734693878 0.0
0.9859949536178105 0.4881949536178107 0.0
1.0212750278293132 0.5234750278293134 0.0
1.055723896103896 0.557923896103896 0.0
1.0893415584415582 0.5915415584415583 0.0
1.1221280148423003 0.6243280148423004 0.0
1.1540832653061224 0.6562832653061225 0.0
1.185207309833024 0.6874073098330241 0.0
1.2155001484230055 0.7177001484230056 0.0
1.2449617810760667 0.7471617810760669 0.0
1.2735922077922077 0.7757922077922077 0.0
1.3013914285714283 0.8035914285714285 0.0
1.3283594434137287 0.830559443413729 0.0
1.3544962523191093 0.8566962523191094 0.0
1.3798018552875693 0.8820018552875695 0.0
1.4042762523191092 0.9064762523191093 0.0
1.427919443413729 0.9301194434137292 0.0
1.4507314285714283 0.9529314285714284 0.0
1.4727122077922075 0.9749122077922077 0.0
1.4938617810760666 0.9960617810760668 0.0
1.5141801484230053 1.0163801484230055 0.0
1.5336673098330238 1.035867309833024 0.0
1.552323265306122 1.0545232653061223 0.0
1.5701480148423002 1.0723480148423004 0.0
1.5871415584415582 1.0893415584415584 0.0
1.603303896103896 1.105503896103896 0.0
1.6186350278293131 1.1208350278293133 0.0
1.6331349536178106 1.1353349536178106 0.0
1.6468036734693874 1.1490036734693876 0.0
1.6596411873840444 1.1618411873840446 0.0
1.6716474953617806 1.173847495361781 0.0
1.6828225974025972 1.1850225974025972 0.0
1.6931664935064934 1.1953664935064934 0.0
1.7026791836734692 1.2048791836734694 0.0
1.7113606679035245 1.2135606679035247 0.0
1.71921094619666 1.2214109461966602 0.0
1.7262300185528754 1.2284300185528756 0.0
1.7324178849721703 1.2346178849721705 0.0
1.7377745454545452 1.2399745454545454 0.0
1.7422999999999997 1.2445 0.0
1.6155872727272724 -1.2422372727272726 0.0
1.6106462152133578 -1.237296215213358 0.0
1.604873951762523 -1.2315239517625232 0.0
1.598270482374768 -1.224920482374768 0.0
1.5908358070500925 -1.2174858070500927 0.0
1.582569925788497 -1.2092199257884972 0.0
1.5734728385899812 -1.2001228385899814 0.0
1.5635445454545454 -1.1901945454545453 0.0
1.552785046382189 -1.1794350463821892 0.0
1.5411943413729126 -1.1678443413729127 0.0
1.5287724304267158 -1.155422430426716 0.0
1.5155193135435991 -1.142169313543599 0.0
1.501434990723562 -1.1280849907235622 0.0
1.4865194619666047 -1.1131694619666048 0.0
1.4707727272727271 -1.0974227272727273 0.0
1.4541947866419294 -1.0808447866419293 0.0
1.4367856400742112 -1.0634356400742113 0.0
1.418545287569573 -1.0451952875695731 0.0
1.3994737291280146 -1.0261237291280147 0.0
1.379570964749536 -1.0062209647495362 0.0
1.358836994434137 -0.9854869944341371 0.0
1.337271818181818 -0.9639218181818181 0.0
1.3148754359925787 -0.9415254359925787 0.0
1.291647847866419 -0.9182978478664192 0.0
1.2675890538033394 -0.8942390538033393 0.0
1.2426990538033393 -0.8693490538033395 0.0
1.2169778478664193 -0.8436278478664192 0.0
1.1904254359925788 -0.8170754359925788 0.0
1.163041818181818 -0.7896918181818181 0.0
1.1348269944341371 -0.7614769944341371 0.0
1.105780964749536 -0.7324309647495362 0.0
1.0759037291280147 -0.7025537291280148 0.0
1.0451952875695731 -0.6718452875695733 0.0
1.0136556400742114 -0.6403056400742114 0.0
0.9812847866419293 -0.6079347866419293 0.0
0.9480827272727271 -0.5747327272727272 0.0
0.9140494619666047 -0.5406994619666048 0.0
0.8791849907235622 -0.5058349907235622 0.0
0.8434893135435992 -0.47013931354359917 0.0
0.8069624304267162 -0.43361243042671627 0.0
0.7696043413729128 -0.3962543413729128 0.0
0.7314150463821893 -0.3580650463821894 0.0
0.6923945454545455 -0.3190445454545454 0.0
0.6525428385899814 -0.27919283858998134 0.0
0.6118599257884971 -0.23850992578849706 0.0
0.5703458070500929 -0.19699580705009279 0.0
0.5280004823747682 -0.15465048237476808 0.0
0.4848239517625232 -0.11147395176252317 0.0
0.4408162152133581 -0.06746621521335805 0.0
0.39597727272727273 -0.022627272727272718 0.0
0.39597727272727273 0.02262727272727273 0.0
0.4408162152133581 0.06746621521335806 0.0
0.4848239517625232 0.11147395176252319 0.0
0.528000482374768 0.15465048237476808 0.0
0.5703458070500929 0.19699580705009276 0.0
0.6118599257884971 0.23850992578849717 0.0
0.6525428385899814 0.2791928385899814 0.0
0.6923945454545455 0.3190445454545454 0.0
0.7314150463821891 0.3580650463821891 0.0
0.7696043413729128 0.39625434137291277 0.0
0.8069624304267162 0.43361243042671616 0.0
0.8434893135435992 0.4701393135435992 0.0
0.8791849907235619 0.5058349907235621 0.0
0.9140494619666046 0.5406994619666047 0.0
0.9480827272727271 0.5747327272727272 0.0
0.9812847866419294 0.6079347866419295 0.0
1.0136556400742114 0.6403056400742114 0.0
1.0451952875695731 0.6718452875695732 0.0
1.0759037291280147 0.7025537291280147 0.0
1.105780964749536 0.7324309647495362 0.0
1.1348269944341371 0.7614769944341373 0.0
1.163041818181818 0.789691818181818 0.0
1.1904254359925786 0.8170754359925786 0.0
1.216977847866419 0.843627847866419 0.0
1.2426990538033393 0.8693490538033394 0.0
1.2675890538033392 0.8942390538033393 0.0
1.291647847866419 0.9182978478664192 0.0
1.3148754359925787 0.9415254359925787 0.0
1.3372718181818182 0.9639218181818181 0.0
1.3588369944341372 0.9854869944341373 0.0
1.379570964749536 1.0062209647495362 0.0
1.3994737291280148 1.0261237291280147 0.0
1.418545287569573 1.0451952875695731 0.0
1.4367856400742112 1.0634356400742113 0.0
1.4541947866419291 1.0808447866419293 0.0
1.470772727272727 1.097422727272727 0.0
1.4865194619666047 1.1131694619666048 0.0
1.501434990723562 1.128084990723562 0.0
1.5155193135435991 1.1421693135435993 0.0
1.528772430426716 1.1554224304267162 0.0
1.5411943413729128 1.1678443413729127 0.0
1.5527850463821888 1.179435046382189 0.0
1.5635445454545451 1.1901945454545453 0.0
1.573472838589981 1.2001228385899811 0.0
1.5825699257884969 1.209219925788497 0.0
1.5908358070500925 1.2174858070500927 0.0
1.5982704823747678 1.224920482374768 0.0
1.604873951762523 1.2315239517625232 0.0
1.6106462152133578 1.237296215213358 0.0
1.6155872727272724 1.2422372727272726 0.0

CELLS 200 700
4 0 101 102 1
4 1 102 103 2
4 2 103 104 3
4 3 104 105 4
4 4 105 106 5
4 5 106 107 6
4 6 107 108 7
4 7 108 109 8
4 8 109 110 9
4 9 110 111 10
4 10 111 112 11
4 11 112 113 12
4 12 113 114 13
4 13 114 115 14
4 14 115 116 15
4 15 116 117 16
4 16 117 118 17
4 17 118 119 18
4 18 119 120 19
4 19 120 121 20
4 20 121 122 21
4 21 122 123 22
4 22 123 124 23
4 23 124 125 24
4 24 125 126 25
4 25 126 127 26
4 26 127 128 27
4 27 128 129 28
4 28 129 130 29
4 29 130 131 30
4 30 131 132 31
4 31 132 133 32
4 32 133 134 33
4 33 134 135 34
4 34 135 136 35
4 35 136 137 36
4 36 137 138 37
4 37 138 139 38
4 38 139 140 39
4 39 140 141 40
4 40 141 142 41
4 41 142 143 42
4 42 143 144 43
4 43 144 145 44
4 44 145 146 45
4 45 146 147 46
4 46 147 148 47
4 47 148 149 48
4 48 149 150 49
4 49 150 151 50
4 50 151 152 51
4 51 152 153 52
4 52 153 154 53
4 53 154 155 54
4 54 155 156 55
4 55 156 157 56
4 56 157 158 57
4 57 158 159 58
4 58 159 160 59
4 59 160 161 60
4 60 161 162 61
4 61 162 163 62
4 62 163 164 63
4 63 164 165 64
4 64 165 166 65
4 65 166 167 66
4 66 167 168 67
4 67 168 169 68
4 68 169 170 69
4 69 170 171 70
4 70 171 172 71
4 71 172 173 72
4 72 173 174 73
4 73 174 175 74
4 74 175 176 75
4 75 176 177 76
4 76 177 178 77
4 77 178 179 78
4 78 179 180 79
4 79 180 181 80
4 80 181 182 81
4 81 182 183 82
4 82 183 184 83
4 83 184 185 84
4 84 185 186 85
4 85 186 187 86
4 86 187 188 87
4 87 188 189 88
4 88 189 190 89
4 89 190 191 90
4 90 191 192 91
4 91 192 193 92
4 92 193 194 93
4 93 194 195 94
4 94 195 196 95
4 95 196 197 96
4 96 197 198 97
4 97 198 199 98
4 98 199 200 99
4 99 200 201 100
1 202
1 203
1 204
1 205
1 206
1 207
1 208
1 209
1 210
1 211
1 212
1 213
1 214
1 215
1 216
1 217
1 218
1 219
1 220
1 221
1 222
1 223
1 224
1 225
1 226
1 227
1 228
1 229
1 230
1 231
1 232
1 233
1 234
1 235
1 236
1 237
1 238
1 239
1 240
1 241
1 242
1 243
1 244
1 245
1 246
1 247
1 248
1 249
1 250
1 251
1 252
1 253
1 254
1 255
1 256
1 257
1 258
1 259
1 260
1 261
1 262
1 263
1 264
1 265
1 266
1 267
1 268
1 269
1 270
1 271
1 272
1 273
1 274
1 275
1 276
1 277
1 278
1 279
1 280
1 281
1 282
1 283
1 284
1 285
1 286
1 287
1 288
1 289
1 290
1 291
1 292
1 293
1 294
1 295
1 296
1 297
1 298
1 299
1 300
1 301

CELL_TYPES 200
9
9
9
9
9
9
9
9
9
9
9
9
9
9
9
9
9
9
9
9
9
9
9
9
9
9
9
9
9
9
9
9
9
9
9
9
9
9
9
9
9
9
9
9
9
9
9
9
9
9
9
9
9
9
9
9
9
9
9
9
9
9
9
9
9
9
9
9
9
9
9
9
9
9
9
9
9
9
9
9
9
9
9
9
9
9
9
9
9
9
9
9
9
9
9
9
9
9
9
9
1
1
1
1
1
1
1
1
1
1
1
1
1
1
1
1
1
1
1
1
1
1
1
1
1
1
1
1
1
1
1
1
1
1
1
1
1
1
1
1
1
1
1
1
1
1
1
1
1
1
1
1
1
1
1
1
1
1
1
1
1
1
1
1
1
1
1
1
1
1
1
1
1
1
1
1
1
1
1
1
1
1
1
1
1
1
1
1
1
1
1
1
1
1
1
1
1
1
1
1

CELL_DATA 200

VECTORS Vinf float
49.53916304210074 0.02862958282119298 4.158701054419157
49.541459568166985 0.029516174008863808 4.124491364247797
49.547162983389214 0.031633856487480384 4.094551113282259
49.549893816032544 0.032487083021006696 4.053157194008001
49.55277365288963 0.03322701193656127 4.008983514933798
49.55573775413983 0.033809772914344643 3.962868767827961
49.55872284984875 0.03420387912901818 3.915647606633946
49.56167119697688 0.034391857769618527 3.8681010170006473
49.56453368635372 0.034369689486835144 3.8209183055381506
49.567271420471236 0.034144314592433854 3.7746775164379898
49.56985565837481 0.03373005056568675 3.729844865526316
49.57226651568901 0.03314503191957761 3.686787808131579
49.574491101753296 0.032408597534200397 3.645793438183825
49.57652177804275 0.03154002252076225 3.6070849196832233
49.57835499314396 0.030558397738022543 3.5708321086266634
49.57999082240244 0.029483060879351385 3.537156074415448
49.58143302338627 0.02833389853329437 3.506129475023592
49.58268918996657 0.027131052803521096 3.4777757280121055
49.58377054542282 0.025893974108423878 3.452070114818257
49.58469113335517 0.024640168589592146 3.4289452153537767
49.58546654298573 0.023384143643172418 3.408301027321015
49.58443125718511 0.021695751547118846 3.3824056093130364
49.58471674448943 0.02131264141552713 3.3688028205780154
49.584919062512405 0.020706524321048768 3.356422358873316
49.58503513506126 0.019879081106802598 3.345404538282333
49.58506337880984 0.018829161920748686 3.335820246313592
49.585003360315014 0.01755395247927205 3.327697206229101
49.584856379678556 0.016049195827336427 3.321046223432645
49.58462595234383 0.01430804032826043 3.315883509845843
49.58431725859933 0.01231930676326601 3.3122411702991656
49.5879044851397 0.011927226306075277 3.311440794440898
49.58612886818998 0.011574619155819277 3.312006014713301
49.58609681853551 0.010405819661028489 3.312919168487766
49.58603236433996 0.00933999179681779 3.3149472835918328
49.58592454544956 0.008395898460674196 3.3181143860919136
49.585758265307845 0.007596592412619936 3.322401451743167
49.58551949656176 0.006971700508009706 3.327810658786429
49.58520161064223 0.006552984071521324 3.334423375764673
49.58225737306946 0.0038919100553602595 3.3412067455480976
49.581505786136944 0.002685351862545576 3.3520913085278154
49.58068249770339 0.0015591906740904978 3.3650495376895275
49.57975185699917 0.0005218977855037332 3.3806537983397753
49.57866550669366 -0.0003967970196082151 3.399558127832669
49.57737819258125 -0.001134551752047226 3.4223701865103724
49.57889562540899 -0.0019370271853002574 3.445153022337292
49.576938412934446 -0.0025352905124418354 3.4747538322142204
49.574959625417826 -0.002622337272087558 3.5036086089996723
49.57342314329843 -0.002066508842816645 3.524044635192059
49.57274197018599 -0.0011009709733610757 3.5302879326498595
49.5727481262823 -0.00028557493190527834 3.5258833595195966
49.572750896389145 0.000390907743795941 3.525856108765856
49.572750764239856 0.0012031264178607446 3.530237045829743
49.57343824013581 0.0021654765409467483 3.523976812590555
49.574981536894555 0.0027174881776610054 3.503524735917111
49.576967317480936 0.0026254698419888598 3.4746500897012487
49.57893118574076 0.002021085199692304 3.445023966892164
49.57746542653666 0.001294405510260257 3.422159450089621
49.578759799494954 0.0005568057369227947 3.3992943156615234
49.57985235128727 -0.00036283362455213957 3.3803350914011934
49.58078846004503 -0.0014020758676344942 3.3646741283801975
49.58161653816918 -0.002531120268994805 3.3516574721408547
49.58237224131641 -0.00374138776119286 3.3407131722613075
49.58530271170316 -0.006431982771496098 3.3338327095086564
49.585631942664385 -0.0068497410408445165 3.327154928708164
49.585881455837445 -0.007473551294359226 3.321682255415146
49.58605798328583 -0.008271599555672882 3.3173344323414953
49.58617563586026 -0.009214244995989274 3.3141094277134338
49.58624959552038 -0.010278442765900628 3.3120250925650296
49.58629092497662 -0.011445465538508512 3.3110556218222373
49.58802512903872 -0.011807033369194767 3.3104683647192585
49.584415063927786 -0.012096472809030995 3.3111805296261982
49.58473545241817 -0.014090249819390112 3.3147494203184382
49.58497746827553 -0.015836730775180278 3.3198370490813907
49.58513590479007 -0.01734708290982763 3.326411478105996
49.58520721854737 -0.018628138866690253 3.3344567450649514
49.585190080291625 -0.019684130656024312 3.343962356972386
49.58508489611753 -0.020517843652094272 3.354900860678344
49.584893227040396 -0.021130397187701974 3.367201522328789
49.58461813327085 -0.021520080278269724 3.380724071641541
49.58567029192447 -0.023257413896243383 3.4066246890918794
49.58490379215289 -0.02451272634353431 3.427193661158323
49.583992269264904 -0.025765783741772994 3.4502420540713836
49.58292016690505 -0.027002104959004396 3.475869737743274
49.58167346711488 -0.028204223529515193 3.5041440457616417
49.580240959791325 -0.029352736911464297 3.5350896665422953
49.57861504912792 -0.030427552486205888 3.5686832266793695
49.57679196057927 -0.031408829111849904 3.604852203590358
49.574771588548444 -0.03227726717266294 3.6434757621062923
49.572557442991595 -0.033013805456494516 3.6843843763731763
49.57015711112654 -0.03359919028776404 3.727355300012218
49.567583422761 -0.03401409632922284 3.7721019367702047
49.56485619135104 -0.03424039428210463 3.818257406466686
49.562004076095235 -0.034263762090613346 3.8653561474566445
49.55906588160704 -0.03407724292854094 3.9128208497753176
49.55609061384 -0.03368482565546453 3.959963015250751
49.55313590459265 -0.033103937613592774 4.006002523524203
49.550264908248224 -0.03236600589021297 4.050105613302418
49.54754224940722 -0.03151482940315825 4.091434475096416
49.54182825388248 -0.02929764814497459 4.121263246723319
49.53953853942613 -0.028414243244902333 4.155419684000775
49.53916304210074 0.02862958282119298 4.158701054419157
49.541459568166985 0.029516174008863808 4.124491364247797
49.547162983389214 0.031633856487480384 4.094551113282259
49.549893816032544 0.032487083021006696 4.053157194008001
49.55277365288963 0.03322701193656127 4.008983514933798
49.55573775413983 0.033809772914344643 3.962868767827961
49.55872284984875 0.03420387912901818 3.915647606633946
49.56167119697688 0.034391857769618527 3.8681010170006473
49.56453368635372 0.034369689486835144 3.8209183055381506
49.567271420471236 0.034144314592433854 3.7746775164379898
49.56985565837481 0.03373005056568675 3.729844865526316
49.57226651568901 0.03314503191957761 3.686787808131579
49.574491101753296 0.032408597534200397 3.645793438183825
49.57652177804275 0.03154002252076225 3.6070849196832233
49.57835499314396 0.030558397738022543 3.5708321086266634
49.57999082240244 0.029483060879351385 3.537156074415448
49.58143302338627 0.02833389853329437 3.506129475023592
49.58268918996657 0.027131052803521096 3.4777757280121055
49.58377054542282 0.025893974108423878 3.452070114818257
49.58469113335517 0.024640168589592146 3.4289452153537767
49.58546654298573 0.023384143643172418 3.408301027321015
49.58443125718511 0.021695751547118846 3.3824056093130364
49.58471674448943 0.02131264141552713 3.3688028205780154
49.584919062512405 0.020706524321048768 3.356422358873316
49.58503513506126 0.019879081106802598 3.345404538282333
49.58506337880984 0.018829161920748686 3.335820246313592
49.585003360315014 0.01755395247927205 3.327697206229101
49.584856379678556 0.016049195827336427 3.321046223432645
49.58462595234383 0.01430804032826043 3.315883509845843
49.58431725859933 0.01231930676326601 3.3122411702991656
49.5879044851397 0.011927226306075277 3.311440794440898
49.58612886818998 0.011574619155819277 3.312006014713301
49.58609681853551 0.010405819661028489 3.312919168487766
49.58603236433996 0.00933999179681779 3.3149472835918328
49.58592454544956 0.008395898460674196 3.3181143860919136
49.585758265307845 0.007596592412619936 3.322401451743167
49.58551949656176 0.006971700508009706 3.327810658786429
49.58520161064223 0.006552984071521324 3.334423375764673
49.58225737306946 0.0038919100553602595 3.3412067455480976
49.581505786136944 0.002685351862545576 3.3520913085278154
49.58068249770339 0.0015591906740904978 3.3650495376895275
49.57975185699917 0.0005218977855037332 3.3806537983397753
49.57866550669366 -0.0003967970196082151 3.399558127832669
49.57737819258125 -0.001134551752047226 3.4223701865103724
49.57889562540899 -0.0019370271853002574 3.445153022337292
49.576938412934446 -0.0025352905124418354 3.4747538322142204
49.574959625417826 -0.002622337272087558 3.5036086089996723
49.57342314329843 -0.002066508842816645 3.524044635192059
49.57274197018599 -0.0011009709733610757 3.5302879326498595
49.5727481262823 -0.00028557493190527834 3.5258833595195966
49.572750896389145 0.000390907743795941 3.525856108765856
49.572750764239856 0.0012031264178607446 3.530237045829743
49.57343824013581 0.0021654765409467483 3.523976812590555
49.574981536894555 0.0027174881776610054 3.503524735917111
49.576967317480936 0.0026254698419888598 3.4746500897012487
49.57893118574076 0.002021085199692304 3.445023966892164
49.57746542653666 0.001294405510260257 3.422159450089621
49.578759799494954 0.0005568057369227947 3.3992943156615234
49.57985235128727 -0.00036283362455213957 3.3803350914011934
49.58078846004503 -0.0014020758676344942 3.3646741283801975
49.58161653816918 -0.002531120268994805 3.3516574721408547
49.58237224131641 -0.00374138776119286 3.3407131722613075
49.58530271170316 -0.006431982771496098 3.3338327095086564
49.585631942664385 -0.0068497410408445165 3.327154928708164
49.585881455837445 -0.007473551294359226 3.321682255415146
49.58605798328583 -0.008271599555672882 3.3173344323414953
49.58617563586026 -0.009214244995989274 3.3141094277134338
49.58624959552038 -0.010278442765900628 3.3120250925650296
49.58629092497662 -0.011445465538508512 3.3110556218222373
49.58802512903872 -0.011807033369194767 3.3104683647192585
49.584415063927786 -0.012096472809030995 3.3111805296261982
49.58473545241817 -0.014090249819390112 3.3147494203184382
49.58497746827553 -0.015836730775180278 3.3198370490813907
49.58513590479007 -0.01734708290982763 3.326411478105996
49.58520721854737 -0.018628138866690253 3.3344567450649514
49.585190080291625 -0.019684130656024312 3.343962356972386
49.58508489611753 -0.020517843652094272 3.354900860678344
49.584893227040396 -0.021130397187701974 3.367201522328789
49.58461813327085 -0.021520080278269724 3.380724071641541
49.58567029192447 -0.023257413896243383 3.4066246890918794
49.58490379215289 -0.02451272634353431 3.427193661158323
49.583992269264904 -0.025765783741772994 3.4502420540713836
49.58292016690505 -0.027002104959004396 3.475869737743274
49.58167346711488 -0.028204223529515193 3.5041440457616417
49.580240959791325 -0.029352736911464297 3.5350896665422953
49.57861504912792 -0.030427552486205888 3.5686832266793695
49.57679196057927 -0.031408829111849904 3.604852203590358
49.574771588548444 -0.03227726717266294 3.6434757621062923
49.572557442991595 -0.033013805456494516 3.6843843763731763
49.57015711112654 -0.03359919028776404 3.727355300012218
49.567583422761 -0.03401409632922284 3.7721019367702047
49.56485619135104 -0.03424039428210463 3.818257406466686
49.562004076095235 -0.034263762090613346 3.8653561474566445
49.55906588160704 -0.03407724292854094 3.9128208497753176
49.55609061384 -0.03368482565546453 3.959963015250751
49.55313590459265 -0.033103937613592774 4.006002523524203
49.550264908248224 -0.03236600589021297 4.050105613302418
49.54754224940722 -0.03151482940315825 4.091434475096416
49.54182825388248 -0.02929764814497459 4.121263246723319
49.53953853942613 -0.028414243244902333 4.155419684000775

VECTORS L float
-0.006441423861756689 0.0 0.0877155026095706
-0.011625852395347464 0.0 0.15831398585288478
-0.01718336852550391 0.0 0.23399295545333018
-0.02329928738689635 0.0 0.3172759233746631
-0.030015426981884342 0.0 0.4087323424543027
-0.03733327645932874 0.0 0.5083824910411966
-0.04523862659282622 0.0 0.6160328762892898
-0.05370845968237428 0.0 0.7313700567657612
-0.06271371307803135 0.0 0.8539982744827026
-0.07222035744898117 0.0 0.9834541381278711
-0.08218974958930807 0.0 1.119211427365191
-0.09257939304289632 0.0 1.2606914505750273
-0.10334353014845177 0.0 1.40727110697333
-0.1144338632700149 0.0 1.558292707902442
-0.1258004997709446 0.0 1.7130768449282316
-0.13739304933663044 0.0 1.8709373325321605
-0.14916177429883526 0.0 2.03119687254822
-0.16105863585906263 0.0 2.193201301014325
-0.1730380853740375 0.0 2.3563303634302595
-0.18505744158588247 0.0 2.5200028516552346
-0.19707642954114787 0.0 2.6836703251797864
-0.20905217673074367 0.0 2.8467489715171617
-0.2209833523850107 0.0 3.009220669032762
-0.23282986403563657 0.0 3.170539462191856
-0.24456270825723775 0.0 3.33031039949156
-0.25615854589135423 0.0 3.4882156620677933
-0.2675977414250783 0.0 3.643987865112373
-0.2788634361031436 0.0 3.7973974360613294
-0.28994094651295554 0.0 3.948244424881346
-0.3008174095938731 0.0 4.096353670015999
-0.3114831308296667 0.0 4.241593157273722
-0.32191888913410993 0.0 4.383701145263911
-0.3321006958995421 0.0 4.522350971307162
-0.342014503463022 0.0 4.657351342633145
-0.3516421525250718 0.0 4.788454976635574
-0.36096231779546034 0.0 4.915371478117506
-0.36995027006178455 0.0 5.037764099281928
-0.37857729841512433 0.0 5.155241871942248
-0.38680753703746246 0.0 5.267316396589072
-0.39461736823771854 0.0 5.373666061465736
-0.4019504077280386 0.0 5.47352305866912
-0.4087458634748679 0.0 5.566059558220583
-0.41493072080310384 0.0 5.65028128943371
-0.42041416419709876 0.0 5.724951580297666
-0.4250714103295049 0.0 5.788371205220327
-0.4288285206461909 0.0 5.839533312676774
-0.4315363858305864 0.0 5.8764074201327965
-0.43309879254755757 0.0 5.897683351262459
-0.4335422104605442 0.0 5.903721554296205
-0.43186614462518236 0.0 5.880897880476455
-0.43186241585452956 0.0 5.88084710428179
-0.43353295302072054 0.0 5.903595491952779
-0.4330839435811381 0.0 5.897481146815014
-0.43151591454583665 0.0 5.876128654277696
-0.42880234208668383 0.0 5.83917682852761
-0.42503935235709583 0.0 5.787934658701598
-0.4203757962163937 0.0 5.724429107815824
-0.4148862573587267 0.0 5.6496758125306235
-0.4086954528804527 0.0 5.5653730965436505
-0.4018942250991346 0.0 5.472757996838381
-0.3945556162535705 0.0 5.372825159447342
-0.3867404326180183 0.0 5.266402608270653
-0.3785047045768554 0.0 5.15425333196308
-0.3698729518417869 0.0 5.036711225464971
-0.36088074799184167 0.0 4.914260708747917
-0.3515568119085856 0.0 4.787292858565292
-0.34192587421518944 0.0 4.656144441925105