# vtk DataFile Version 4.0
[MyVLM domain - lattices] 
ASCII
DATASET UNSTRUCTURED_GRID
POINTS 302 float
1.2444999999999997 -1.2445 0.0
1.2399745454545452 -1.2399745454545454 0.0
1.2346178849721705 -1.2346178849721707 0.0
1.2284300185528754 -1.2284300185528756 0.0
1.2214109461966602 -1.2214109461966605 0.0
1.2135606679035247 -1.213560667903525 0.0
1.2048791836734691 -1.2048791836734694 0.0
1.1953664935064932 -1.1953664935064934 0.0
1.1850225974025972 -1.1850225974025974 0.0
1.1738474953617808 -1.173847495361781 0.0
1.1618411873840442 -1.1618411873840444 0.0
1.1490036734693874 -1.1490036734693876 0.0
1.1353349536178106 -1.1353349536178108 0.0
1.1208350278293133 -1.1208350278293135 0.0
1.1055038961038959 -1.105503896103896 0.0
1.0893415584415582 -1.0893415584415584 0.0
1.0723480148423004 -1.0723480148423006 0.0
1.054523265306122 -1.0545232653061223 0.0
1.0358673098330238 -1.035867309833024 0.0
1.0163801484230053 -1.0163801484230055 0.0
0.9960617810760664 -0.9960617810760668 0.0
0.9749122077922076 -0.9749122077922077 0.0
0.9529314285714284 -0.9529314285714284 0.0
0.9301194434137288 -0.930119443413729 0.0
0.9064762523191091 -0.9064762523191096 0.0
0.8820018552875695 -0.8820018552875695 0.0
0.8566962523191093 -0.8566962523191094 0.0
0.8305594434137288 -0.8305594434137291 0.0
0.8035914285714284 -0.8035914285714285 0.0
0.7757922077922076 -0.7757922077922077 0.0
0.7471617810760666 -0.7471617810760667 0.0
0.7177001484230053 -0.7177001484230054 0.0
0.6874073098330239 -0.687407309833024 0.0
0.6562832653061222 -0.6562832653061225 0.0
0.6243280148423004 -0.6243280148423005 0.0
0.5915415584415582 -0.5915415584415583 0.0
0.5579238961038958 -0.5579238961038959 0.0
0.5234750278293133 -0.5234750278293134 0.0
0.48819495361781057 -0.48819495361781057 0.0
0.4520836734693877 -0.4520836734693877 0.0
0.4151411873840445 -0.4151411873840446 0.0
0.37736749536178105 -0.37736749536178116 0.0
0.3387625974025974 -0.3387625974025974 0.0
0.2993264935064933 -0.29932649350649343 0.0
0.25905918367346925 -0.25905918367346925 0.0
0.21796066790352486 -0.21796066790352486 0.0
0.17603094619666027 -0.1760309461966605 0.0
0.13327001855287546 -0.13327001855287568 0.0
0.08967788497217066 -0.08967788497217066 0.0
0.045254545454545436 -0.045254545454545436 0.0
0.0 0.0 0.0
0.04525454545454545 0.04525454545454546 0.0
0.08967788497217066 0.08967788497217068 0.0
0.13327001855287568 0.1332700185528757 0.0
0.17603094619666046 0.1760309461966605 0.0
0.21796066790352497 0.21796066790352508 0.0
0.2590591836734693 0.25905918367346936 0.0
0.29932649350649343 0.2993264935064935 0.0
0.3387625974025973 0.33876259740259734 0.0
0.37736749536178094 0.377367495361781 0.0
0.41514118738404443 0.4151411873840445 0.0
0.45208367346938766 0.4520836734693878 0.0
0.48819495361781057 0.4881949536178107 0.0
0.5234750278293133 0.5234750278293134 0.0
0.5579238961038959 0.557923896103896 0.0
0.5915415584415582 0.5915415584415583 0.0
0.6243280148423003 0.6243280148423004 0.0
0.6562832653061222 0.6562832653061225 0.0
0.687407309833024 0.6874073098330241 0.0
0.7177001484230054 0.7177001484230056 0.0
0.7471617810760667 0.7471617810760669 0.0
0.7757922077922076 0.7757922077922077 0.0
0.8035914285714284 0.8035914285714285 0.0
0.8305594434137288 0.830559443413729 0.0
0.8566962523191093 0.8566962523191094 0.0
0.8820018552875692 0.8820018552875695 0.0
0.9064762523191091 0.9064762523191093 0.0
0.9301194434137288 0.9301194434137292 0.0
0.9529314285714284 0.9529314285714284 0.0
0.9749122077922076 0.9749122077922077 0.0
0.9960617810760666 0.9960617810760668 0.0
1.0163801484230053 1.0163801484230055 0.0
1.0358673098330238 1.035867309833024 0.0
1.054523265306122 1.0545232653061223 0.0
1.0723480148423001 1.0723480148423004 0.0
1.0893415584415582 1.0893415584415584 0.0
1.1055038961038959 1.105503896103896 0.0
1.120835027829313 1.1208350278293133 0.0
1.1353349536178106 1.1353349536178106 0.0
1.1490036734693874 1.1490036734693876 0.0
1.1618411873840444 1.1618411873840446 0.0
1.1738474953617808 1.173847495361781 0.0
1.1850225974025972 1.1850225974025972 0.0
1.1953664935064932 1.1953664935064934 0.0
1.2048791836734691 1.2048791836734694 0.0
1.2135606679035245 1.2135606679035247 0.0
1.22141094619666 1.2214109461966602 0.0
1.2284300185528754 1.2284300185528756 0.0
1.2346178849721703 1.2346178849721705 0.0
1.2399745454545452 1.2399745454545454 0.0
1.2444999999999997 1.2445 0.0
1.7422999999999997 -1.2445 0.0
1.7377745454545452 -1.2399745454545454 0.0
1.7324178849721703 -1.2346178849721707 0.0
1.7262300185528754 -1.2284300185528756 0.0
1.7192109461966603 -1.2214109461966605 0.0
1.7113606679035245 -1.213560667903525 0.0
1.7026791836734692 -1.2048791836734694 0.0
1.6931664935064934 -1.1953664935064934 0.0
1.6828225974025972 -1.1850225974025974 0.0
1.6716474953617806 -1.173847495361781 0.0
1.6596411873840444 -1.1618411873840444 0.0
1.6468036734693878 -1.1490036734693876 0.0
1.6331349536178106 -1.1353349536178108 0.0
1.6186350278293133 -1.1208350278293135 0.0
1.603303896103896 -1.105503896103896 0.0
1.5871415584415582 -1.0893415584415584 0.0
1.5701480148423004 -1.0723480148423006 0.0
1.552323265306122 -1.0545232653061223 0.0
1.5336673098330238 -1.035867309833024 0.0
1.5141801484230053 -1.0163801484230055 0.0
1.4938617810760666 -0.9960617810760668 0.0
1.4727122077922075 -0.9749122077922077 0.0
1.4507314285714283 -0.9529314285714284 0.0
1.4279194434137288 -0.930119443413729 0.0
1.4042762523191092 -0.9064762523191096 0.0
1.3798018552875693 -0.8820018552875695 0.0
1.3544962523191093 -0.8566962523191094 0.0
1.328359443413729 -0.8305594434137291 0.0
1.3013914285714283 -0.8035914285714285 0.0
1.2735922077922077 -0.7757922077922077 0.0
1.2449617810760665 -0.7471617810760667 0.0
1.2155001484230055 -0.7177001484230054 0.0
1.1852073098330238 -0.687407309833024 0.0
1.1540832653061224 -0.6562832653061225 0.0
1.1221280148423003 -0.6243280148423005 0.0
1.0893415584415582 -0.5915415584415583 0.0
1.055723896103896 -0.5579238961038959 0.0
1.0212750278293132 -0.5234750278293134 0.0
0.9859949536178108 -0.48819495361781057 0.0
0.9498836734693876 -0.4520836734693877 0.0
0.9129411873840445 -0.4151411873840446 0.0
0.875167495361781 -0.37736749536178116 0.0
0.8365625974025973 -0.3387625974025974 0.0
0.7971264935064933 -0.29932649350649343 0.0
0.7568591836734693 -0.25905918367346925 0.0
0.7157606679035249 -0.21796066790352486 0.0
0.6738309461966603 -0.1760309461966605 0.0
0.6310700185528755 -0.13327001855287568 0.0
0.5874778849721707 -0.08967788497217066 0.0
0.5430545454545455 -0.045254545454545436 0.0
0.4978 0.0 0.0
0.5430545454545455 0.04525454545454546 0.0
0.5874778849721707 0.08967788497217068 0.0
0.6310700185528757 0.1332700185528757 0.0
0.6738309461966605 0.1760309461966605 0.0
0.715760667903525 0.21796066790352508 0.0
0.7568591836734693 0.25905918367346936 0.0
0.7971264935064934 0.2993264935064935 0.0
0.8365625974025973 0.33876259740259734 0.0
0.875167495361781 0.377367495361781 0.0
0.9129411873840445 0.4151411873840445 0.0
0.9498836734693876 0.4520836734693878 0.0
0.9859949536178105 0.4881949536178107 0.0
1.0212750278293132 0.5234750278293134 0.0
1.055723896103896 0.557923896103896 0.0
1.0893415584415582 0.5915415584415583 0.0
1.1221280148423003 0.6243280148423004 0.0
1.1540832653061224 0.6562832653061225 0.0
1.185207309833024 0.6874073098330241 0.0
1.2155001484230055 0.7177001484230056 0.0
1.2449617810760667 0.7471617810760669 0.0
1.2735922077922077 0.7757922077922077 0.0
1.3013914285714283 0.8035914285714285 0.0
1.3283594434137287 0.830559443413729 0.0
1.3544962523191093 0.8566962523191094 0.0
1.3798018552875693 0.8820018552875695 0.0
1.4042762523191092 0.9064762523191093 0.0
1.427919443413729 0.9301194434137292 0.0
1.4507314285714283 0.9529314285714284 0.0
1.4727122077922075 0.9749122077922077 0.0
1.4938617810760666 0.9960617810760668 0.0
1.5141801484230053 1.0163801484230055 0.0
1.5336673098330238 1.035867309833024 0.0
1.552323265306122 1.0545232653061223 0.0
1.5701480148423002 1.0723480148423004 0.0
1.5871415584415582 1.0893415584415584 0.0
1.603303896103896 1.105503896103896 0.0
1.6186350278293131 1.1208350278293133 0.0
1.6331349536178106 1.1353349536178106 0.0
1.6468036734693874 1.1490036734693876 0.0
1.6596411873840444 1.1618411873840446 0.0
1.6716474953617806 1.173847495361781 0.0
1.6828225974025972 1.1850225974025972 0.0
1.6931664935064934 1.1953664935064934 0.0
1.7026791836734692 1.2048791836734694 0.0
1.7113606679035245 1.2135606679035247 0.0
1.71921094619666 1.2214109461966602 0.0
1.7262300185528754 1.2284300185528756 0.0
1.7324178849721703 1.2346178849721705 0.0
1.7377745454545452 1.2399745454545454 0.0
1.7422999999999997 1.2445 0.0
1.6155872727272724 -1.2422372727272726 0.0
1.6106462152133578 -1.237296215213358 0.0
1.604873951762523 -1.2315239517625232 0.0
1.598270482374768 -1.224920482374768 0.0
1.5908358070500925 -1.2174858070500927 0.0
1.582569925788497 -1.2092199257884972 0.0
1.5734728385899812 -1.2001228385899814 0.0
1.5635445454545454 -1.1901945454545453 0.0
1.552785046382189 -1.1794350463821892 0.0
1.5411943413729126 -1.1678443413729127 0.0
1.5287724304267158 -1.155422430426716 0.0
1.5155193135435991 -1.142169313543599 0.0
1.501434990723562 -1.1280849907235622 0.0
1.4865194619666047 -1.1131694619666048 0.0
1.4707727272727271 -1.0974227272727273 0.0
1.4541947866419294 -1.0808447866419293 0.0
1.4367856400742112 -1.0634356400742113 0.0
1.418545287569573 -1.0451952875695731 0.0
1.3994737291280146 -1.0261237291280147 0.0
1.379570964749536 -1.0062209647495362 0.0
1.358836994434137 -0.9854869944341371 0.0
1.337271818181818 -0.9639218181818181 0.0
1.3148754359925787 -0.9415254359925787 0.0
1.291647847866419 -0.9182978478664192 0.0
1.2675890538033394 -0.8942390538033393 0.0
1.2426990538033393 -0.8693490538033395 0.0
1.2169778478664193 -0.8436278478664192 0.0
1.1904254359925788 -0.8170754359925788 0.0
1.163041818181818 -0.7896918181818181 0.0
1.1348269944341371 -0.7614769944341371 0.0
1.105780964749536 -0.7324309647495362 0.0
1.0759037291280147 -0.7025537291280148 0.0
1.0451952875695731 -0.6718452875695733 0.0
1.0136556400742114 -0.6403056400742114 0.0
0.9812847866419293 -0.6079347866419293 0.0
0.9480827272727271 -0.5747327272727272 0.0
0.9140494619666047 -0.5406994619666048 0.0
0.8791849907235622 -0.5058349907235622 0.0
0.8434893135435992 -0.47013931354359917 0.0
0.8069624304267162 -0.43361243042671627 0.0
0.7696043413729128 -0.3962543413729128 0.0
0.7314150463821893 -0.3580650463821894 0.0
0.6923945454545455 -0.3190445454545454 0.0
0.6525428385899814 -0.27919283858998134 0.0
0.6118599257884971 -0.23850992578849706 0.0
0.5703458070500929 -0.19699580705009279 0.0
0.5280004823747682 -0.15465048237476808 0.0
0.4848239517625232 -0.11147395176252317 0.0
0.4408162152133581 -0.06746621521335805 0.0
0.39597727272727273 -0.022627272727272718 0.0
0.39597727272727273 0.02262727272727273 0.0
0.4408162152133581 0.06746621521335806 0.0
0.4848239517625232 0.11147395176252319 0.0
0.528000482374768 0.15465048237476808 0.0
0.5703458070500929 0.19699580705009276 0.0
0.6118599257884971 0.23850992578849717 0.0
0.6525428385899814 0.2791928385899814 0.0
0.6923945454545455 0.3190445454545454 0.0
0.7314150463821891 0.3580650463821891 0.0
0.7696043413729128 0.39625434137291277 0.0
0.8069624304267162 0.43361243042671616 0.0
0.8434893135435992 0.4701393135435992 0.0
0.8791849907235619 0.5058349907235621 0.0
0.9140494619666046 0.5406994619666047 0.0
0.9480827272727271 0.5747327272727272 0.0
0.9812847866419294 0.6079347866419295 0.0
1.0136556400742114 0.6403056400742114 0.0
1.0451952875695731 0.6718452875695732 0.0
1.0759037291280147 0.7025537291280147 0.0
1.105780964749536 0.7324309647495362 0.0
1.1348269944341371 0.7614769944341373 0.0
1.163041818181818 0.789691818181818 0.0
1.1904254359925786 0.8170754359925786 0.0
1.216977847866419 0.843627847866419 0.0
1.2426990538033393 0.8693490538033394 0.0
1.2675890538033392 0.8942390538033393 0.0
1.291647847866419 0.9182978478664192 0.0
1.3148754359925787 0.9415254359925787 0.0
1.3372718181818182 0.9639218181818181 0.0
1.3588369944341372 0.9854869944341373 0.0
1.379570964749536 1.0062209647495362 0.0
1.3994737291280148 1.0261237291280147 0.0
1.418545287569573 1.0451952875695731 0.0
1.4367856400742112 1.0634356400742113 0.0
1.4541947866419291 1.0808447866419293 0.0
1.470772727272727 1.097422727272727 0.0
1.4865194619666047 1.1131694619666048 0.0
1.501434990723562 1.128084990723562 0.0
1.5155193135435991 1.1421693135435993 0.0
1.528772430426716 1.1554224304267162 0.0
1.5411943413729128 1.1678443413729127 0.0
1.5527850463821888 1.179435046382189 0.0
1.5635445454545451 1.1901945454545453 0.0
1.573472838589981 1.2001228385899811 0.0
1.5825699257884969 1.209219925788497 0.0
1.5908358070500925 1.2174858070500927 0.0
1.5982704823747678 1.224920482374768 0.0
1.604873951762523 1.2315239517625232 0.0
1.6106462152133578 1.237296215213358 0.0
1.6155872727272724 1.2422372727272726 0.0

CELLS 200 700
4 0 101 102 1
4 1 102 103 2
4 2 103 104 3
4 3 104 105 4
4 4 105 106 5
4 5 106 107 6
4 6 107 108 7
4 7 108 109 8
4 8 109 110 9
4 9 110 111 10
4 10 111 112 11
4 11 112 113 12
4 12 113 114 13
4 13 114 115 14
4 14 115 116 15
4 15 116 117 16
4 16 117 118 17
4 17 118 119 18
4 18 119 120 19
4 19 120 121 20
4 20 121 122 21
4 21 122 123 22
4 22 123 124 23
4 23 124 125 24
4 24 125 126 25
4 25 126 127 26
4 26 127 128 27
4 27 128 129 28
4 28 129 130 29
4 29 130 131 30
4 30 131 132 31
4 31 132 133 32
4 32 133 134 33
4 33 134 135 34
4 34 135 136 35
4 35 136 137 36
4 36 137 138 37
4 37 138 139 38
4 38 139 140 39
4 39 140 141 40
4 40 141 142 41
4 41 142 143 42
4 42 143 144 43
4 43 144 145 44
4 44 145 146 45
4 45 146 147 46
4 46 147 148 47
4 47 148 149 48
4 48 149 150 49
4 49 150 151 50
4 50 151 152 51
4 51 152 153 52
4 52 153 154 53
4 53 154 155 54
4 54 155 156 55
4 55 156 157 56
4 56 157 158 57
4 57 158 159 58
4 58 159 160 59
4 59 160 161 60
4 60 161 162 61
4 61 162 163 62
4 62 163 164 63
4 63 164 165 64
4 64 165 166 65
4 65 166 167 66
4 66 167 168 67
4 67 168 169 68
4 68 169 170 69
4 69 170 171 70
4 70 171 172 71
4 71 172 173 72
4 72 173 174 73
4 73 174 175 74
4 74 175 176 75
4 75 176 177 76
4 76 177 178 77
4 77 178 179 78
4 78 179 180 79
4 79 180 181 80
4 80 181 182 81
4 81 182 183 82
4 82 183 184 83
4 83 184 185 84
4 84 185 186 85
4 85 186 187 86
4 86 187 188 87
4 87 188 189 88
4 88 189 190 89
4 89 190 191 90
4 90 191 192 91
4 91 192 193 92
4 92 193 194 93
4 93 194 195 94
4 94 195 196 95
4 95 196 197 96
4 96 197 198 97
4 97 198 199 98
4 98 199 200 99
4 99 200 201 100
1 202
1 203
1 204
1 205
1 206
1 207
1 208
1 209
1 210
1 211
1 212
1 213
1 214
1 215
1 216
1 217
1 218
1 219
1 220
1 221
1 222
1 223
1 224
1 225
1 226
1 227
1 228
1 229
1 230
1 231
1 232
1 233
1 234
1 235
1 236
1 237
1 238
1 239
1 240
1 241
1 242
1 243
1 244
1 245
1 246
1 247
1 248
1 249
1 250
1 251
1 252
1 253
1 254
1 255
1 256
1 257
1 258
1 259
1 260
1 261
1 262
1 263
1 264
1 265
1 266
1 267
1 268
1 269
1 270
1 271
1 272
1 273
1 274
1 275
1 276
1 277
1 278
1 279
1 280
1 281
1 282
1 283
1 284
1 285
1 286
1 287
1 288
1 289
1 290
1 291
1 292
1 293
1 294
1 295
1 296
1 297
1 298
1 299
1 300
1 301

CELL_TYPES 200
9
9
9
9
9
9
9
9
9
9
9
9
9
9
9
9
9
9
9
9
9
9
9
9
9
9
9
9
9
9
9
9
9
9
9
9
9
9
9
9
9
9
9
9
9
9
9
9
9
9
9
9
9
9
9
9
9
9
9
9
9
9
9
9
9
9
9
9
9
9
9
9
9
9
9
9
9
9
9
9
9
9
9
9
9
9
9
9
9
9
9
9
9
9
9
9
9
9
9
9
1
1
1
1
1
1
1
1
1
1
1
1
1
1
1
1
1
1
1
1
1
1
1
1
1
1
1
1
1
1
1
1
1
1
1
1
1
1
1
1
1
1
1
1
1
1
1
1
1
1
1
1
1
1
1
1
1
1
1
1
1
1
1
1
1
1
1
1
1
1
1
1
1
1
1
1
1
1
1
1
1
1
1
1
1
1
1
1
1
1
1
1
1
1
1
1
1
1
1
1

CELL_DATA 200

VECTORS Vinf float
49.53101743834807 0.032637537274932196 4.286745519007955
49.533526257317725 0.0335706612020449 4.2518937323479244
49.53630770184632 0.036252054773087586 4.212522063906441
49.53939238007939 0.037006337118709744 4.169069147038545
49.542648339057344 0.03756991540457787 4.1227103031498125
49.546001655105115 0.03787694145606312 4.074340769731226
49.549378523132376 0.03787224265214886 4.024860711526028
49.55270944473559 0.03751319108654414 3.9751256003235884
49.5558123758736 0.0368859140464959 3.9280006604525206
49.55890038277697 0.036524073998535855 3.8798129489693904
49.56181827405081 0.03595536675764804 3.8330475644265807
49.564542755249626 0.035203414740078064 3.788080782796282
49.56705974646482 0.03429393945226236 3.7452049434596706
49.569362770900284 0.03325248700870504 3.7046456763156046
49.5714513691577 0.032103089279974566 3.666573547539772
49.57332957679588 0.03086763101131206 3.6311098936213564
49.575004492160716 0.029565757442902844 3.5983286702408774
49.576403135294996 0.028852130326687993 3.5694859952948463
49.57772466309275 0.026364697281814075 3.5413196322133134
49.57890575112026 0.025434805708013573 3.5161225130592473
49.57987056449026 0.02403699771657696 3.493903352423875
49.58069110052438 0.02265394910023162 3.4740977072210644
49.581383317172474 0.021297253696977304 3.4565724771909627
49.581962592841144 0.01997440788339615 3.4411904379277813
49.58244209863841 0.01868888748022659 3.42781587636749
49.58272873479126 0.017356706568780432 3.4166720582540058
49.583100384514125 0.01607690799885837 3.4064693583035512
49.583374618667335 0.015064530220469396 3.3984546677852245
49.5835432699009 0.013936704639615785 3.391883949272994
49.58365510373198 0.012848014219778032 3.3867970663071243
49.583717764138626 0.011793394824956525 3.3831686825584164
49.58362103449602 0.010183967193722302 3.381192591872478
49.583599158698014 0.009027097057013513 3.380315702743177
49.583661649079126 0.008754430189860388 3.3808584511904853
49.583567750240356 0.007753995690968544 3.3827520564296343
49.58343088134768 0.006746685780049057 3.385826449204656
49.583240477417554 0.005725863383079918 3.3900584789796144
49.5829105921276 0.00450762085840494 3.395946198241643
49.582613545547915 0.0036252712032780444 3.40253494007148
49.582115023833 0.00255469078094183 3.4113600864828153
49.58145711546563 0.0014959552975748677 3.4224336049136763
49.58062344964768 0.000471040628928475 3.436244400768907
49.57953641310261 -0.0006107726225237105 3.453853023982004
49.5783251304388 -0.0014000805326002106 3.4746277289947334
49.576797464900444 -0.0021501161031247554 3.500233382708698
49.57505140055551 -0.002617660946938741 3.5291789917089957
49.573271040043906 -0.0025557189086319256 3.5575098268540697
49.572023612672375 -0.0019895775056578144 3.576518383550484
49.57159993504719 -0.001002670477522787 3.581083473400205
49.571859160606934 -0.00020460406380267736 3.574612822476155
49.571859383736474 0.00023110640166095416 3.5746104781662065
49.571600468114944 0.0010289538843376656 3.5810790304774964
49.57202440257294 0.002015829732320895 3.576513551071997
49.57327202461731 0.002586536286019252 3.5575039293615403
49.57505231968646 0.002643511876650983 3.5291665691508656
49.57679804074487 0.0021756544383081584 3.500207912032761
49.578325212324785 0.0014254906905543571 3.4745823967079668
49.57953534200629 0.000642767132751493 3.4537882070592505
49.58062239454938 -0.00044376847762323934 3.436157390545172
49.581456075343986 -0.0014664559398212178 3.4223276398000975
49.58211478582168 -0.0025225124789733924 3.411235598579484
49.58261479881291 -0.0035902240763413624 3.4023941451846964
49.58291316675187 -0.004460304608132925 3.395798578368673
49.583246028016866 -0.005684889229001512 3.389897031230199
49.58343899470424 -0.006702800630633447 3.385660025502242
49.583578564349 -0.007707268629248771 3.38258331148741
49.58367522621844 -0.008704855041197883 3.3806896915133917
49.583614520955294 -0.008961272679079629 3.3801582266994417
49.583639426273955 -0.010114196424993328 3.38103841205292
49.58374054760428 -0.01173425122716609 3.383010002490817
49.58368183126548 -0.012785449286080981 3.3866425384469907
49.58357463610315 -0.013871045493082181 3.391731793953415
49.583411236977554 -0.014996516093063262 3.39830182825633
49.5831416056139 -0.015987695354699256 3.406327955926587
49.58277558831099 -0.01726700232301983 3.416522893053216
49.582494632910745 -0.018619705839644715 3.427643676674792
49.58201947496324 -0.019906203651782462 3.441009216993136
49.581444005759245 -0.02123028904776278 3.456382032847837
49.58075519569492 -0.022588384007104664 3.4738977314233708
49.57993778718997 -0.023972987472765203 3.4936931697320657
49.5789758767875 -0.02537253256942636 3.515901105048219
49.577805753653344 -0.02603690028888919 3.5406692723618143
49.57648641897722 -0.028631868731764255 3.5689568699757195
49.575081891934936 -0.02950977663681305 3.598067129544234
49.57340886624835 -0.030813998632706313 3.6308335326228254
49.5715322715546 -0.03205184510171109 3.666282133725363
49.569445017343114 -0.03320360739732634 3.704339231154195
49.567143088607835 -0.034247337367775715 3.744883681040971
49.564626980118575 -0.03515894974724446 3.7877450447553564
49.561903216157326 -0.03591286334291251 3.8326977623386522
49.55898592922349 -0.0364833430284579 3.8794495222367016
49.55589846308229 -0.036846771803352406 3.927624053596123
49.552778787272146 -0.0373935905171751 3.974947656720057
49.549454530224054 -0.03774787422681297 4.02458152343554
49.546083803987045 -0.03774926333769511 4.073969392677605
49.54273611177433 -0.037440122936495485 4.122255570573248
49.539485254351234 -0.03687538161769576 4.168539722858019
49.536405145515104 -0.03612066219720737 4.2119264884652114
49.533565596480805 -0.035248586258419985 4.25157634555784
49.53110768336595 -0.03260670198373317 4.286283872449073
49.53101743834807 0.032637537274932196 4.286745519007955
49.533526257317725 0.0335706612020449 4.2518937323479244
49.53630770184632 0.036252054773087586 4.212522063906441
49.53939238007939 0.037006337118709744 4.169069147038545
49.542648339057344 0.03756991540457787 4.1227103031498125
49.546001655105115 0.03787694145606312 4.074340769731226
49.549378523132376 0.03787224265214886 4.024860711526028
49.55270944473559 0.03751319108654414 3.9751256003235884
49.5558123758736 0.0368859140464959 3.9280006604525206
49.55890038277697 0.036524073998535855 3.8798129489693904
49.56181827405081 0.03595536675764804 3.8330475644265807
49.564542755249626 0.035203414740078064 3.788080782796282
49.56705974646482 0.03429393945226236 3.7452049434596706
49.569362770900284 0.03325248700870504 3.7046456763156046
49.5714513691577 0.032103089279974566 3.666573547539772
49.57332957679588 0.03086763101131206 3.6311098936213564
49.575004492160716 0.029565757442902844 3.5983286702408774
49.576403135294996 0.028852130326687993 3.5694859952948463
49.57772466309275 0.026364697281814075 3.5413196322133134
49.57890575112026 0.025434805708013573 3.5161225130592473
49.57987056449026 0.02403699771657696 3.493903352423875
49.58069110052438 0.02265394910023162 3.4740977072210644
49.581383317172474 0.021297253696977304 3.4565724771909627
49.581962592841144 0.01997440788339615 3.4411904379277813
49.58244209863841 0.01868888748022659 3.42781587636749
49.58272873479126 0.017356706568780432 3.4166720582540058
49.583100384514125 0.01607690799885837 3.4064693583035512
49.583374618667335 0.015064530220469396 3.3984546677852245
49.5835432699009 0.013936704639615785 3.391883949272994
49.58365510373198 0.012848014219778032 3.3867970663071243
49.583717764138626 0.011793394824956525 3.3831686825584164
49.58362103449602 0.010183967193722302 3.381192591872478
49.583599158698014 0.009027097057013513 3.380315702743177
49.583661649079126 0.008754430189860388 3.3808584511904853
49.583567750240356 0.007753995690968544 3.3827520564296343
49.58343088134768 0.006746685780049057 3.385826449204656
49.583240477417554 0.005725863383079918 3.3900584789796144
49.5829105921276 0.00450762085840494 3.395946198241643
49.582613545547915 0.0036252712032780444 3.40253494007148
49.582115023833 0.00255469078094183 3.4113600864828153
49.58145711546563 0.0014959552975748677 3.4224336049136763
49.58062344964768 0.000471040628928475 3.436244400768907
49.57953641310261 -0.0006107726225237105 3.453853023982004
49.5783251304388 -0.0014000805326002106 3.4746277289947334
49.576797464900444 -0.0021501161031247554 3.500233382708698
49.57505140055551 -0.002617660946938741 3.5291789917089957
49.573271040043906 -0.0025557189086319256 3.5575098268540697
49.572023612672375 -0.0019895775056578144 3.576518383550484
49.57159993504719 -0.001002670477522787 3.581083473400205
49.571859160606934 -0.00020460406380267736 3.574612822476155
49.571859383736474 0.00023110640166095416 3.5746104781662065
49.571600468114944 0.0010289538843376656 3.5810790304774964
49.57202440257294 0.002015829732320895 3.576513551071997
49.57327202461731 0.002586536286019252 3.5575039293615403
49.57505231968646 0.002643511876650983 3.5291665691508656
49.57679804074487 0.0021756544383081584 3.500207912032761
49.578325212324785 0.0014254906905543571 3.4745823967079668
49.57953534200629 0.000642767132751493 3.4537882070592505
49.58062239454938 -0.00044376847762323934 3.436157390545172
49.581456075343986 -0.0014664559398212178 3.4223276398000975
49.58211478582168 -0.0025225124789733924 3.411235598579484
49.58261479881291 -0.0035902240763413624 3.4023941451846964
49.58291316675187 -0.004460304608132925 3.395798578368673
49.583246028016866 -0.005684889229001512 3.389897031230199
49.58343899470424 -0.006702800630633447 3.385660025502242
49.583578564349 -0.007707268629248771 3.38258331148741
49.58367522621844 -0.008704855041197883 3.3806896915133917
49.583614520955294 -0.008961272679079629 3.3801582266994417
49.583639426273955 -0.010114196424993328 3.38103841205292
49.58374054760428 -0.01173425122716609 3.383010002490817
49.58368183126548 -0.012785449286080981 3.3866425384469907
49.58357463610315 -0.013871045493082181 3.391731793953415
49.583411236977554 -0.014996516093063262 3.39830182825633
49.5831416056139 -0.015987695354699256 3.406327955926587
49.58277558831099 -0.01726700232301983 3.416522893053216
49.582494632910745 -0.018619705839644715 3.427643676674792
49.58201947496324 -0.019906203651782462 3.441009216993136
49.581444005759245 -0.02123028904776278 3.456382032847837
49.58075519569492 -0.022588384007104664 3.4738977314233708
49.57993778718997 -0.023972987472765203 3.4936931697320657
49.5789758767875 -0.02537253256942636 3.515901105048219
49.577805753653344 -0.02603690028888919 3.5406692723618143
49.57648641897722 -0.028631868731764255 3.5689568699757195
49.575081891934936 -0.02950977663681305 3.598067129544234
49.57340886624835 -0.030813998632706313 3.6308335326228254
49.5715322715546 -0.03205184510171109 3.666282133725363
49.569445017343114 -0.03320360739732634 3.704339231154195
49.567143088607835 -0.034247337367775715 3.744883681040971
49.564626980118575 -0.03515894974724446 3.7877450447553564
49.561903216157326 -0.03591286334291251 3.8326977623386522
49.55898592922349 -0.0364833430284579 3.8794495222367016
49.55589846308229 -0.036846771803352406 3.927624053596123
49.552778787272146 -0.0373935905171751 3.974947656720057
49.549454530224054 -0.03774787422681297 4.02458152343554
49.546083803987045 -0.03774926333769511 4.073969392677605
49.54273611177433 -0.037440122936495485 4.122255570573248
49.539485254351234 -0.03687538161769576 4.168539722858019
49.536405145515104 -0.03612066219720737 4.2119264884652114
49.533565596480805 -0.035248586258419985 4.25157634555784
49.53110768336595 -0.03260670198373317 4.286283872449073

VECTORS L float
-0.006622490277617996 0.0 0.09018115803201265
-0.011948843273442394 0.0 0.1627122847101621
-0.01765604208796211 0.0 0.24042954462850213
-0.02393578578594193 0.0 0.3259433823372603
-0.03083010281625823 0.0 0.4198261164101261
-0.03834082636485363 0.0 0.5221027100896662
-0.04645331106562012 0.0 0.6325737314371299
-0.05514384056075615 0.0 0.7509162251107668
-0.06438271840374679 0.0 0.8767258024555715
-0.07413334212028992 0.0 1.009504032612301
-0.08435557764640031 0.0 1.1487043936209385
-0.09500567877083771 0.0 1.2937311754352951
-0.10603640772665208 0.0 1.4439411220673941
-0.11739790565414436 0.0 1.5986552850375353
-0.12903867661640564 0.0 1.7571724231162547
-0.14090675683658352 0.0 1.9187849243062793
-0.15295099629890524 0.0 2.082796257927703
-0.165122715855789 0.0 2.2485435401231073
-0.1773712916482259 0.0 2.4153374051043843
-0.18965458545961092 0.0 2.5826040395457994
-0.20193503136895602 0.0 2.7498318929406365
-0.21417535634751259 0.0 2.916513403215565
-0.2263430146521335 0.0 3.08220538167827
-0.2384090561074189 0.0 3.246513601952666
-0.25034791835553566 0.0 3.4090899709597497
-0.2621373805926547 0.0 3.5696318989277414
-0.2737553745517959 0.0 3.727838873241508
-0.2851859452846843 0.0 3.8834936288464466
-0.29641310338493204 0.0 4.03637843145774
-0.3074221187909828 0.0 4.186292695804085
-0.3181991366346288 0.0 4.333047754479872
-0.3287305691200307 0.0 4.476458576913137
-0.33900057907725806 0.0 4.616309501885155
-0.3489923032270643 0.0 4.752370895227064
-0.35868815276072086 0.0 4.884403242938385
-0.368065823657623 0.0 5.012102822050477
-0.3771003305095515 0.0 5.13512939604314
-0.38576422217889894 0.0 5.2531091515508646
-0.3940191372938421 0.0 5.365519706087655
-0.401832179197995 0.0 5.471913092432132
-0.4091558773614814 0.0 5.571642884968374
-0.4159336684115938 0.0 5.663938837121586
-0.42209793673385265 0.0 5.747880199421526
-0.42755688116408247 0.0 5.822216877878319
-0.4322138581449443 0.0 5.885632837654344
-0.4359413996897952 0.0 5.936392295054107
-0.438603573870335 0.0 5.972644209427677
-0.4401016024034206 0.0 5.993043476503271
-0.4404705637100397 0.0 5.99806777348297
-0.4386714360515755 0.0 5.9735683164983255
-0.43867032063748246 0.0 5.973553127448529
-0.4404675807696819 0.0 5.998027153564399
-0.4400965298607907 0.0 5.992974401616129
-0.43859554488627384 0.0 5.972534875468683
-0.43593246679692166 0.0 5.936270652199209
-0.4322034914613034 0.0 5.885491670284293
-0.4275447829184456 0.0 5.822052131120536
-0.42208366762307536 0.0 5.747685891105463
-0.41591927807546486 0.0 5.663742878030343
-0.409140760730686 0.0 5.571437035625675
-0.4018163038234335 0.0 5.4716969109653215
-0.394002560486815 0.0 5.365293972928146
-0.38574697354396237 0.0 5.2528742698360045
-0.3770829205809244 0.0 5.134892317926143
-0.368048292677238 0.0 5.011864095522194
-0.35867061429369085 0.0 4.884164414461396
-0.34897486228743985 0.0 4.7521333948206355