# vtk DataFile Version 4.0
[MyVLM domain - lattices] 
ASCII
DATASET UNSTRUCTURED_GRID
POINTS 302 float
1.2444999999999997 -1.2445 0.0
1.2399745454545452 -1.2399745454545454 0.0
1.2346178849721705 -1.2346178849721707 0.0
1.2284300185528754 -1.2284300185528756 0.0
1.2214109461966602 -1.2214109461966605 0.0
1.2135606679035247 -1.213560667903525 0.0
1.2048791836734691 -1.2048791836734694 0.0
1.1953664935064932 -1.1953664935064934 0.0
1.1850225974025972 -1.1850225974025974 0.0
1.1738474953617808 -1.173847495361781 0.0
1.1618411873840442 -1.1618411873840444 0.0
1.1490036734693874 -1.1490036734693876 0.0
1.1353349536178106 -1.1353349536178108 0.0
1.1208350278293133 -1.1208350278293135 0.0
1.1055038961038959 -1.105503896103896 0.0
1.0893415584415582 -1.0893415584415584 0.0
1.0723480148423004 -1.0723480148423006 0.0
1.054523265306122 -1.0545232653061223 0.0
1.0358673098330238 -1.035867309833024 0.0
1.0163801484230053 -1.0163801484230055 0.0
0.9960617810760664 -0.9960617810760668 0.0
0.9749122077922076 -0.9749122077922077 0.0
0.9529314285714284 -0.9529314285714284 0.0
0.9301194434137288 -0.930119443413729 0.0
0.9064762523191091 -0.9064762523191096 0.0
0.8820018552875695 -0.8820018552875695 0.0
0.8566962523191093 -0.8566962523191094 0.0
0.8305594434137288 -0.8305594434137291 0.0
0.8035914285714284 -0.8035914285714285 0.0
0.7757922077922076 -0.7757922077922077 0.0
0.7471617810760666 -0.7471617810760667 0.0
0.7177001484230053 -0.7177001484230054 0.0
0.6874073098330239 -0.687407309833024 0.0
0.6562832653061222 -0.6562832653061225 0.0
0.6243280148423004 -0.6243280148423005 0.0
0.5915415584415582 -0.5915415584415583 0.0
0.5579238961038958 -0.5579238961038959 0.0
0.5234750278293133 -0.5234750278293134 0.0
0.48819495361781057 -0.48819495361781057 0.0
0.4520836734693877 -0.4520836734693877 0.0
0.4151411873840445 -0.4151411873840446 0.0
0.37736749536178105 -0.37736749536178116 0.0
0.3387625974025974 -0.3387625974025974 0.0
0.2993264935064933 -0.29932649350649343 0.0
0.25905918367346925 -0.25905918367346925 0.0
0.21796066790352486 -0.21796066790352486 0.0
0.17603094619666027 -0.1760309461966605 0.0
0.13327001855287546 -0.13327001855287568 0.0
0.08967788497217066 -0.08967788497217066 0.0
0.045254545454545436 -0.045254545454545436 0.0
0.0 0.0 0.0
0.04525454545454545 0.04525454545454546 0.0
0.08967788497217066 0.08967788497217068 0.0
0.13327001855287568 0.1332700185528757 0.0
0.17603094619666046 0.1760309461966605 0.0
0.21796066790352497 0.21796066790352508 0.0
0.2590591836734693 0.25905918367346936 0.0
0.29932649350649343 0.2993264935064935 0.0
0.3387625974025973 0.33876259740259734 0.0
0.37736749536178094 0.377367495361781 0.0
0.41514118738404443 0.4151411873840445 0.0
0.45208367346938766 0.4520836734693878 0.0
0.48819495361781057 0.4881949536178107 0.0
0.5234750278293133 0.5234750278293134 0.0
0.5579238961038959 0.557923896103896 0.0
0.5915415584415582 0.5915415584415583 0.0
0.6243280148423003 0.6243280148423004 0.0
0.6562832653061222 0.6562832653061225 0.0
0.687407309833024 0.6874073098330241 0.0
0.7177001484230054 0.7177001484230056 0.0
0.7471617810760667 0.7471617810760669 0.0
0.7757922077922076 0.7757922077922077 0.0
0.8035914285714284 0.8035914285714285 0.0
0.8305594434137288 0.830559443413729 0.0
0.8566962523191093 0.8566962523191094 0.0
0.8820018552875692 0.8820018552875695 0.0
0.9064762523191091 0.9064762523191093 0.0
0.9301194434137288 0.9301194434137292 0.0
0.9529314285714284 0.9529314285714284 0.0
0.9749122077922076 0.9749122077922077 0.0
0.9960617810760666 0.9960617810760668 0.0
1.0163801484230053 1.0163801484230055 0.0
1.0358673098330238 1.035867309833024 0.0
1.054523265306122 1.0545232653061223 0.0
1.0723480148423001 1.0723480148423004 0.0
1.0893415584415582 1.0893415584415584 0.0
1.1055038961038959 1.105503896103896 0.0
1.120835027829313 1.1208350278293133 0.0
1.1353349536178106 1.1353349536178106 0.0
1.1490036734693874 1.1490036734693876 0.0
1.1618411873840444 1.1618411873840446 0.0
1.1738474953617808 1.173847495361781 0.0
1.1850225974025972 1.1850225974025972 0.0
1.1953664935064932 1.1953664935064934 0.0
1.2048791836734691 1.2048791836734694 0.0
1.2135606679035245 1.2135606679035247 0.0
1.22141094619666 1.2214109461966602 0.0
1.2284300185528754 1.2284300185528756 0.0
1.2346178849721703 1.2346178849721705 0.0
1.2399745454545452 1.2399745454545454 0.0
1.2444999999999997 1.2445 0.0
1.7422999999999997 -1.2445 0.0
1.7377745454545452 -1.2399745454545454 0.0
1.7324178849721703 -1.2346178849721707 0.0
1.7262300185528754 -1.2284300185528756 0.0
1.7192109461966603 -1.2214109461966605 0.0
1.7113606679035245 -1.213560667903525 0.0
1.7026791836734692 -1.2048791836734694 0.0
1.6931664935064934 -1.1953664935064934 0.0
1.6828225974025972 -1.1850225974025974 0.0
1.6716474953617806 -1.173847495361781 0.0
1.6596411873840444 -1.1618411873840444 0.0
1.6468036734693878 -1.1490036734693876 0.0
1.6331349536178106 -1.1353349536178108 0.0
1.6186350278293133 -1.1208350278293135 0.0
1.603303896103896 -1.105503896103896 0.0
1.5871415584415582 -1.0893415584415584 0.0
1.5701480148423004 -1.0723480148423006 0.0
1.552323265306122 -1.0545232653061223 0.0
1.5336673098330238 -1.035867309833024 0.0
1.5141801484230053 -1.0163801484230055 0.0
1.4938617810760666 -0.9960617810760668 0.0
1.4727122077922075 -0.9749122077922077 0.0
1.4507314285714283 -0.9529314285714284 0.0
1.4279194434137288 -0.930119443413729 0.0
1.4042762523191092 -0.9064762523191096 0.0
1.3798018552875693 -0.8820018552875695 0.0
1.3544962523191093 -0.8566962523191094 0.0
1.328359443413729 -0.8305594434137291 0.0
1.3013914285714283 -0.8035914285714285 0.0
1.2735922077922077 -0.7757922077922077 0.0
1.2449617810760665 -0.7471617810760667 0.0
1.2155001484230055 -0.7177001484230054 0.0
1.1852073098330238 -0.687407309833024 0.0
1.1540832653061224 -0.6562832653061225 0.0
1.1221280148423003 -0.6243280148423005 0.0
1.0893415584415582 -0.5915415584415583 0.0
1.055723896103896 -0.5579238961038959 0.0
1.0212750278293132 -0.5234750278293134 0.0
0.9859949536178108 -0.48819495361781057 0.0
0.9498836734693876 -0.4520836734693877 0.0
0.9129411873840445 -0.4151411873840446 0.0
0.875167495361781 -0.37736749536178116 0.0
0.8365625974025973 -0.3387625974025974 0.0
0.7971264935064933 -0.29932649350649343 0.0
0.7568591836734693 -0.25905918367346925 0.0
0.7157606679035249 -0.21796066790352486 0.0
0.6738309461966603 -0.1760309461966605 0.0
0.6310700185528755 -0.13327001855287568 0.0
0.5874778849721707 -0.08967788497217066 0.0
0.5430545454545455 -0.045254545454545436 0.0
0.4978 0.0 0.0
0.5430545454545455 0.04525454545454546 0.0
0.5874778849721707 0.08967788497217068 0.0
0.6310700185528757 0.1332700185528757 0.0
0.6738309461966605 0.1760309461966605 0.0
0.715760667903525 0.21796066790352508 0.0
0.7568591836734693 0.25905918367346936 0.0
0.7971264935064934 0.2993264935064935 0.0
0.8365625974025973 0.33876259740259734 0.0
0.875167495361781 0.377367495361781 0.0
0.9129411873840445 0.4151411873840445 0.0
0.9498836734693876 0.4520836734693878 0.0
0.9859949536178105 0.4881949536178107 0.0
1.0212750278293132 0.5234750278293134 0.0
1.055723896103896 0.557923896103896 0.0
1.0893415584415582 0.5915415584415583 0.0
1.1221280148423003 0.6243280148423004 0.0
1.1540832653061224 0.6562832653061225 0.0
1.185207309833024 0.6874073098330241 0.0
1.2155001484230055 0.7177001484230056 0.0
1.2449617810760667 0.7471617810760669 0.0
1.2735922077922077 0.7757922077922077 0.0
1.3013914285714283 0.8035914285714285 0.0
1.3283594434137287 0.830559443413729 0.0
1.3544962523191093 0.8566962523191094 0.0
1.3798018552875693 0.8820018552875695 0.0
1.4042762523191092 0.9064762523191093 0.0
1.427919443413729 0.9301194434137292 0.0
1.4507314285714283 0.9529314285714284 0.0
1.4727122077922075 0.9749122077922077 0.0
1.4938617810760666 0.9960617810760668 0.0
1.5141801484230053 1.0163801484230055 0.0
1.5336673098330238 1.035867309833024 0.0
1.552323265306122 1.0545232653061223 0.0
1.5701480148423002 1.0723480148423004 0.0
1.5871415584415582 1.0893415584415584 0.0
1.603303896103896 1.105503896103896 0.0
1.6186350278293131 1.1208350278293133 0.0
1.6331349536178106 1.1353349536178106 0.0
1.6468036734693874 1.1490036734693876 0.0
1.6596411873840444 1.1618411873840446 0.0
1.6716474953617806 1.173847495361781 0.0
1.6828225974025972 1.1850225974025972 0.0
1.6931664935064934 1.1953664935064934 0.0
1.7026791836734692 1.2048791836734694 0.0
1.7113606679035245 1.2135606679035247 0.0
1.71921094619666 1.2214109461966602 0.0
1.7262300185528754 1.2284300185528756 0.0
1.7324178849721703 1.2346178849721705 0.0
1.7377745454545452 1.2399745454545454 0.0
1.7422999999999997 1.2445 0.0
1.6155872727272724 -1.2422372727272726 0.0
1.6106462152133578 -1.237296215213358 0.0
1.604873951762523 -1.2315239517625232 0.0
1.598270482374768 -1.224920482374768 0.0
1.5908358070500925 -1.2174858070500927 0.0
1.582569925788497 -1.2092199257884972 0.0
1.5734728385899812 -1.2001228385899814 0.0
1.5635445454545454 -1.1901945454545453 0.0
1.552785046382189 -1.1794350463821892 0.0
1.5411943413729126 -1.1678443413729127 0.0
1.5287724304267158 -1.155422430426716 0.0
1.5155193135435991 -1.142169313543599 0.0
1.501434990723562 -1.1280849907235622 0.0
1.4865194619666047 -1.1131694619666048 0.0
1.4707727272727271 -1.0974227272727273 0.0
1.4541947866419294 -1.0808447866419293 0.0
1.4367856400742112 -1.0634356400742113 0.0
1.418545287569573 -1.0451952875695731 0.0
1.3994737291280146 -1.0261237291280147 0.0
1.379570964749536 -1.0062209647495362 0.0
1.358836994434137 -0.9854869944341371 0.0
1.337271818181818 -0.9639218181818181 0.0
1.3148754359925787 -0.9415254359925787 0.0
1.291647847866419 -0.9182978478664192 0.0
1.2675890538033394 -0.8942390538033393 0.0
1.2426990538033393 -0.8693490538033395 0.0
1.2169778478664193 -0.8436278478664192 0.0
1.1904254359925788 -0.8170754359925788 0.0
1.163041818181818 -0.7896918181818181 0.0
1.1348269944341371 -0.7614769944341371 0.0
1.105780964749536 -0.7324309647495362 0.0
1.0759037291280147 -0.7025537291280148 0.0
1.0451952875695731 -0.6718452875695733 0.0
1.0136556400742114 -0.6403056400742114 0.0
0.9812847866419293 -0.6079347866419293 0.0
0.9480827272727271 -0.5747327272727272 0.0
0.9140494619666047 -0.5406994619666048 0.0
0.8791849907235622 -0.5058349907235622 0.0
0.8434893135435992 -0.47013931354359917 0.0
0.8069624304267162 -0.43361243042671627 0.0
0.7696043413729128 -0.3962543413729128 0.0
0.7314150463821893 -0.3580650463821894 0.0
0.6923945454545455 -0.3190445454545454 0.0
0.6525428385899814 -0.27919283858998134 0.0
0.6118599257884971 -0.23850992578849706 0.0
0.5703458070500929 -0.19699580705009279 0.0
0.5280004823747682 -0.15465048237476808 0.0
0.4848239517625232 -0.11147395176252317 0.0
0.4408162152133581 -0.06746621521335805 0.0
0.39597727272727273 -0.022627272727272718 0.0
0.39597727272727273 0.02262727272727273 0.0
0.4408162152133581 0.06746621521335806 0.0
0.4848239517625232 0.11147395176252319 0.0
0.528000482374768 0.15465048237476808 0.0
0.5703458070500929 0.19699580705009276 0.0
0.6118599257884971 0.23850992578849717 0.0
0.6525428385899814 0.2791928385899814 0.0
0.6923945454545455 0.3190445454545454 0.0
0.7314150463821891 0.3580650463821891 0.0
0.7696043413729128 0.39625434137291277 0.0
0.8069624304267162 0.43361243042671616 0.0
0.8434893135435992 0.4701393135435992 0.0
0.8791849907235619 0.5058349907235621 0.0
0.9140494619666046 0.5406994619666047 0.0
0.9480827272727271 0.5747327272727272 0.0
0.9812847866419294 0.6079347866419295 0.0
1.0136556400742114 0.6403056400742114 0.0
1.0451952875695731 0.6718452875695732 0.0
1.0759037291280147 0.7025537291280147 0.0
1.105780964749536 0.7324309647495362 0.0
1.1348269944341371 0.7614769944341373 0.0
1.163041818181818 0.789691818181818 0.0
1.1904254359925786 0.8170754359925786 0.0
1.216977847866419 0.843627847866419 0.0
1.2426990538033393 0.8693490538033394 0.0
1.2675890538033392 0.8942390538033393 0.0
1.291647847866419 0.9182978478664192 0.0
1.3148754359925787 0.9415254359925787 0.0
1.3372718181818182 0.9639218181818181 0.0
1.3588369944341372 0.9854869944341373 0.0
1.379570964749536 1.0062209647495362 0.0
1.3994737291280148 1.0261237291280147 0.0
1.418545287569573 1.0451952875695731 0.0
1.4367856400742112 1.0634356400742113 0.0
1.4541947866419291 1.0808447866419293 0.0
1.470772727272727 1.097422727272727 0.0
1.4865194619666047 1.1131694619666048 0.0
1.501434990723562 1.128084990723562 0.0
1.5155193135435991 1.1421693135435993 0.0
1.528772430426716 1.1554224304267162 0.0
1.5411943413729128 1.1678443413729127 0.0
1.5527850463821888 1.179435046382189 0.0
1.5635445454545451 1.1901945454545453 0.0
1.573472838589981 1.2001228385899811 0.0
1.5825699257884969 1.209219925788497 0.0
1.5908358070500925 1.2174858070500927 0.0
1.5982704823747678 1.224920482374768 0.0
1.604873951762523 1.2315239517625232 0.0
1.6106462152133578 1.237296215213358 0.0
1.6155872727272724 1.2422372727272726 0.0

CELLS 200 700
4 0 101 102 1
4 1 102 103 2
4 2 103 104 3
4 3 104 105 4
4 4 105 106 5
4 5 106 107 6
4 6 107 108 7
4 7 108 109 8
4 8 109 110 9
4 9 110 111 10
4 10 111 112 11
4 11 112 113 12
4 12 113 114 13
4 13 114 115 14
4 14 115 116 15
4 15 116 117 16
4 16 117 118 17
4 17 118 119 18
4 18 119 120 19
4 19 120 121 20
4 20 121 122 21
4 21 122 123 22
4 22 123 124 23
4 23 124 125 24
4 24 125 126 25
4 25 126 127 26
4 26 127 128 27
4 27 128 129 28
4 28 129 130 29
4 29 130 131 30
4 30 131 132 31
4 31 132 133 32
4 32 133 134 33
4 33 134 135 34
4 34 135 136 35
4 35 136 137 36
4 36 137 138 37
4 37 138 139 38
4 38 139 140 39
4 39 140 141 40
4 40 141 142 41
4 41 142 143 42
4 42 143 144 43
4 43 144 145 44
4 44 145 146 45
4 45 146 147 46
4 46 147 148 47
4 47 148 149 48
4 48 149 150 49
4 49 150 151 50
4 50 151 152 51
4 51 152 153 52
4 52 153 154 53
4 53 154 155 54
4 54 155 156 55
4 55 156 157 56
4 56 157 158 57
4 57 158 159 58
4 58 159 160 59
4 59 160 161 60
4 60 161 162 61
4 61 162 163 62
4 62 163 164 63
4 63 164 165 64
4 64 165 166 65
4 65 166 167 66
4 66 167 168 67
4 67 168 169 68
4 68 169 170 69
4 69 170 171 70
4 70 171 172 71
4 71 172 173 72
4 72 173 174 73
4 73 174 175 74
4 74 175 176 75
4 75 176 177 76
4 76 177 178 77
4 77 178 179 78
4 78 179 180 79
4 79 180 181 80
4 80 181 182 81
4 81 182 183 82
4 82 183 184 83
4 83 184 185 84
4 84 185 186 85
4 85 186 187 86
4 86 187 188 87
4 87 188 189 88
4 88 189 190 89
4 89 190 191 90
4 90 191 192 91
4 91 192 193 92
4 92 193 194 93
4 93 194 195 94
4 94 195 196 95
4 95 196 197 96
4 96 197 198 97
4 97 198 199 98
4 98 199 200 99
4 99 200 201 100
1 202
1 203
1 204
1 205
1 206
1 207
1 208
1 209
1 210
1 211
1 212
1 213
1 214
1 215
1 216
1 217
1 218
1 219
1 220
1 221
1 222
1 223
1 224
1 225
1 226
1 227
1 228
1 229
1 230
1 231
1 232
1 233
1 234
1 235
1 236
1 237
1 238
1 239
1 240
1 241
1 242
1 243
1 244
1 245
1 246
1 247
1 248
1 249
1 250
1 251
1 252
1 253
1 254
1 255
1 256
1 257
1 258
1 259
1 260
1 261
1 262
1 263
1 264
1 265
1 266
1 267
1 268
1 269
1 270
1 271
1 272
1 273
1 274
1 275
1 276
1 277
1 278
1 279
1 280
1 281
1 282
1 283
1 284
1 285
1 286
1 287
1 288
1 289
1 290
1 291
1 292
1 293
1 294
1 295
1 296
1 297
1 298
1 299
1 300
1 301

CELL_TYPES 200
9
9
9
9
9
9
9
9
9
9
9
9
9
9
9
9
9
9
9
9
9
9
9
9
9
9
9
9
9
9
9
9
9
9
9
9
9
9
9
9
9
9
9
9
9
9
9
9
9
9
9
9
9
9
9
9
9
9
9
9
9
9
9
9
9
9
9
9
9
9
9
9
9
9
9
9
9
9
9
9
9
9
9
9
9
9
9
9
9
9
9
9
9
9
9
9
9
9
9
9
1
1
1
1
1
1
1
1
1
1
1
1
1
1
1
1
1
1
1
1
1
1
1
1
1
1
1
1
1
1
1
1
1
1
1
1
1
1
1
1
1
1
1
1
1
1
1
1
1
1
1
1
1
1
1
1
1
1
1
1
1
1
1
1
1
1
1
1
1
1
1
1
1
1
1
1
1
1
1
1
1
1
1
1
1
1
1
1
1
1
1
1
1
1
1
1
1
1
1
1

CELL_DATA 200

VECTORS Vinf float
49.53022459037375 0.02942896373884377 4.314978446249009
49.53269973864413 0.03044996180274618 4.279869128630168
49.53546879220183 0.031477290794242836 4.240279761055367
49.53847055590098 0.032450810025747054 4.196943632823597
49.541636705160585 0.033315048423495676 4.150688116281551
49.54489539236108 0.03402398050420714 4.102391789009227
49.54817558158679 0.034544739365999715 4.05293270190512
49.55141131657916 0.03485945499854774 4.003138193381013
49.55454509262485 0.03496482502316784 3.9537469446518223
49.5575297753333 0.03486965252295526 3.905390173721389
49.56137390943351 0.025322377356246734 3.8393862205964195
49.56363601717582 0.026427201684957966 3.8000981190193373
49.56581108625425 0.02727594204314877 3.761230963541945
49.56787548153373 0.027843976467274587 3.723270660873918
49.56981107008313 0.028105084994001717 3.686660343319284
49.57160455842065 0.028030130356659674 3.651793311228447
49.57324626981795 0.02758617556648358 3.619009386004636
49.57472860493731 0.026736200436224194 3.5885945968758297
49.57604456303016 0.025439484747263076 3.560783227428883
49.57718665471638 0.02365248879687175 3.5357612515373975
49.57814633073975 0.021329861716508216 3.51367143080254
49.5789138814317 0.01842523685324899 3.4946215573308756
49.579478806280484 0.014891692356057147 3.478696592113686
49.58034713784359 0.01486145236578411 3.455220358570973
49.58083682585095 0.014968380422839274 3.4438109027577846
49.58125538218964 0.014767261870095272 3.433177138155472
49.581600296175694 0.014263390497736334 3.423584374082039
49.58187701606244 0.01345193542856823 3.415200878963792
49.58209181327632 0.012316322307161521 3.4081448534564043
49.582246194803076 0.01083141422575286 3.402517428233561
49.58233585831432 0.008969679535564878 3.3984161554620327
49.582353869923665 0.006706146479191023 3.3959265382174952
49.582678164557784 0.013664948550399673 3.3995794465437172
49.582642900333425 0.011530116845071554 3.398660798334983
49.58255610172732 0.0096250239209339 3.399202568325815
49.58242893965441 0.007971438088383182 3.40116707161346
49.58226748725197 0.006578825929623062 3.404588961743466
49.58205957148645 0.0054482305276359255 3.40961446661378
49.581771815326604 0.004587273088111578 3.4164969053374077
49.581242428501845 0.0033752545843432737 3.424708689157984
49.5807133929247 0.002035501162429857 3.4355946395162706
49.580002337625196 0.0007413462124745653 3.4491199158495385
49.579078589043895 -0.00046770725389106566 3.465955527109916
49.57790296734893 -0.0015415411845241236 3.4867610491960597
49.57644183032317 -0.002386920255224914 3.511785951823262
49.57488395922175 -0.002241398034414602 3.54110774396134
49.57302354312951 -0.0024686237152482904 3.5690521522554115
49.57162643328645 -0.0019902518211165248 3.5883254844009174
49.57113643722236 -0.0010618584164980194 3.592832414455117
49.57137383010724 -0.0002793339131213931 3.58619568507435
49.57137399570892 0.00028146616185997195 3.5861943177055493
49.57113694804084 0.0010639475273202404 3.592828960684728
49.57162726449354 0.0019923066173948476 3.588320470911428
49.57302470874469 0.0024706500805913123 3.56904559553504
49.57488549787998 0.0022433792727106576 3.5410991980893884
49.576443691663464 0.0023860776212700887 3.511774260352848
49.57790536123631 0.001541103865220887 3.486745172729858
49.57908158579679 0.0004675623617164514 3.4659344825708795
49.580005990635655 -0.0007413394439687799 3.4490927539221885
49.580717717075615 -0.002035507905412716 3.4355606154085256
49.581247378261686 -0.003375452689212184 3.424667420806629
49.581777489252886 -0.004587722100002467 3.4164484068733496
49.582065567497075 -0.005449507674405986 3.4095593023575286
49.582273547871594 -0.006580908289387818 3.4045279891273674
49.58243483709187 -0.007974148323601136 3.4011014345283646
49.582561742706254 -0.009628077269472197 3.3991334024582884
49.58264837132964 -0.011533251769245923 3.3985888750253324
49.58268365740873 -0.013668051310002585 3.399505033630069
49.58235766809845 -0.00671622858705602 3.395855758702958
49.58233962675847 -0.008978049210811575 3.398343216222094
49.58224982297003 -0.010838143567187363 3.4024430745864316
49.58209520831866 -0.012321276304122322 3.4080704154537966
49.58188027249157 -0.013454892861211822 3.4151275278683237
49.58160372023886 -0.014264248960818163 3.423512430368279
49.58125935263831 -0.014766141377735338 3.4331060148187005
49.580841631704075 -0.014965569710725452 3.443739574707861
49.58035291257551 -0.014857291363267057 3.455147847981249
49.57948835443791 -0.014889792508573464 3.478619391307712
49.578924390406996 -0.01842331719592699 3.4945420037008392
49.578157697300696 -0.02132802907881287 3.51358921395129
49.577198778709665 -0.023650803434276165 3.5356761604368465
49.57605735789019 -0.02543797332251484 3.5606951070966413
49.57474200073995 -0.026734867678036105 3.588503328457099
49.5732602131648 -0.02758501523251286 3.6189148771297464
49.571619010752016 -0.028029135319767095 3.651695489069998
49.56982600476214 -0.028104255008878067 3.6865591498448147
49.56789088000706 -0.027843322168418193 3.72316605241998
49.56582693396419 -0.027275484910928127 3.761122915170576
49.56365230000638 -0.02642697101561313 3.799986631576116
49.56139061120252 -0.02532240584698289 3.839271327417475
49.55754653256073 -0.034875865810103594 3.9052712475123954
49.55456220436482 -0.03497108487704906 3.9536246009151776
49.55142877498955 -0.03486577487923198 4.003012535483385
49.54819337579037 -0.03455113113114956 4.052803862252673
49.544913508384624 -0.03403045381877213 4.102259927632316
49.54165512586244 -0.03332161040577526 4.150553419507551
49.53848926093087 -0.03245746497016066 4.196806311994585
49.535487758051275 -0.03148403992295652 4.240140051006735
49.53271893882524 -0.03045680307152641 4.279727285667716
49.5302439957281 -0.02943589175008084 4.314834745545452
49.53022459037375 0.02942896373884377 4.314978446249009
49.53269973864413 0.03044996180274618 4.279869128630168
49.53546879220183 0.031477290794242836 4.240279761055367
49.53847055590098 0.032450810025747054 4.196943632823597
49.541636705160585 0.033315048423495676 4.150688116281551
49.54489539236108 0.03402398050420714 4.102391789009227
49.54817558158679 0.034544739365999715 4.05293270190512
49.55141131657916 0.03485945499854774 4.003138193381013
49.55454509262485 0.03496482502316784 3.9537469446518223
49.5575297753333 0.03486965252295526 3.905390173721389
49.56137390943351 0.025322377356246734 3.8393862205964195
49.56363601717582 0.026427201684957966 3.8000981190193373
49.56581108625425 0.02727594204314877 3.761230963541945
49.56787548153373 0.027843976467274587 3.723270660873918
49.56981107008313 0.028105084994001717 3.686660343319284
49.57160455842065 0.028030130356659674 3.651793311228447
49.57324626981795 0.02758617556648358 3.619009386004636
49.57472860493731 0.026736200436224194 3.5885945968758297
49.57604456303016 0.025439484747263076 3.560783227428883
49.57718665471638 0.02365248879687175 3.5357612515373975
49.57814633073975 0.021329861716508216 3.51367143080254
49.5789138814317 0.01842523685324899 3.4946215573308756
49.579478806280484 0.014891692356057147 3.478696592113686
49.58034713784359 0.01486145236578411 3.455220358570973
49.58083682585095 0.014968380422839274 3.4438109027577846
49.58125538218964 0.014767261870095272 3.433177138155472
49.581600296175694 0.014263390497736334 3.423584374082039
49.58187701606244 0.01345193542856823 3.415200878963792
49.58209181327632 0.012316322307161521 3.4081448534564043
49.582246194803076 0.01083141422575286 3.402517428233561
49.58233585831432 0.008969679535564878 3.3984161554620327
49.582353869923665 0.006706146479191023 3.3959265382174952
49.582678164557784 0.013664948550399673 3.3995794465437172
49.582642900333425 0.011530116845071554 3.398660798334983
49.58255610172732 0.0096250239209339 3.399202568325815
49.58242893965441 0.007971438088383182 3.40116707161346
49.58226748725197 0.006578825929623062 3.404588961743466
49.58205957148645 0.0054482305276359255 3.40961446661378
49.581771815326604 0.004587273088111578 3.4164969053374077
49.581242428501845 0.0033752545843432737 3.424708689157984
49.5807133929247 0.002035501162429857 3.4355946395162706
49.580002337625196 0.0007413462124745653 3.4491199158495385
49.579078589043895 -0.00046770725389106566 3.465955527109916
49.57790296734893 -0.0015415411845241236 3.4867610491960597
49.57644183032317 -0.002386920255224914 3.511785951823262
49.57488395922175 -0.002241398034414602 3.54110774396134
49.57302354312951 -0.0024686237152482904 3.5690521522554115
49.57162643328645 -0.0019902518211165248 3.5883254844009174
49.57113643722236 -0.0010618584164980194 3.592832414455117
49.57137383010724 -0.0002793339131213931 3.58619568507435
49.57137399570892 0.00028146616185997195 3.5861943177055493
49.57113694804084 0.0010639475273202404 3.592828960684728
49.57162726449354 0.0019923066173948476 3.588320470911428
49.57302470874469 0.0024706500805913123 3.56904559553504
49.57488549787998 0.0022433792727106576 3.5410991980893884
49.576443691663464 0.0023860776212700887 3.511774260352848
49.57790536123631 0.001541103865220887 3.486745172729858
49.57908158579679 0.0004675623617164514 3.4659344825708795
49.580005990635655 -0.0007413394439687799 3.4490927539221885
49.580717717075615 -0.002035507905412716 3.4355606154085256
49.581247378261686 -0.003375452689212184 3.424667420806629
49.581777489252886 -0.004587722100002467 3.4164484068733496
49.582065567497075 -0.005449507674405986 3.4095593023575286
49.582273547871594 -0.006580908289387818 3.4045279891273674
49.58243483709187 -0.007974148323601136 3.4011014345283646
49.582561742706254 -0.009628077269472197 3.3991334024582884
49.58264837132964 -0.011533251769245923 3.3985888750253324
49.58268365740873 -0.013668051310002585 3.399505033630069
49.58235766809845 -0.00671622858705602 3.395855758702958
49.58233962675847 -0.008978049210811575 3.398343216222094
49.58224982297003 -0.010838143567187363 3.4024430745864316
49.58209520831866 -0.012321276304122322 3.4080704154537966
49.58188027249157 -0.013454892861211822 3.4151275278683237
49.58160372023886 -0.014264248960818163 3.423512430368279
49.58125935263831 -0.014766141377735338 3.4331060148187005
49.580841631704075 -0.014965569710725452 3.443739574707861
49.58035291257551 -0.014857291363267057 3.455147847981249
49.57948835443791 -0.014889792508573464 3.478619391307712
49.578924390406996 -0.01842331719592699 3.4945420037008392
49.578157697300696 -0.02132802907881287 3.51358921395129
49.577198778709665 -0.023650803434276165 3.5356761604368465
49.57605735789019 -0.02543797332251484 3.5606951070966413
49.57474200073995 -0.026734867678036105 3.588503328457099
49.5732602131648 -0.02758501523251286 3.6189148771297464
49.571619010752016 -0.028029135319767095 3.651695489069998
49.56982600476214 -0.028104255008878067 3.6865591498448147
49.56789088000706 -0.027843322168418193 3.72316605241998
49.56582693396419 -0.027275484910928127 3.761122915170576
49.56365230000638 -0.02642697101561313 3.799986631576116
49.56139061120252 -0.02532240584698289 3.839271327417475
49.55754653256073 -0.034875865810103594 3.9052712475123954
49.55456220436482 -0.03497108487704906 3.9536246009151776
49.55142877498955 -0.03486577487923198 4.003012535483385
49.54819337579037 -0.03455113113114956 4.052803862252673
49.544913508384624 -0.03403045381877213 4.102259927632316
49.54165512586244 -0.03332161040577526 4.150553419507551
49.53848926093087 -0.03245746497016066 4.196806311994585
49.535487758051275 -0.03148403992295652 4.240140051006735
49.53271893882524 -0.03045680307152641 4.279727285667716
49.5302439957281 -0.02943589175008084 4.314834745545452

VECTORS L float
-0.006661496051765083 0.0 0.09071231560794867
-0.012018426981501464 0.0 0.16365983451542743
-0.017758076333723897 0.0 0.2418189866746188
-0.02407323246013358 0.0 0.3278150499013703
-0.03100603453958859 0.0 0.4222218506248098
-0.03855810093316251 0.0 0.5250614267294207
-0.04671433800244562 0.0 0.6361282419692222
-0.05545030036525384 0.0 0.755089413579351
-0.06473486554909264 0.0 0.8815211341259381
-0.07453093726847212 0.0 1.0149182483208787
-0.08479280709146739 0.0 1.1546583257565737
-0.09549388926568023 0.0 1.3003793373717618
-0.106584254300851 0.0 1.4514013728815183
-0.11800908045287972 0.0 1.606977902179944
-0.1297143179164936 0.0 1.766372906967792
-0.14164649687895428 0.0 1.9288582669413161
-0.15375349294066565 0.0 2.093724182837663
-0.16598548405899655 0.0 2.2602922075302025
-0.17829570962863098 0.0 2.427925582736037
-0.1906408979251168 0.0 2.596035059689588
-0.20298129313642557 0.0 2.7640792672424017
-0.21528010186733812 0.0 2.9315571746870397
-0.22750150926741206 0.0 3.0979810765604143
-0.23963611091972248 0.0 3.263222909071814
-0.2516193701859063 0.0 3.42640385042776
-0.2634536441813266 0.0 3.5875559984319705
-0.27511504784680163 0.0 3.746354100467018
-0.2865852742241269 0.0 3.9025488631973584
-0.29784908188002224 0.0 4.055932737793827
-0.3088932024914058 0.0 4.20632504407563
-0.3197055128267494 0.0 4.353560695041886
-0.33027488103099367 0.0 4.4974881036704595
-0.34059666393156074 0.0 4.638044041981776
-0.3506138597117446 0.0 4.774452292929831
-0.36032535286486156 0.0 4.906697666203986
-0.36971480383082467 0.0 5.034557659333324
-0.378760665216784 0.0 5.1577388526587296
-0.38743669611604625 0.0 5.275883913023909
-0.39565778352319214 0.0 5.387833821831548
-0.40347463388807475 0.0 5.494279069543052
-0.4107927141809393 0.0 5.593932361237902
-0.4175618480566014 0.0 5.686110425106727
-0.4237133201158609 0.0 5.769877535461039
-0.42916321351194736 0.0 5.844090962284955
-0.433808684281518 0.0 5.907350237276963
-0.4375309119010095 0.0 5.958037332782255
-0.44018396562656326 0.0 5.994165050190945
-0.4416769814494754 0.0 6.014496057142422
-0.4420385747012836 0.0 6.019420020306978
-0.4402194594777649 0.0 5.9946483844761165
-0.4402192357225779 0.0 5.994645337510241
-0.4420378964974523 0.0 6.019410784928091
-0.44167583833652946 0.0 6.01448049090602
-0.4401823519895459 0.0 5.9941430766358685
-0.43752881935627197 0.0 5.958008837744926
-0.43380610002903475 0.0 5.907315046454205
-0.42916012061489606 0.0 5.844048845041128
-0.42370971395485985 0.0 5.769828428892136
-0.4175577343043313 0.0 5.686054406459959
-0.4107881105961661 0.0 5.5938696723416514
-0.40346957089899743 0.0 5.494210124750542
-0.3956522988702508 0.0 5.387759135069784
-0.38743086808065724 0.0 5.275804550282946
-0.3787545468977766 0.0 5.157655537007039
-0.3697084670265353 0.0 5.0344713684782105
-0.36031886681842273 0.0 4.9066093430574975
-0.350607287702614 0.0 4.774362799194219
-0.3405900650458203 0.0 4.637954182256378