# vtk DataFile Version 4.0
[MyVLM domain - lattices] 
ASCII
DATASET UNSTRUCTURED_GRID
POINTS 302 float
1.2444999999999997 -1.2445 0.0
1.2399745454545452 -1.2399745454545454 0.0
1.2346178849721705 -1.2346178849721707 0.0
1.2284300185528754 -1.2284300185528756 0.0
1.2214109461966602 -1.2214109461966605 0.0
1.2135606679035247 -1.213560667903525 0.0
1.2048791836734691 -1.2048791836734694 0.0
1.1953664935064932 -1.1953664935064934 0.0
1.1850225974025972 -1.1850225974025974 0.0
1.1738474953617808 -1.173847495361781 0.0
1.1618411873840442 -1.1618411873840444 0.0
1.1490036734693874 -1.1490036734693876 0.0
1.1353349536178106 -1.1353349536178108 0.0
1.1208350278293133 -1.1208350278293135 0.0
1.1055038961038959 -1.105503896103896 0.0
1.0893415584415582 -1.0893415584415584 0.0
1.0723480148423004 -1.0723480148423006 0.0
1.054523265306122 -1.0545232653061223 0.0
1.0358673098330238 -1.035867309833024 0.0
1.0163801484230053 -1.0163801484230055 0.0
0.9960617810760664 -0.9960617810760668 0.0
0.9749122077922076 -0.9749122077922077 0.0
0.9529314285714284 -0.9529314285714284 0.0
0.9301194434137288 -0.930119443413729 0.0
0.9064762523191091 -0.9064762523191096 0.0
0.8820018552875695 -0.8820018552875695 0.0
0.8566962523191093 -0.8566962523191094 0.0
0.8305594434137288 -0.8305594434137291 0.0
0.8035914285714284 -0.8035914285714285 0.0
0.7757922077922076 -0.7757922077922077 0.0
0.7471617810760666 -0.7471617810760667 0.0
0.7177001484230053 -0.7177001484230054 0.0
0.6874073098330239 -0.687407309833024 0.0
0.6562832653061222 -0.6562832653061225 0.0
0.6243280148423004 -0.6243280148423005 0.0
0.5915415584415582 -0.5915415584415583 0.0
0.5579238961038958 -0.5579238961038959 0.0
0.5234750278293133 -0.5234750278293134 0.0
0.48819495361781057 -0.48819495361781057 0.0
0.4520836734693877 -0.4520836734693877 0.0
0.4151411873840445 -0.4151411873840446 0.0
0.37736749536178105 -0.37736749536178116 0.0
0.3387625974025974 -0.3387625974025974 0.0
0.2993264935064933 -0.29932649350649343 0.0
0.25905918367346925 -0.25905918367346925 0.0
0.21796066790352486 -0.21796066790352486 0.0
0.17603094619666027 -0.1760309461966605 0.0
0.13327001855287546 -0.13327001855287568 0.0
0.08967788497217066 -0.08967788497217066 0.0
0.045254545454545436 -0.045254545454545436 0.0
0.0 0.0 0.0
0.04525454545454545 0.04525454545454546 0.0
0.08967788497217066 0.08967788497217068 0.0
0.13327001855287568 0.1332700185528757 0.0
0.17603094619666046 0.1760309461966605 0.0
0.21796066790352497 0.21796066790352508 0.0
0.2590591836734693 0.25905918367346936 0.0
0.29932649350649343 0.2993264935064935 0.0
0.3387625974025973 0.33876259740259734 0.0
0.37736749536178094 0.377367495361781 0.0
0.41514118738404443 0.4151411873840445 0.0
0.45208367346938766 0.4520836734693878 0.0
0.48819495361781057 0.4881949536178107 0.0
0.5234750278293133 0.5234750278293134 0.0
0.5579238961038959 0.557923896103896 0.0
0.5915415584415582 0.5915415584415583 0.0
0.6243280148423003 0.6243280148423004 0.0
0.6562832653061222 0.6562832653061225 0.0
0.687407309833024 0.6874073098330241 0.0
0.7177001484230054 0.7177001484230056 0.0
0.7471617810760667 0.7471617810760669 0.0
0.7757922077922076 0.7757922077922077 0.0
0.8035914285714284 0.8035914285714285 0.0
0.8305594434137288 0.830559443413729 0.0
0.8566962523191093 0.8566962523191094 0.0
0.8820018552875692 0.8820018552875695 0.0
0.9064762523191091 0.9064762523191093 0.0
0.9301194434137288 0.9301194434137292 0.0
0.9529314285714284 0.9529314285714284 0.0
0.9749122077922076 0.9749122077922077 0.0
0.9960617810760666 0.9960617810760668 0.0
1.0163801484230053 1.0163801484230055 0.0
1.0358673098330238 1.035867309833024 0.0
1.054523265306122 1.0545232653061223 0.0
1.0723480148423001 1.0723480148423004 0.0
1.0893415584415582 1.0893415584415584 0.0
1.1055038961038959 1.105503896103896 0.0
1.120835027829313 1.1208350278293133 0.0
1.1353349536178106 1.1353349536178106 0.0
1.1490036734693874 1.1490036734693876 0.0
1.1618411873840444 1.1618411873840446 0.0
1.1738474953617808 1.173847495361781 0.0
1.1850225974025972 1.1850225974025972 0.0
1.1953664935064932 1.1953664935064934 0.0
1.2048791836734691 1.2048791836734694 0.0
1.2135606679035245 1.2135606679035247 0.0
1.22141094619666 1.2214109461966602 0.0
1.2284300185528754 1.2284300185528756 0.0
1.2346178849721703 1.2346178849721705 0.0
1.2399745454545452 1.2399745454545454 0.0
1.2444999999999997 1.2445 0.0
1.7422999999999997 -1.2445 0.0
1.7377745454545452 -1.2399745454545454 0.0
1.7324178849721703 -1.2346178849721707 0.0
1.7262300185528754 -1.2284300185528756 0.0
1.7192109461966603 -1.2214109461966605 0.0
1.7113606679035245 -1.213560667903525 0.0
1.7026791836734692 -1.2048791836734694 0.0
1.6931664935064934 -1.1953664935064934 0.0
1.6828225974025972 -1.1850225974025974 0.0
1.6716474953617806 -1.173847495361781 0.0
1.6596411873840444 -1.1618411873840444 0.0
1.6468036734693878 -1.1490036734693876 0.0
1.6331349536178106 -1.1353349536178108 0.0
1.6186350278293133 -1.1208350278293135 0.0
1.603303896103896 -1.105503896103896 0.0
1.5871415584415582 -1.0893415584415584 0.0
1.5701480148423004 -1.0723480148423006 0.0
1.552323265306122 -1.0545232653061223 0.0
1.5336673098330238 -1.035867309833024 0.0
1.5141801484230053 -1.0163801484230055 0.0
1.4938617810760666 -0.9960617810760668 0.0
1.4727122077922075 -0.9749122077922077 0.0
1.4507314285714283 -0.9529314285714284 0.0
1.4279194434137288 -0.930119443413729 0.0
1.4042762523191092 -0.9064762523191096 0.0
1.3798018552875693 -0.8820018552875695 0.0
1.3544962523191093 -0.8566962523191094 0.0
1.328359443413729 -0.8305594434137291 0.0
1.3013914285714283 -0.8035914285714285 0.0
1.2735922077922077 -0.7757922077922077 0.0
1.2449617810760665 -0.7471617810760667 0.0
1.2155001484230055 -0.7177001484230054 0.0
1.1852073098330238 -0.687407309833024 0.0
1.1540832653061224 -0.6562832653061225 0.0
1.1221280148423003 -0.6243280148423005 0.0
1.0893415584415582 -0.5915415584415583 0.0
1.055723896103896 -0.5579238961038959 0.0
1.0212750278293132 -0.5234750278293134 0.0
0.9859949536178108 -0.48819495361781057 0.0
0.9498836734693876 -0.4520836734693877 0.0
0.9129411873840445 -0.4151411873840446 0.0
0.875167495361781 -0.37736749536178116 0.0
0.8365625974025973 -0.3387625974025974 0.0
0.7971264935064933 -0.29932649350649343 0.0
0.7568591836734693 -0.25905918367346925 0.0
0.7157606679035249 -0.21796066790352486 0.0
0.6738309461966603 -0.1760309461966605 0.0
0.6310700185528755 -0.13327001855287568 0.0
0.5874778849721707 -0.08967788497217066 0.0
0.5430545454545455 -0.045254545454545436 0.0
0.4978 0.0 0.0
0.5430545454545455 0.04525454545454546 0.0
0.5874778849721707 0.08967788497217068 0.0
0.6310700185528757 0.1332700185528757 0.0
0.6738309461966605 0.1760309461966605 0.0
0.715760667903525 0.21796066790352508 0.0
0.7568591836734693 0.25905918367346936 0.0
0.7971264935064934 0.2993264935064935 0.0
0.8365625974025973 0.33876259740259734 0.0
0.875167495361781 0.377367495361781 0.0
0.9129411873840445 0.4151411873840445 0.0
0.9498836734693876 0.4520836734693878 0.0
0.9859949536178105 0.4881949536178107 0.0
1.0212750278293132 0.5234750278293134 0.0
1.055723896103896 0.557923896103896 0.0
1.0893415584415582 0.5915415584415583 0.0
1.1221280148423003 0.6243280148423004 0.0
1.1540832653061224 0.6562832653061225 0.0
1.185207309833024 0.6874073098330241 0.0
1.2155001484230055 0.7177001484230056 0.0
1.2449617810760667 0.7471617810760669 0.0
1.2735922077922077 0.7757922077922077 0.0
1.3013914285714283 0.8035914285714285 0.0
1.3283594434137287 0.830559443413729 0.0
1.3544962523191093 0.8566962523191094 0.0
1.3798018552875693 0.8820018552875695 0.0
1.4042762523191092 0.9064762523191093 0.0
1.427919443413729 0.9301194434137292 0.0
1.4507314285714283 0.9529314285714284 0.0
1.4727122077922075 0.9749122077922077 0.0
1.4938617810760666 0.9960617810760668 0.0
1.5141801484230053 1.0163801484230055 0.0
1.5336673098330238 1.035867309833024 0.0
1.552323265306122 1.0545232653061223 0.0
1.5701480148423002 1.0723480148423004 0.0
1.5871415584415582 1.0893415584415584 0.0
1.603303896103896 1.105503896103896 0.0
1.6186350278293131 1.1208350278293133 0.0
1.6331349536178106 1.1353349536178106 0.0
1.6468036734693874 1.1490036734693876 0.0
1.6596411873840444 1.1618411873840446 0.0
1.6716474953617806 1.173847495361781 0.0
1.6828225974025972 1.1850225974025972 0.0
1.6931664935064934 1.1953664935064934 0.0
1.7026791836734692 1.2048791836734694 0.0
1.7113606679035245 1.2135606679035247 0.0
1.71921094619666 1.2214109461966602 0.0
1.7262300185528754 1.2284300185528756 0.0
1.7324178849721703 1.2346178849721705 0.0
1.7377745454545452 1.2399745454545454 0.0
1.7422999999999997 1.2445 0.0
1.6155872727272724 -1.2422372727272726 0.0
1.6106462152133578 -1.237296215213358 0.0
1.604873951762523 -1.2315239517625232 0.0
1.598270482374768 -1.224920482374768 0.0
1.5908358070500925 -1.2174858070500927 0.0
1.582569925788497 -1.2092199257884972 0.0
1.5734728385899812 -1.2001228385899814 0.0
1.5635445454545454 -1.1901945454545453 0.0
1.552785046382189 -1.1794350463821892 0.0
1.5411943413729126 -1.1678443413729127 0.0
1.5287724304267158 -1.155422430426716 0.0
1.5155193135435991 -1.142169313543599 0.0
1.501434990723562 -1.1280849907235622 0.0
1.4865194619666047 -1.1131694619666048 0.0
1.4707727272727271 -1.0974227272727273 0.0
1.4541947866419294 -1.0808447866419293 0.0
1.4367856400742112 -1.0634356400742113 0.0
1.418545287569573 -1.0451952875695731 0.0
1.3994737291280146 -1.0261237291280147 0.0
1.379570964749536 -1.0062209647495362 0.0
1.358836994434137 -0.9854869944341371 0.0
1.337271818181818 -0.9639218181818181 0.0
1.3148754359925787 -0.9415254359925787 0.0
1.291647847866419 -0.9182978478664192 0.0
1.2675890538033394 -0.8942390538033393 0.0
1.2426990538033393 -0.8693490538033395 0.0
1.2169778478664193 -0.8436278478664192 0.0
1.1904254359925788 -0.8170754359925788 0.0
1.163041818181818 -0.7896918181818181 0.0
1.1348269944341371 -0.7614769944341371 0.0
1.105780964749536 -0.7324309647495362 0.0
1.0759037291280147 -0.7025537291280148 0.0
1.0451952875695731 -0.6718452875695733 0.0
1.0136556400742114 -0.6403056400742114 0.0
0.9812847866419293 -0.6079347866419293 0.0
0.9480827272727271 -0.5747327272727272 0.0
0.9140494619666047 -0.5406994619666048 0.0
0.8791849907235622 -0.5058349907235622 0.0
0.8434893135435992 -0.47013931354359917 0.0
0.8069624304267162 -0.43361243042671627 0.0
0.7696043413729128 -0.3962543413729128 0.0
0.7314150463821893 -0.3580650463821894 0.0
0.6923945454545455 -0.3190445454545454 0.0
0.6525428385899814 -0.27919283858998134 0.0
0.6118599257884971 -0.23850992578849706 0.0
0.5703458070500929 -0.19699580705009279 0.0
0.5280004823747682 -0.15465048237476808 0.0
0.4848239517625232 -0.11147395176252317 0.0
0.4408162152133581 -0.06746621521335805 0.0
0.39597727272727273 -0.022627272727272718 0.0
0.39597727272727273 0.02262727272727273 0.0
0.4408162152133581 0.06746621521335806 0.0
0.4848239517625232 0.11147395176252319 0.0
0.528000482374768 0.15465048237476808 0.0
0.5703458070500929 0.19699580705009276 0.0
0.6118599257884971 0.23850992578849717 0.0
0.6525428385899814 0.2791928385899814 0.0
0.6923945454545455 0.3190445454545454 0.0
0.7314150463821891 0.3580650463821891 0.0
0.7696043413729128 0.39625434137291277 0.0
0.8069624304267162 0.43361243042671616 0.0
0.8434893135435992 0.4701393135435992 0.0
0.8791849907235619 0.5058349907235621 0.0
0.9140494619666046 0.5406994619666047 0.0
0.9480827272727271 0.5747327272727272 0.0
0.9812847866419294 0.6079347866419295 0.0
1.0136556400742114 0.6403056400742114 0.0
1.0451952875695731 0.6718452875695732 0.0
1.0759037291280147 0.7025537291280147 0.0
1.105780964749536 0.7324309647495362 0.0
1.1348269944341371 0.7614769944341373 0.0
1.163041818181818 0.789691818181818 0.0
1.1904254359925786 0.8170754359925786 0.0
1.216977847866419 0.843627847866419 0.0
1.2426990538033393 0.8693490538033394 0.0
1.2675890538033392 0.8942390538033393 0.0
1.291647847866419 0.9182978478664192 0.0
1.3148754359925787 0.9415254359925787 0.0
1.3372718181818182 0.9639218181818181 0.0
1.3588369944341372 0.9854869944341373 0.0
1.379570964749536 1.0062209647495362 0.0
1.3994737291280148 1.0261237291280147 0.0
1.418545287569573 1.0451952875695731 0.0
1.4367856400742112 1.0634356400742113 0.0
1.4541947866419291 1.0808447866419293 0.0
1.470772727272727 1.097422727272727 0.0
1.4865194619666047 1.1131694619666048 0.0
1.501434990723562 1.128084990723562 0.0
1.5155193135435991 1.1421693135435993 0.0
1.528772430426716 1.1554224304267162 0.0
1.5411943413729128 1.1678443413729127 0.0
1.5527850463821888 1.179435046382189 0.0
1.5635445454545451 1.1901945454545453 0.0
1.573472838589981 1.2001228385899811 0.0
1.5825699257884969 1.209219925788497 0.0
1.5908358070500925 1.2174858070500927 0.0
1.5982704823747678 1.224920482374768 0.0
1.604873951762523 1.2315239517625232 0.0
1.6106462152133578 1.237296215213358 0.0
1.6155872727272724 1.2422372727272726 0.0

CELLS 200 700
4 0 101 102 1
4 1 102 103 2
4 2 103 104 3
4 3 104 105 4
4 4 105 106 5
4 5 106 107 6
4 6 107 108 7
4 7 108 109 8
4 8 109 110 9
4 9 110 111 10
4 10 111 112 11
4 11 112 113 12
4 12 113 114 13
4 13 114 115 14
4 14 115 116 15
4 15 116 117 16
4 16 117 118 17
4 17 118 119 18
4 18 119 120 19
4 19 120 121 20
4 20 121 122 21
4 21 122 123 22
4 22 123 124 23
4 23 124 125 24
4 24 125 126 25
4 25 126 127 26
4 26 127 128 27
4 27 128 129 28
4 28 129 130 29
4 29 130 131 30
4 30 131 132 31
4 31 132 133 32
4 32 133 134 33
4 33 134 135 34
4 34 135 136 35
4 35 136 137 36
4 36 137 138 37
4 37 138 139 38
4 38 139 140 39
4 39 140 141 40
4 40 141 142 41
4 41 142 143 42
4 42 143 144 43
4 43 144 145 44
4 44 145 146 45
4 45 146 147 46
4 46 147 148 47
4 47 148 149 48
4 48 149 150 49
4 49 150 151 50
4 50 151 152 51
4 51 152 153 52
4 52 153 154 53
4 53 154 155 54
4 54 155 156 55
4 55 156 157 56
4 56 157 158 57
4 57 158 159 58
4 58 159 160 59
4 59 160 161 60
4 60 161 162 61
4 61 162 163 62
4 62 163 164 63
4 63 164 165 64
4 64 165 166 65
4 65 166 167 66
4 66 167 168 67
4 67 168 169 68
4 68 169 170 69
4 69 170 171 70
4 70 171 172 71
4 71 172 173 72
4 72 173 174 73
4 73 174 175 74
4 74 175 176 75
4 75 176 177 76
4 76 177 178 77
4 77 178 179 78
4 78 179 180 79
4 79 180 181 80
4 80 181 182 81
4 81 182 183 82
4 82 183 184 83
4 83 184 185 84
4 84 185 186 85
4 85 186 187 86
4 86 187 188 87
4 87 188 189 88
4 88 189 190 89
4 89 190 191 90
4 90 191 192 91
4 91 192 193 92
4 92 193 194 93
4 93 194 195 94
4 94 195 196 95
4 95 196 197 96
4 96 197 198 97
4 97 198 199 98
4 98 199 200 99
4 99 200 201 100
1 202
1 203
1 204
1 205
1 206
1 207
1 208
1 209
1 210
1 211
1 212
1 213
1 214
1 215
1 216
1 217
1 218
1 219
1 220
1 221
1 222
1 223
1 224
1 225
1 226
1 227
1 228
1 229
1 230
1 231
1 232
1 233
1 234
1 235
1 236
1 237
1 238
1 239
1 240
1 241
1 242
1 243
1 244
1 245
1 246
1 247
1 248
1 249
1 250
1 251
1 252
1 253
1 254
1 255
1 256
1 257
1 258
1 259
1 260
1 261
1 262
1 263
1 264
1 265
1 266
1 267
1 268
1 269
1 270
1 271
1 272
1 273
1 274
1 275
1 276
1 277
1 278
1 279
1 280
1 281
1 282
1 283
1 284
1 285
1 286
1 287
1 288
1 289
1 290
1 291
1 292
1 293
1 294
1 295
1 296
1 297
1 298
1 299
1 300
1 301

CELL_TYPES 200
9
9
9
9
9
9
9
9
9
9
9
9
9
9
9
9
9
9
9
9
9
9
9
9
9
9
9
9
9
9
9
9
9
9
9
9
9
9
9
9
9
9
9
9
9
9
9
9
9
9
9
9
9
9
9
9
9
9
9
9
9
9
9
9
9
9
9
9
9
9
9
9
9
9
9
9
9
9
9
9
9
9
9
9
9
9
9
9
9
9
9
9
9
9
9
9
9
9
9
9
1
1
1
1
1
1
1
1
1
1
1
1
1
1
1
1
1
1
1
1
1
1
1
1
1
1
1
1
1
1
1
1
1
1
1
1
1
1
1
1
1
1
1
1
1
1
1
1
1
1
1
1
1
1
1
1
1
1
1
1
1
1
1
1
1
1
1
1
1
1
1
1
1
1
1
1
1
1
1
1
1
1
1
1
1
1
1
1
1
1
1
1
1
1
1
1
1
1
1
1

CELL_DATA 200

VECTORS Vinf float
49.53021161048618 0.02895779710403435 4.3091563598235085
49.53264982789226 0.02998112129665608 4.274296554080353
49.53538366116709 0.031014649023425513 4.2349586993691295
49.5383555491907 0.0319988705276727 4.191859223362778
49.54150113828867 0.03287830906763902 4.1458076828834995
49.54475269926203 0.03360604177826558 4.097664590722155
49.54804320813596 0.03414719194570566 4.04829045223253
49.55131030293364 0.03448061706758262 3.9984963535782474
49.554499296973766 0.03459842939947673 3.9490067478953286
49.55756469833074 0.034503603731147345 3.900441335940905
49.56047016166046 0.03420649210875045 3.853316477924123
49.56318726578036 0.03372130316859462 3.8080604392488704
49.56569375642178 0.033063405634296404 3.7650338998229844
49.56797185171613 0.03224782110112322 3.7245484182009756
49.57000698672203 0.03128876580920044 3.6868793190370526
49.572156767483854 0.02150762279707078 3.640991079825571
49.573697333978174 0.022725791250459152 3.6119904402415846
49.57512486234 0.023498045117613005 3.584016699330779
49.576416743519715 0.023807979847860636 3.5575569765795687
49.57756136963172 0.023637377018645392 3.5329745708802442
49.578555172890965 0.022961736354773426 3.510537793453237
49.57939835606507 0.021747454712975282 3.4904463565888255
49.58009034326002 0.01995164937983621 3.4728506721266417
49.58062670455536 0.017524835185942684 3.4578638772001016
49.580998809066905 0.014415035877765457 3.445570578749484
49.58161309783227 0.0150090427235696 3.431927547761783
49.58179795345483 0.01284142402376147 3.4205005413725202
49.58211173491544 0.012590315932829683 3.412606862092525
49.58234491594528 0.012056570342911146 3.4058198442775414
49.58249965599905 0.011242898890508286 3.400370997105361
49.58258069719687 0.010138608153355993 3.396437037563438
49.58258818534856 0.008722509674257273 3.3941747310675217
49.58251537645813 0.00697007844217498 3.393716961485889
49.58285238474716 0.012840972717463886 3.3986111710099145
49.58276204667409 0.010803172323642253 3.3989351980815
49.58260969889981 0.00896526484357892 3.4006436640040456
49.58240174201509 0.007353945380680711 3.403757436348039
49.582142846653596 0.005980774131922508 3.4084099280633695
49.58181615838695 0.004843366062039452 3.414875123219611
49.581229345824774 0.003443534437925484 3.42380007827371
49.58067168067166 0.002184704750272755 3.4339556678128362
49.579947868870484 0.000874774215869176 3.4470667544130236
49.57899742730182 -0.00035272603898072754 3.463567902923725
49.57779782153937 -0.0014402666189433175 3.484143973969907
49.57633137005911 -0.002303650905833092 3.5090449257727925
49.57480409367295 -0.001855594414189149 3.5387300385966505
49.57296184387896 -0.002055494978504149 3.566775204924807
49.571578974040236 -0.0015837835977291004 3.58614165157644
49.57108305788635 -0.0006840528123852011 3.5907545678548334
49.5712981423425 6.546598098655982e-5 3.584263119495707
49.57130033685725 -5.098747878680935e-5 3.584251237091675
49.57108922490187 0.0007017717546272172 3.5906885859838154
49.5715923033634 0.0016024793253390619 3.5859927162688705
49.572984332710625 0.00206988617696937 3.566533399987469
49.57483327809408 0.0018592110144458134 3.538426410373771
49.57635978767007 0.0022900418285065277 3.508743652709231
49.57781741063047 0.001413876668515033 3.4838461444048474
49.57900215087922 0.0003199431606786456 3.463292890520738
49.579937991389336 -0.0009056654944240853 3.4468278720346364
49.580652612459254 -0.002209001250244575 3.433764493662016
49.58120770896801 -0.003461698871311206 3.4236142612161222
49.58179500890301 -0.004890507917254567 3.414853092064539
49.58212009871195 -0.0059995415158823765 3.4083698928856414
49.58237714957208 -0.0073347258454914905 3.403663601429136
49.5825829897749 -0.00889905354776667 3.400474164953129
49.58273277314136 -0.010682286430600357 3.398689453138708
49.58281892319477 -0.012659148826504566 3.3983203542252745
49.5825079431662 -0.007024536474405653 3.393570719500113
49.58257445409049 -0.00874006330802585 3.3940927727056005
49.58256323655033 -0.01013795376333585 3.396377728835286
49.58248111297453 -0.01123979648793001 3.4003217053992425
49.582328475273705 -0.012065268525291844 3.405792803789959
49.582100297423494 -0.0126244614403795 3.412638029572411
49.58179295281033 -0.012913934139780908 3.4206495342161642
49.58160572585629 -0.014978028320678674 3.4319253048668217
49.58100164587245 -0.014386791995568757 3.4455743335714035
49.5806349932227 -0.017497646704162474 3.4578548995553793
49.58010309485234 -0.019926826165500136 3.472823289295317
49.579414255525926 -0.021725744357315963 3.490396491139225
49.57857284762525 -0.022943222957656315 3.5104638242197033
49.57757965737952 -0.02362155080052252 3.5328776433569264
49.57643487801066 -0.023793963722257838 3.557440418518711
49.57514251669976 -0.023484871633395632 3.5838849184931125
49.573714535879624 -0.022712616961014398 3.6118478986778793
49.57217375431017 -0.02149383098754841 3.640841668383388
49.57004602006441 -0.03137695073258442 3.686557291076235
49.568005666287654 -0.032310905034276825 3.724267079900003
49.5657239882828 -0.03310593137715998 3.764776375433641
49.56321513908857 -0.03374720611945385 3.807816884439259
49.560496589972004 -0.034219161897030385 3.8530814990101145
49.55759036433215 -0.03450594034938964 3.9002122488210653
49.554524711913956 -0.034592894471603894 3.9487824323571092
49.551335849047256 -0.034469280178072624 3.998276515795539
49.548069167944064 -0.03413177194316349 4.0480751629411165
49.5447792754169 -0.03358794328346808 4.097454009162089
49.541528467047385 -0.03285865481097971 4.145601905403534
49.53838370990556 -0.03197853042849804 4.19165821382435
49.53541268350279 -0.030994267016438874 4.23476227044627
49.53267969789347 -0.029961140820981693 4.274104377271155
49.53024227616169 -0.028938485969228756 4.3089679889073835
49.53021161048618 0.02895779710403435 4.3091563598235085
49.53264982789226 0.02998112129665608 4.274296554080353
49.53538366116709 0.031014649023425513 4.2349586993691295
49.5383555491907 0.0319988705276727 4.191859223362778
49.54150113828867 0.03287830906763902 4.1458076828834995
49.54475269926203 0.03360604177826558 4.097664590722155
49.54804320813596 0.03414719194570566 4.04829045223253
49.55131030293364 0.03448061706758262 3.9984963535782474
49.554499296973766 0.03459842939947673 3.9490067478953286
49.55756469833074 0.034503603731147345 3.900441335940905
49.56047016166046 0.03420649210875045 3.853316477924123
49.56318726578036 0.03372130316859462 3.8080604392488704
49.56569375642178 0.033063405634296404 3.7650338998229844
49.56797185171613 0.03224782110112322 3.7245484182009756
49.57000698672203 0.03128876580920044 3.6868793190370526
49.572156767483854 0.02150762279707078 3.640991079825571
49.573697333978174 0.022725791250459152 3.6119904402415846
49.57512486234 0.023498045117613005 3.584016699330779
49.576416743519715 0.023807979847860636 3.5575569765795687
49.57756136963172 0.023637377018645392 3.5329745708802442
49.578555172890965 0.022961736354773426 3.510537793453237
49.57939835606507 0.021747454712975282 3.4904463565888255
49.58009034326002 0.01995164937983621 3.4728506721266417
49.58062670455536 0.017524835185942684 3.4578638772001016
49.580998809066905 0.014415035877765457 3.445570578749484
49.58161309783227 0.0150090427235696 3.431927547761783
49.58179795345483 0.01284142402376147 3.4205005413725202
49.58211173491544 0.012590315932829683 3.412606862092525
49.58234491594528 0.012056570342911146 3.4058198442775414
49.58249965599905 0.011242898890508286 3.400370997105361
49.58258069719687 0.010138608153355993 3.396437037563438
49.58258818534856 0.008722509674257273 3.3941747310675217
49.58251537645813 0.00697007844217498 3.393716961485889
49.58285238474716 0.012840972717463886 3.3986111710099145
49.58276204667409 0.010803172323642253 3.3989351980815
49.58260969889981 0.00896526484357892 3.4006436640040456
49.58240174201509 0.007353945380680711 3.403757436348039
49.582142846653596 0.005980774131922508 3.4084099280633695
49.58181615838695 0.004843366062039452 3.414875123219611
49.581229345824774 0.003443534437925484 3.42380007827371
49.58067168067166 0.002184704750272755 3.4339556678128362
49.579947868870484 0.000874774215869176 3.4470667544130236
49.57899742730182 -0.00035272603898072754 3.463567902923725
49.57779782153937 -0.0014402666189433175 3.484143973969907
49.57633137005911 -0.002303650905833092 3.5090449257727925
49.57480409367295 -0.001855594414189149 3.5387300385966505
49.57296184387896 -0.002055494978504149 3.566775204924807
49.571578974040236 -0.0015837835977291004 3.58614165157644
49.57108305788635 -0.0006840528123852011 3.5907545678548334
49.5712981423425 6.546598098655982e-5 3.584263119495707
49.57130033685725 -5.098747878680935e-5 3.584251237091675
49.57108922490187 0.0007017717546272172 3.5906885859838154
49.5715923033634 0.0016024793253390619 3.5859927162688705
49.572984332710625 0.00206988617696937 3.566533399987469
49.57483327809408 0.0018592110144458134 3.538426410373771
49.57635978767007 0.0022900418285065277 3.508743652709231
49.57781741063047 0.001413876668515033 3.4838461444048474
49.57900215087922 0.0003199431606786456 3.463292890520738
49.579937991389336 -0.0009056654944240853 3.4468278720346364
49.580652612459254 -0.002209001250244575 3.433764493662016
49.58120770896801 -0.003461698871311206 3.4236142612161222
49.58179500890301 -0.004890507917254567 3.414853092064539
49.58212009871195 -0.0059995415158823765 3.4083698928856414
49.58237714957208 -0.0073347258454914905 3.403663601429136
49.5825829897749 -0.00889905354776667 3.400474164953129
49.58273277314136 -0.010682286430600357 3.398689453138708
49.58281892319477 -0.012659148826504566 3.3983203542252745
49.5825079431662 -0.007024536474405653 3.393570719500113
49.58257445409049 -0.00874006330802585 3.3940927727056005
49.58256323655033 -0.01013795376333585 3.396377728835286
49.58248111297453 -0.01123979648793001 3.4003217053992425
49.582328475273705 -0.012065268525291844 3.405792803789959
49.582100297423494 -0.0126244614403795 3.412638029572411
49.58179295281033 -0.012913934139780908 3.4206495342161642
49.58160572585629 -0.014978028320678674 3.4319253048668217
49.58100164587245 -0.014386791995568757 3.4455743335714035
49.5806349932227 -0.017497646704162474 3.4578548995553793
49.58010309485234 -0.019926826165500136 3.472823289295317
49.579414255525926 -0.021725744357315963 3.490396491139225
49.57857284762525 -0.022943222957656315 3.5104638242197033
49.57757965737952 -0.02362155080052252 3.5328776433569264
49.57643487801066 -0.023793963722257838 3.557440418518711
49.57514251669976 -0.023484871633395632 3.5838849184931125
49.573714535879624 -0.022712616961014398 3.6118478986778793
49.57217375431017 -0.02149383098754841 3.640841668383388
49.57004602006441 -0.03137695073258442 3.686557291076235
49.568005666287654 -0.032310905034276825 3.724267079900003
49.5657239882828 -0.03310593137715998 3.764776375433641
49.56321513908857 -0.03374720611945385 3.807816884439259
49.560496589972004 -0.034219161897030385 3.8530814990101145
49.55759036433215 -0.03450594034938964 3.9002122488210653
49.554524711913956 -0.034592894471603894 3.9487824323571092
49.551335849047256 -0.034469280178072624 3.998276515795539
49.548069167944064 -0.03413177194316349 4.0480751629411165
49.5447792754169 -0.03358794328346808 4.097454009162089
49.541528467047385 -0.03285865481097971 4.145601905403534
49.53838370990556 -0.03197853042849804 4.19165821382435
49.53541268350279 -0.030994267016438874 4.23476227044627
49.53267969789347 -0.029961140820981693 4.274104377271155
49.53024227616169 -0.028938485969228756 4.3089679889073835

VECTORS L float
-0.006656636321640712 0.0 0.09064613867571215
-0.012009939506358324 0.0 0.1635442570958934
-0.01774592237345895 0.0 0.24165348122796337
-0.024057286634145185 0.0 0.3275979090686732
-0.030986203406921844 0.0 0.4219518019823803
-0.03853436840734277 0.0 0.5247382512211558
-0.046686818855654386 0.0 0.6357535024948475
-0.05541934905119777 0.0 0.7546679368799253
-0.06470134032291837 0.0 0.881064607412732
-0.07449701852500544 0.0 1.0144563629217933
-0.08476613577301627 0.0 1.1542951315073815
-0.09546448060310861 0.0 1.2999788675883868
-0.10654439799891773 0.0 1.450858633320939
-0.11795535306057345 0.0 1.6062462743098969
-0.12964423526021443 0.0 1.7654185627805943
-0.14155275108770876 0.0 1.9275816921694782
-0.15364595148220056 0.0 2.0922597468242787
-0.16587128809529256 0.0 2.2587371543979673
-0.17817615056961456 0.0 2.426297498141974
-0.19051525055203744 0.0 2.594324068033432
-0.2028482870393737 0.0 2.7622680688329457
-0.21513937123446586 0.0 2.929640788114772
-0.22735654434771188 0.0 3.0960070299730207
-0.23947105165229396 0.0 3.260975229534869
-0.2514558439819314 0.0 3.4241770472427295
-0.2633148320976181 0.0 3.585665737528156
-0.27496085555917577 0.0 3.7442544010375296
-0.28642291748084137 0.0 3.900337985036724
-0.29768003912214175 0.0 4.0536308134385575
-0.30871790904870283 0.0 4.203938001589242
-0.3195239767448499 0.0 4.351088643984956
-0.3300859611544299 0.0 4.4949155044623685
-0.34039114576964136 0.0 4.635245417134996
-0.3504302536805572 0.0 4.77195205452705
-0.3601440781598265 0.0 4.904229174422696
-0.3695283756373426 0.0 5.032018990392601
-0.3785642544339341 0.0 5.1550642467167265
-0.3872266974640302 0.0 5.273024275511421
-0.39548517100677255 0.0 5.385483286614585
-0.4032595077384663 0.0 5.491349608799226
-0.41056278406487323 0.0 5.590801308829513
-0.4173168258552252 0.0 5.682773857601548
-0.42345437320159646 0.0 5.766351349446678
-0.4288930706814633 0.0 5.840412316901445
-0.4335313843789725 0.0 5.903574131116682
-0.43725264542403897 0.0 5.954248064382799
-0.43990554591523895 0.0 5.990373695136635
-0.44139956783529327 0.0 6.010718402524288
-0.4417628991867018 0.0 6.015666034101808
-0.439947556453405 0.0 5.99094576981286
-0.43994550085892475 0.0 5.990917777942295
-0.44175576087242013 0.0 6.015568828757393
-0.44138722163841637 0.0 6.010550279313082
-0.4398886727879311 0.0 5.9901439268627
-0.43723277593189525 0.0 5.953977493383684
-0.4335106339066098 0.0 5.903291563449697
-0.42887229802778515 0.0 5.840129447182417
-0.4234345107612394 0.0 5.766080874474626
-0.41729850129067536 0.0 5.6825243245131976
-0.41054625349718393 0.0 5.590576205329974
-0.40324440355749247 0.0 5.491143928990838
-0.39546993893055765 0.0 5.385275865204404
-0.38721312197317703 0.0 5.272839412501485
-0.3785517656188239 0.0 5.154894181414721
-0.3695166251471329 0.0 5.031858979162666
-0.36013301246692336 0.0 4.904078488357695
-0.3504201624307709 0.0 4.771814637852421
-0.340382923272675 0.0 4.6351334480316435