# vtk DataFile Version 4.0
[MyVLM domain - lattices] 
ASCII
DATASET UNSTRUCTURED_GRID
POINTS 302 float
1.2444999999999997 -1.2445 0.0
1.2399745454545452 -1.2399745454545454 0.0
1.2346178849721705 -1.2346178849721707 0.0
1.2284300185528754 -1.2284300185528756 0.0
1.2214109461966602 -1.2214109461966605 0.0
1.2135606679035247 -1.213560667903525 0.0
1.2048791836734691 -1.2048791836734694 0.0
1.1953664935064932 -1.1953664935064934 0.0
1.1850225974025972 -1.1850225974025974 0.0
1.1738474953617808 -1.173847495361781 0.0
1.1618411873840442 -1.1618411873840444 0.0
1.1490036734693874 -1.1490036734693876 0.0
1.1353349536178106 -1.1353349536178108 0.0
1.1208350278293133 -1.1208350278293135 0.0
1.1055038961038959 -1.105503896103896 0.0
1.0893415584415582 -1.0893415584415584 0.0
1.0723480148423004 -1.0723480148423006 0.0
1.054523265306122 -1.0545232653061223 0.0
1.0358673098330238 -1.035867309833024 0.0
1.0163801484230053 -1.0163801484230055 0.0
0.9960617810760664 -0.9960617810760668 0.0
0.9749122077922076 -0.9749122077922077 0.0
0.9529314285714284 -0.9529314285714284 0.0
0.9301194434137288 -0.930119443413729 0.0
0.9064762523191091 -0.9064762523191096 0.0
0.8820018552875695 -0.8820018552875695 0.0
0.8566962523191093 -0.8566962523191094 0.0
0.8305594434137288 -0.8305594434137291 0.0
0.8035914285714284 -0.8035914285714285 0.0
0.7757922077922076 -0.7757922077922077 0.0
0.7471617810760666 -0.7471617810760667 0.0
0.7177001484230053 -0.7177001484230054 0.0
0.6874073098330239 -0.687407309833024 0.0
0.6562832653061222 -0.6562832653061225 0.0
0.6243280148423004 -0.6243280148423005 0.0
0.5915415584415582 -0.5915415584415583 0.0
0.5579238961038958 -0.5579238961038959 0.0
0.5234750278293133 -0.5234750278293134 0.0
0.48819495361781057 -0.48819495361781057 0.0
0.4520836734693877 -0.4520836734693877 0.0
0.4151411873840445 -0.4151411873840446 0.0
0.37736749536178105 -0.37736749536178116 0.0
0.3387625974025974 -0.3387625974025974 0.0
0.2993264935064933 -0.29932649350649343 0.0
0.25905918367346925 -0.25905918367346925 0.0
0.21796066790352486 -0.21796066790352486 0.0
0.17603094619666027 -0.1760309461966605 0.0
0.13327001855287546 -0.13327001855287568 0.0
0.08967788497217066 -0.08967788497217066 0.0
0.045254545454545436 -0.045254545454545436 0.0
0.0 0.0 0.0
0.04525454545454545 0.04525454545454546 0.0
0.08967788497217066 0.08967788497217068 0.0
0.13327001855287568 0.1332700185528757 0.0
0.17603094619666046 0.1760309461966605 0.0
0.21796066790352497 0.21796066790352508 0.0
0.2590591836734693 0.25905918367346936 0.0
0.29932649350649343 0.2993264935064935 0.0
0.3387625974025973 0.33876259740259734 0.0
0.37736749536178094 0.377367495361781 0.0
0.41514118738404443 0.4151411873840445 0.0
0.45208367346938766 0.4520836734693878 0.0
0.48819495361781057 0.4881949536178107 0.0
0.5234750278293133 0.5234750278293134 0.0
0.5579238961038959 0.557923896103896 0.0
0.5915415584415582 0.5915415584415583 0.0
0.6243280148423003 0.6243280148423004 0.0
0.6562832653061222 0.6562832653061225 0.0
0.687407309833024 0.6874073098330241 0.0
0.7177001484230054 0.7177001484230056 0.0
0.7471617810760667 0.7471617810760669 0.0
0.7757922077922076 0.7757922077922077 0.0
0.8035914285714284 0.8035914285714285 0.0
0.8305594434137288 0.830559443413729 0.0
0.8566962523191093 0.8566962523191094 0.0
0.8820018552875692 0.8820018552875695 0.0
0.9064762523191091 0.9064762523191093 0.0
0.9301194434137288 0.9301194434137292 0.0
0.9529314285714284 0.9529314285714284 0.0
0.9749122077922076 0.9749122077922077 0.0
0.9960617810760666 0.9960617810760668 0.0
1.0163801484230053 1.0163801484230055 0.0
1.0358673098330238 1.035867309833024 0.0
1.054523265306122 1.0545232653061223 0.0
1.0723480148423001 1.0723480148423004 0.0
1.0893415584415582 1.0893415584415584 0.0
1.1055038961038959 1.105503896103896 0.0
1.120835027829313 1.1208350278293133 0.0
1.1353349536178106 1.1353349536178106 0.0
1.1490036734693874 1.1490036734693876 0.0
1.1618411873840444 1.1618411873840446 0.0
1.1738474953617808 1.173847495361781 0.0
1.1850225974025972 1.1850225974025972 0.0
1.1953664935064932 1.1953664935064934 0.0
1.2048791836734691 1.2048791836734694 0.0
1.2135606679035245 1.2135606679035247 0.0
1.22141094619666 1.2214109461966602 0.0
1.2284300185528754 1.2284300185528756 0.0
1.2346178849721703 1.2346178849721705 0.0
1.2399745454545452 1.2399745454545454 0.0
1.2444999999999997 1.2445 0.0
1.7422999999999997 -1.2445 0.0
1.7377745454545452 -1.2399745454545454 0.0
1.7324178849721703 -1.2346178849721707 0.0
1.7262300185528754 -1.2284300185528756 0.0
1.7192109461966603 -1.2214109461966605 0.0
1.7113606679035245 -1.213560667903525 0.0
1.7026791836734692 -1.2048791836734694 0.0
1.6931664935064934 -1.1953664935064934 0.0
1.6828225974025972 -1.1850225974025974 0.0
1.6716474953617806 -1.173847495361781 0.0
1.6596411873840444 -1.1618411873840444 0.0
1.6468036734693878 -1.1490036734693876 0.0
1.6331349536178106 -1.1353349536178108 0.0
1.6186350278293133 -1.1208350278293135 0.0
1.603303896103896 -1.105503896103896 0.0
1.5871415584415582 -1.0893415584415584 0.0
1.5701480148423004 -1.0723480148423006 0.0
1.552323265306122 -1.0545232653061223 0.0
1.5336673098330238 -1.035867309833024 0.0
1.5141801484230053 -1.0163801484230055 0.0
1.4938617810760666 -0.9960617810760668 0.0
1.4727122077922075 -0.9749122077922077 0.0
1.4507314285714283 -0.9529314285714284 0.0
1.4279194434137288 -0.930119443413729 0.0
1.4042762523191092 -0.9064762523191096 0.0
1.3798018552875693 -0.8820018552875695 0.0
1.3544962523191093 -0.8566962523191094 0.0
1.328359443413729 -0.8305594434137291 0.0
1.3013914285714283 -0.8035914285714285 0.0
1.2735922077922077 -0.7757922077922077 0.0
1.2449617810760665 -0.7471617810760667 0.0
1.2155001484230055 -0.7177001484230054 0.0
1.1852073098330238 -0.687407309833024 0.0
1.1540832653061224 -0.6562832653061225 0.0
1.1221280148423003 -0.6243280148423005 0.0
1.0893415584415582 -0.5915415584415583 0.0
1.055723896103896 -0.5579238961038959 0.0
1.0212750278293132 -0.5234750278293134 0.0
0.9859949536178108 -0.48819495361781057 0.0
0.9498836734693876 -0.4520836734693877 0.0
0.9129411873840445 -0.4151411873840446 0.0
0.875167495361781 -0.37736749536178116 0.0
0.8365625974025973 -0.3387625974025974 0.0
0.7971264935064933 -0.29932649350649343 0.0
0.7568591836734693 -0.25905918367346925 0.0
0.7157606679035249 -0.21796066790352486 0.0
0.6738309461966603 -0.1760309461966605 0.0
0.6310700185528755 -0.13327001855287568 0.0
0.5874778849721707 -0.08967788497217066 0.0
0.5430545454545455 -0.045254545454545436 0.0
0.4978 0.0 0.0
0.5430545454545455 0.04525454545454546 0.0
0.5874778849721707 0.08967788497217068 0.0
0.6310700185528757 0.1332700185528757 0.0
0.6738309461966605 0.1760309461966605 0.0
0.715760667903525 0.21796066790352508 0.0
0.7568591836734693 0.25905918367346936 0.0
0.7971264935064934 0.2993264935064935 0.0
0.8365625974025973 0.33876259740259734 0.0
0.875167495361781 0.377367495361781 0.0
0.9129411873840445 0.4151411873840445 0.0
0.9498836734693876 0.4520836734693878 0.0
0.9859949536178105 0.4881949536178107 0.0
1.0212750278293132 0.5234750278293134 0.0
1.055723896103896 0.557923896103896 0.0
1.0893415584415582 0.5915415584415583 0.0
1.1221280148423003 0.6243280148423004 0.0
1.1540832653061224 0.6562832653061225 0.0
1.185207309833024 0.6874073098330241 0.0
1.2155001484230055 0.7177001484230056 0.0
1.2449617810760667 0.7471617810760669 0.0
1.2735922077922077 0.7757922077922077 0.0
1.3013914285714283 0.8035914285714285 0.0
1.3283594434137287 0.830559443413729 0.0
1.3544962523191093 0.8566962523191094 0.0
1.3798018552875693 0.8820018552875695 0.0
1.4042762523191092 0.9064762523191093 0.0
1.427919443413729 0.9301194434137292 0.0
1.4507314285714283 0.9529314285714284 0.0
1.4727122077922075 0.9749122077922077 0.0
1.4938617810760666 0.9960617810760668 0.0
1.5141801484230053 1.0163801484230055 0.0
1.5336673098330238 1.035867309833024 0.0
1.552323265306122 1.0545232653061223 0.0
1.5701480148423002 1.0723480148423004 0.0
1.5871415584415582 1.0893415584415584 0.0
1.603303896103896 1.105503896103896 0.0
1.6186350278293131 1.1208350278293133 0.0
1.6331349536178106 1.1353349536178106 0.0
1.6468036734693874 1.1490036734693876 0.0
1.6596411873840444 1.1618411873840446 0.0
1.6716474953617806 1.173847495361781 0.0
1.6828225974025972 1.1850225974025972 0.0
1.6931664935064934 1.1953664935064934 0.0
1.7026791836734692 1.2048791836734694 0.0
1.7113606679035245 1.2135606679035247 0.0
1.71921094619666 1.2214109461966602 0.0
1.7262300185528754 1.2284300185528756 0.0
1.7324178849721703 1.2346178849721705 0.0
1.7377745454545452 1.2399745454545454 0.0
1.7422999999999997 1.2445 0.0
1.6155872727272724 -1.2422372727272726 0.0
1.6106462152133578 -1.237296215213358 0.0
1.604873951762523 -1.2315239517625232 0.0
1.598270482374768 -1.224920482374768 0.0
1.5908358070500925 -1.2174858070500927 0.0
1.582569925788497 -1.2092199257884972 0.0
1.5734728385899812 -1.2001228385899814 0.0
1.5635445454545454 -1.1901945454545453 0.0
1.552785046382189 -1.1794350463821892 0.0
1.5411943413729126 -1.1678443413729127 0.0
1.5287724304267158 -1.155422430426716 0.0
1.5155193135435991 -1.142169313543599 0.0
1.501434990723562 -1.1280849907235622 0.0
1.4865194619666047 -1.1131694619666048 0.0
1.4707727272727271 -1.0974227272727273 0.0
1.4541947866419294 -1.0808447866419293 0.0
1.4367856400742112 -1.0634356400742113 0.0
1.418545287569573 -1.0451952875695731 0.0
1.3994737291280146 -1.0261237291280147 0.0
1.379570964749536 -1.0062209647495362 0.0
1.358836994434137 -0.9854869944341371 0.0
1.337271818181818 -0.9639218181818181 0.0
1.3148754359925787 -0.9415254359925787 0.0
1.291647847866419 -0.9182978478664192 0.0
1.2675890538033394 -0.8942390538033393 0.0
1.2426990538033393 -0.8693490538033395 0.0
1.2169778478664193 -0.8436278478664192 0.0
1.1904254359925788 -0.8170754359925788 0.0
1.163041818181818 -0.7896918181818181 0.0
1.1348269944341371 -0.7614769944341371 0.0
1.105780964749536 -0.7324309647495362 0.0
1.0759037291280147 -0.7025537291280148 0.0
1.0451952875695731 -0.6718452875695733 0.0
1.0136556400742114 -0.6403056400742114 0.0
0.9812847866419293 -0.6079347866419293 0.0
0.9480827272727271 -0.5747327272727272 0.0
0.9140494619666047 -0.5406994619666048 0.0
0.8791849907235622 -0.5058349907235622 0.0
0.8434893135435992 -0.47013931354359917 0.0
0.8069624304267162 -0.43361243042671627 0.0
0.7696043413729128 -0.3962543413729128 0.0
0.7314150463821893 -0.3580650463821894 0.0
0.6923945454545455 -0.3190445454545454 0.0
0.6525428385899814 -0.27919283858998134 0.0
0.6118599257884971 -0.23850992578849706 0.0
0.5703458070500929 -0.19699580705009279 0.0
0.5280004823747682 -0.15465048237476808 0.0
0.4848239517625232 -0.11147395176252317 0.0
0.4408162152133581 -0.06746621521335805 0.0
0.39597727272727273 -0.022627272727272718 0.0
0.39597727272727273 0.02262727272727273 0.0
0.4408162152133581 0.06746621521335806 0.0
0.4848239517625232 0.11147395176252319 0.0
0.528000482374768 0.15465048237476808 0.0
0.5703458070500929 0.19699580705009276 0.0
0.6118599257884971 0.23850992578849717 0.0
0.6525428385899814 0.2791928385899814 0.0
0.6923945454545455 0.3190445454545454 0.0
0.7314150463821891 0.3580650463821891 0.0
0.7696043413729128 0.39625434137291277 0.0
0.8069624304267162 0.43361243042671616 0.0
0.8434893135435992 0.4701393135435992 0.0
0.8791849907235619 0.5058349907235621 0.0
0.9140494619666046 0.5406994619666047 0.0
0.9480827272727271 0.5747327272727272 0.0
0.9812847866419294 0.6079347866419295 0.0
1.0136556400742114 0.6403056400742114 0.0
1.0451952875695731 0.6718452875695732 0.0
1.0759037291280147 0.7025537291280147 0.0
1.105780964749536 0.7324309647495362 0.0
1.1348269944341371 0.7614769944341373 0.0
1.163041818181818 0.789691818181818 0.0
1.1904254359925786 0.8170754359925786 0.0
1.216977847866419 0.843627847866419 0.0
1.2426990538033393 0.8693490538033394 0.0
1.2675890538033392 0.8942390538033393 0.0
1.291647847866419 0.9182978478664192 0.0
1.3148754359925787 0.9415254359925787 0.0
1.3372718181818182 0.9639218181818181 0.0
1.3588369944341372 0.9854869944341373 0.0
1.379570964749536 1.0062209647495362 0.0
1.3994737291280148 1.0261237291280147 0.0
1.418545287569573 1.0451952875695731 0.0
1.4367856400742112 1.0634356400742113 0.0
1.4541947866419291 1.0808447866419293 0.0
1.470772727272727 1.097422727272727 0.0
1.4865194619666047 1.1131694619666048 0.0
1.501434990723562 1.128084990723562 0.0
1.5155193135435991 1.1421693135435993 0.0
1.528772430426716 1.1554224304267162 0.0
1.5411943413729128 1.1678443413729127 0.0
1.5527850463821888 1.179435046382189 0.0
1.5635445454545451 1.1901945454545453 0.0
1.573472838589981 1.2001228385899811 0.0
1.5825699257884969 1.209219925788497 0.0
1.5908358070500925 1.2174858070500927 0.0
1.5982704823747678 1.224920482374768 0.0
1.604873951762523 1.2315239517625232 0.0
1.6106462152133578 1.237296215213358 0.0
1.6155872727272724 1.2422372727272726 0.0

CELLS 200 700
4 0 101 102 1
4 1 102 103 2
4 2 103 104 3
4 3 104 105 4
4 4 105 106 5
4 5 106 107 6
4 6 107 108 7
4 7 108 109 8
4 8 109 110 9
4 9 110 111 10
4 10 111 112 11
4 11 112 113 12
4 12 113 114 13
4 13 114 115 14
4 14 115 116 15
4 15 116 117 16
4 16 117 118 17
4 17 118 119 18
4 18 119 120 19
4 19 120 121 20
4 20 121 122 21
4 21 122 123 22
4 22 123 124 23
4 23 124 125 24
4 24 125 126 25
4 25 126 127 26
4 26 127 128 27
4 27 128 129 28
4 28 129 130 29
4 29 130 131 30
4 30 131 132 31
4 31 132 133 32
4 32 133 134 33
4 33 134 135 34
4 34 135 136 35
4 35 136 137 36
4 36 137 138 37
4 37 138 139 38
4 38 139 140 39
4 39 140 141 40
4 40 141 142 41
4 41 142 143 42
4 42 143 144 43
4 43 144 145 44
4 44 145 146 45
4 45 146 147 46
4 46 147 148 47
4 47 148 149 48
4 48 149 150 49
4 49 150 151 50
4 50 151 152 51
4 51 152 153 52
4 52 153 154 53
4 53 154 155 54
4 54 155 156 55
4 55 156 157 56
4 56 157 158 57
4 57 158 159 58
4 58 159 160 59
4 59 160 161 60
4 60 161 162 61
4 61 162 163 62
4 62 163 164 63
4 63 164 165 64
4 64 165 166 65
4 65 166 167 66
4 66 167 168 67
4 67 168 169 68
4 68 169 170 69
4 69 170 171 70
4 70 171 172 71
4 71 172 173 72
4 72 173 174 73
4 73 174 175 74
4 74 175 176 75
4 75 176 177 76
4 76 177 178 77
4 77 178 179 78
4 78 179 180 79
4 79 180 181 80
4 80 181 182 81
4 81 182 183 82
4 82 183 184 83
4 83 184 185 84
4 84 185 186 85
4 85 186 187 86
4 86 187 188 87
4 87 188 189 88
4 88 189 190 89
4 89 190 191 90
4 90 191 192 91
4 91 192 193 92
4 92 193 194 93
4 93 194 195 94
4 94 195 196 95
4 95 196 197 96
4 96 197 198 97
4 97 198 199 98
4 98 199 200 99
4 99 200 201 100
1 202
1 203
1 204
1 205
1 206
1 207
1 208
1 209
1 210
1 211
1 212
1 213
1 214
1 215
1 216
1 217
1 218
1 219
1 220
1 221
1 222
1 223
1 224
1 225
1 226
1 227
1 228
1 229
1 230
1 231
1 232
1 233
1 234
1 235
1 236
1 237
1 238
1 239
1 240
1 241
1 242
1 243
1 244
1 245
1 246
1 247
1 248
1 249
1 250
1 251
1 252
1 253
1 254
1 255
1 256
1 257
1 258
1 259
1 260
1 261
1 262
1 263
1 264
1 265
1 266
1 267
1 268
1 269
1 270
1 271
1 272
1 273
1 274
1 275
1 276
1 277
1 278
1 279
1 280
1 281
1 282
1 283
1 284
1 285
1 286
1 287
1 288
1 289
1 290
1 291
1 292
1 293
1 294
1 295
1 296
1 297
1 298
1 299
1 300
1 301

CELL_TYPES 200
9
9
9
9
9
9
9
9
9
9
9
9
9
9
9
9
9
9
9
9
9
9
9
9
9
9
9
9
9
9
9
9
9
9
9
9
9
9
9
9
9
9
9
9
9
9
9
9
9
9
9
9
9
9
9
9
9
9
9
9
9
9
9
9
9
9
9
9
9
9
9
9
9
9
9
9
9
9
9
9
9
9
9
9
9
9
9
9
9
9
9
9
9
9
9
9
9
9
9
9
1
1
1
1
1
1
1
1
1
1
1
1
1
1
1
1
1
1
1
1
1
1
1
1
1
1
1
1
1
1
1
1
1
1
1
1
1
1
1
1
1
1
1
1
1
1
1
1
1
1
1
1
1
1
1
1
1
1
1
1
1
1
1
1
1
1
1
1
1
1
1
1
1
1
1
1
1
1
1
1
1
1
1
1
1
1
1
1
1
1
1
1
1
1
1
1
1
1
1
1

CELL_DATA 200

VECTORS Vinf float
49.53024765032644 0.028835452874374154 4.31178071081694
49.53270746446698 0.02986064182261898 4.276750772512133
49.535463139307346 0.030892860550315447 4.237239657042875
49.53845523966629 0.03187133666914135 4.193974430293671
49.54161715657071 0.0327395395006889 4.147775786699015
49.54487859421737 0.033449935122525844 4.099515350010964
49.54816980054092 0.03396772920855447 4.050064100039008
49.55142575329011 0.034272769060972444 4.000242328832304
49.554589455212344 0.0343591762891418 3.9507818910203985
49.557613736577366 0.03423291123815783 3.90230781294112
49.560461435689035 0.03390807773951992 3.855339862662307
49.56310432691008 0.03340307542350547 3.8103084435653214
49.56552147173077 0.03273754832578961 3.767576086176579
49.56838581716417 0.02140440916751182 3.7112973231833597
49.57017063838962 0.022966804847559967 3.6784614559608313
49.57186163151294 0.024130407723423928 3.6463170272719956
49.573433933157496 0.02486773242542782 3.6154096207804516
49.57487136597824 0.025150434088330873 3.5861810528324884
49.57616429472899 0.024946091786308862 3.5589794388032785
49.57730671900278 0.024216324025792085 3.5340742906794715
49.5782933971943 0.022916594286979383 3.5116716684960396
49.57911781081843 0.02099751320619494 3.4919262453148403
49.57977142605933 0.018406865722345303 3.4749505207781484
49.58024419636528 0.01509139474133653 3.4608243066489788
49.58099046016952 0.016673257723908895 3.4456016616733
49.581300705139085 0.013773512513133005 3.431248208840978
49.58167539581721 0.013545378350381939 3.421988378356828
49.58197205671408 0.013049003370167596 3.4138003748779444
49.58219458847353 0.012287375690385287 3.4068749001901155
49.582349409742946 0.011250881725483325 3.4013551302294878
49.582438716087864 0.009919505263680767 3.3973713181205123
49.58245788397001 0.008269121358140117 3.3950485710362446
49.58239762201663 0.00627780455561313 3.3944875274293222
49.58273622984152 0.012061813139403035 3.39865391717616
49.58265684772783 0.010051620821054767 3.3989046486866266
49.582518005897114 0.0082670954304384 3.4005612106029015
49.58232817037641 0.006729754620079179 3.4036542482083845
49.58208778669535 0.005446430676044823 3.4083389982731456
49.58177461027436 0.004417240386750404 3.4148963199624043
49.5811831029279 0.0034457230470035303 3.423408539554183
49.58065092198204 0.0021169345422258463 3.4342206518695426
49.57993719005119 0.0008352499431981547 3.447762282939814
49.57901200181785 -0.000357074046371488 3.464705075636868
49.57783984592188 -0.0014088193256436116 3.485689944022443
49.5763920391105 -0.002228151245796005 3.5109158329695838
49.57487897421805 -0.002127653301647721 3.540573870969418
49.57304261384789 -0.002366704150794711 3.568530236993564
49.571660729534436 -0.0019138366888490255 3.5877582781192614
49.571170317174094 -0.0010129034960891232 3.5922151098420736
49.57139803832258 -0.0002497671485012384 3.585540021041871
49.57139831505151 0.0002573519570060811 3.5855364486785977
49.5711711793238 0.0010205293796401913 3.5922039300662663
49.57166238540777 0.00192161321233913 3.587736228592493
49.573045471909296 0.002374628405652652 3.568493358409472
49.57488346612696 0.0021354527844505413 3.540519744664509
49.576397669728074 0.0022332008009480217 3.5108442262332225
49.57784686232799 0.0014132433319033549 3.48560300187293
49.57901968463176 0.000360522536127688 3.4646062847895145
49.57994470295737 -0.0008326758869142766 3.447655797444781
49.58065765812218 -0.0021147292051535917 3.434110567765148
49.58118886767412 -0.0034432227655068716 3.4232985746800964
49.58177620994182 -0.004388237210002394 3.4148193324277742
49.582091293011715 -0.005409095323560789 3.4082249259477018
49.58233325398489 -0.0066869780768172606 3.4035177149525326
49.5825242786549 -0.008221705038734414 3.400415134978771
49.58266387110487 -0.010006285379071412 3.398760359257606
49.582743564125686 -0.012018992941819795 3.39852125849857
49.58259808926312 -0.008839741810873804 3.3946618248603766
49.58245233012703 -0.00820915995936169 3.395138064153252
49.58244005320677 -0.009886978926335062 3.3973614827877388
49.58235447042841 -0.011234761666692386 3.401298739567886
49.582200433952934 -0.01227759832771105 3.4068210390531926
49.58197590183613 -0.013036399672249791 3.4137944468066155
49.58167458055894 -0.013521553390829943 3.4220718036502236
49.58129274107805 -0.013730737525722514 3.4314581669607676
49.580999788831086 -0.016646907013507534 3.445516571556018
49.580262892931934 -0.01519373562484627 3.4608465277037364
49.5797885414097 -0.018440152977418005 3.474897155602742
49.57913390742544 -0.02099043635691349 3.4918331459796796
49.57830855603166 -0.022895268403898446 3.5115791553805082
49.57732034269138 -0.024204252485193988 3.534029596823501
49.57617495076629 -0.02496407957715352 3.5590395930971366
49.574876671247615 -0.025216500291793557 3.586416149029226
49.57343045136501 -0.02499703530466854 3.6159062732045966
49.571844769627134 -0.024335168837783774 3.6471815669339924
49.570134569244296 -0.023256223276616333 3.6798220420361485
49.56832349209278 -0.021784581427152325 3.7133036886901447
49.56558826731522 -0.03286279384190456 3.766859268695892
49.56316281015413 -0.03349869442653293 3.809745295740363
49.56051383071383 -0.03397715726625033 3.8549060360912812
49.55766204962123 -0.034278751718091624 3.901979372778141
49.554635342030885 -0.034385117488115166 3.950536111494055
49.5514704562164 -0.03428200647534589 4.000058391022103
49.548214157952096 -0.033963167116358065 4.049923632696059
49.544923103132845 -0.03343410118646609 4.099402778276664
49.54166206002453 -0.03271456194834609 4.147678480875279
49.538500613811415 -0.03183896912364739 4.193882670624662
49.53550896492782 -0.030854534259814943 4.23714644746177
49.53275367756576 -0.029817527518473438 4.276651545689774
49.53029417331727 -0.028788520366433767 4.3116729691255635
49.53024765032644 0.028835452874374154 4.31178071081694
49.53270746446698 0.02986064182261898 4.276750772512133
49.535463139307346 0.030892860550315447 4.237239657042875
49.53845523966629 0.03187133666914135 4.193974430293671
49.54161715657071 0.0327395395006889 4.147775786699015
49.54487859421737 0.033449935122525844 4.099515350010964
49.54816980054092 0.03396772920855447 4.050064100039008
49.55142575329011 0.034272769060972444 4.000242328832304
49.554589455212344 0.0343591762891418 3.9507818910203985
49.557613736577366 0.03423291123815783 3.90230781294112
49.560461435689035 0.03390807773951992 3.855339862662307
49.56310432691008 0.03340307542350547 3.8103084435653214
49.56552147173077 0.03273754832578961 3.767576086176579
49.56838581716417 0.02140440916751182 3.7112973231833597
49.57017063838962 0.022966804847559967 3.6784614559608313
49.57186163151294 0.024130407723423928 3.6463170272719956
49.573433933157496 0.02486773242542782 3.6154096207804516
49.57487136597824 0.025150434088330873 3.5861810528324884
49.57616429472899 0.024946091786308862 3.5589794388032785
49.57730671900278 0.024216324025792085 3.5340742906794715
49.5782933971943 0.022916594286979383 3.5116716684960396
49.57911781081843 0.02099751320619494 3.4919262453148403
49.57977142605933 0.018406865722345303 3.4749505207781484
49.58024419636528 0.01509139474133653 3.4608243066489788
49.58099046016952 0.016673257723908895 3.4456016616733
49.581300705139085 0.013773512513133005 3.431248208840978
49.58167539581721 0.013545378350381939 3.421988378356828
49.58197205671408 0.013049003370167596 3.4138003748779444
49.58219458847353 0.012287375690385287 3.4068749001901155
49.582349409742946 0.011250881725483325 3.4013551302294878
49.582438716087864 0.009919505263680767 3.3973713181205123
49.58245788397001 0.008269121358140117 3.3950485710362446
49.58239762201663 0.00627780455561313 3.3944875274293222
49.58273622984152 0.012061813139403035 3.39865391717616
49.58265684772783 0.010051620821054767 3.3989046486866266
49.582518005897114 0.0082670954304384 3.4005612106029015
49.58232817037641 0.006729754620079179 3.4036542482083845
49.58208778669535 0.005446430676044823 3.4083389982731456
49.58177461027436 0.004417240386750404 3.4148963199624043
49.5811831029279 0.0034457230470035303 3.423408539554183
49.58065092198204 0.0021169345422258463 3.4342206518695426
49.57993719005119 0.0008352499431981547 3.447762282939814
49.57901200181785 -0.000357074046371488 3.464705075636868
49.57783984592188 -0.0014088193256436116 3.485689944022443
49.5763920391105 -0.002228151245796005 3.5109158329695838
49.57487897421805 -0.002127653301647721 3.540573870969418
49.57304261384789 -0.002366704150794711 3.568530236993564
49.571660729534436 -0.0019138366888490255 3.5877582781192614
49.571170317174094 -0.0010129034960891232 3.5922151098420736
49.57139803832258 -0.0002497671485012384 3.585540021041871
49.57139831505151 0.0002573519570060811 3.5855364486785977
49.5711711793238 0.0010205293796401913 3.5922039300662663
49.57166238540777 0.00192161321233913 3.587736228592493
49.573045471909296 0.002374628405652652 3.568493358409472
49.57488346612696 0.0021354527844505413 3.540519744664509
49.576397669728074 0.0022332008009480217 3.5108442262332225
49.57784686232799 0.0014132433319033549 3.48560300187293
49.57901968463176 0.000360522536127688 3.4646062847895145
49.57994470295737 -0.0008326758869142766 3.447655797444781
49.58065765812218 -0.0021147292051535917 3.434110567765148
49.58118886767412 -0.0034432227655068716 3.4232985746800964
49.58177620994182 -0.004388237210002394 3.4148193324277742
49.582091293011715 -0.005409095323560789 3.4082249259477018
49.58233325398489 -0.0066869780768172606 3.4035177149525326
49.5825242786549 -0.008221705038734414 3.400415134978771
49.58266387110487 -0.010006285379071412 3.398760359257606
49.582743564125686 -0.012018992941819795 3.39852125849857
49.58259808926312 -0.008839741810873804 3.3946618248603766
49.58245233012703 -0.00820915995936169 3.395138064153252
49.58244005320677 -0.009886978926335062 3.3973614827877388
49.58235447042841 -0.011234761666692386 3.401298739567886
49.582200433952934 -0.01227759832771105 3.4068210390531926
49.58197590183613 -0.013036399672249791 3.4137944468066155
49.58167458055894 -0.013521553390829943 3.4220718036502236
49.58129274107805 -0.013730737525722514 3.4314581669607676
49.580999788831086 -0.016646907013507534 3.445516571556018
49.580262892931934 -0.01519373562484627 3.4608465277037364
49.5797885414097 -0.018440152977418005 3.474897155602742
49.57913390742544 -0.02099043635691349 3.4918331459796796
49.57830855603166 -0.022895268403898446 3.5115791553805082
49.57732034269138 -0.024204252485193988 3.534029596823501
49.57617495076629 -0.02496407957715352 3.5590395930971366
49.574876671247615 -0.025216500291793557 3.586416149029226
49.57343045136501 -0.02499703530466854 3.6159062732045966
49.571844769627134 -0.024335168837783774 3.6471815669339924
49.570134569244296 -0.023256223276616333 3.6798220420361485
49.56832349209278 -0.021784581427152325 3.7133036886901447
49.56558826731522 -0.03286279384190456 3.766859268695892
49.56316281015413 -0.03349869442653293 3.809745295740363
49.56051383071383 -0.03397715726625033 3.8549060360912812
49.55766204962123 -0.034278751718091624 3.901979372778141
49.554635342030885 -0.034385117488115166 3.950536111494055
49.5514704562164 -0.03428200647534589 4.000058391022103
49.548214157952096 -0.033963167116358065 4.049923632696059
49.544923103132845 -0.03343410118646609 4.099402778276664
49.54166206002453 -0.03271456194834609 4.147678480875279
49.538500613811415 -0.03183896912364739 4.193882670624662
49.53550896492782 -0.030854534259814943 4.23714644746177
49.53275367756576 -0.029817527518473438 4.276651545689774
49.53029417331727 -0.028788520366433767 4.3116729691255635

VECTORS L float
-0.006658726720465004 0.0 0.09067460449126202
-0.01201356823646522 0.0 0.16359367099753874
-0.017751087588104213 0.0 0.24172381806783283
-0.024064027920897298 0.0 0.327689707926874
-0.030994557837496328 0.0 0.4220655676796213
-0.03854436274418242 0.0 0.5248743481925636
-0.04669846674192733 0.0 0.6359121165250213
-0.05543264343292816 0.0 0.7548489719119913
-0.06471623167344147 0.0 0.8812673890218453
-0.07451336217242589 0.0 1.014678921051599
-0.0847835711810985 0.0 1.1545325565885372
-0.09548213945568222 0.0 1.3002193354045475
-0.1065600042996252 0.0 1.4510711506990546
-0.11796053310004859 0.0 1.6063168130255367
-0.129651636042052 0.0 1.76551934225304
-0.1415785488258388 0.0 1.9279329905182334
-0.15368333184771504 0.0 2.0927687705462388
-0.16591402995136859 0.0 2.259319187729205
-0.17822277755997204 0.0 2.4269324369353455
-0.19056577878405315 0.0 2.595012131629673
-0.2029033184722842 0.0 2.763017454357121
-0.2151995631957478 0.0 2.9304604466639086
-0.22742203736101324 0.0 3.096898875115094
-0.23954038272013048 0.0 3.2619193390349204
-0.2515571698116699 0.0 3.425556842498187
-0.2633738248110976 0.0 3.586469065429597
-0.2750275102301366 0.0 3.7451620649469524
-0.2864919769854774 0.0 3.9012783965496327
-0.2977505965503289 0.0 4.054591622788959
-0.30878961494250246 0.0 4.204914450065493
-0.31959652807191496 0.0 4.352076605071679
-0.33015890150765487 0.0 4.4959087630773835
-0.3404635596181886 0.0 4.636231506120526
-0.350499270318893 0.0 4.77289188231202
-0.3602125419059931 0.0 4.905161473248921
-0.3695989147862966 0.0 5.03297955082721
-0.37863907824219917 0.0 5.1560831531091615
-0.38730811060090764 0.0 5.274132911485933
-0.39553461192061024 0.0 5.386156543754593
-0.40335187663123767 0.0 5.49260743378153
-0.4106683662004958 0.0 5.592239063942589
-0.41743699825555086 0.0 5.684410294315012
-0.4235897755291651 0.0 5.768195178306892
-0.4290428234406438 0.0 5.8424515614567785
-0.4336927776227781 0.0 5.905771888910925
-0.4374206856091478 0.0 5.956536336294686
-0.4400768537723875 0.0 5.992706464274833
-0.44157136302078137 0.0 6.013057807811752
-0.44193365127811207 0.0 6.017991235150696
-0.440115728458284 0.0 5.99323583676846
-0.440115048816335 0.0 5.993226581806136
-0.44193161574957485 0.0 6.017963516526281
-0.44156789739380553 0.0 6.013010614952136
-0.4400719480468873 0.0 5.992639661004756
-0.4374144194675905 0.0 5.9564510076828885
-0.43368532109772095 0.0 5.905670350360266
-0.42903441149723115 0.0 5.8423370125837035
-0.42358067741050537 0.0 5.768071285504902
-0.4174274890603168 0.0 5.684280803715222
-0.41065870685412725 0.0 5.592107528673403
-0.40334230423357087 0.0 5.492477082528369
-0.39552537417852107 0.0 5.3860307496432736
-0.3873001040093562 0.0 5.274023882454899
-0.3786311892879603 0.0 5.155975725993515
-0.36959140238580607 0.0 5.0328772513979265
-0.3602056848136076 0.0 4.905068097418058
-0.3504933909880828 0.0 4.7728118210603325
-0.3404593933369114 0.0 4.636174772164792