# vtk DataFile Version 4.0
[MyVLM domain - lattices] 
ASCII
DATASET UNSTRUCTURED_GRID
POINTS 302 float
1.2444999999999997 -1.2445 0.0
1.2399745454545452 -1.2399745454545454 0.0
1.2346178849721705 -1.2346178849721707 0.0
1.2284300185528754 -1.2284300185528756 0.0
1.2214109461966602 -1.2214109461966605 0.0
1.2135606679035247 -1.213560667903525 0.0
1.2048791836734691 -1.2048791836734694 0.0
1.1953664935064932 -1.1953664935064934 0.0
1.1850225974025972 -1.1850225974025974 0.0
1.1738474953617808 -1.173847495361781 0.0
1.1618411873840442 -1.1618411873840444 0.0
1.1490036734693874 -1.1490036734693876 0.0
1.1353349536178106 -1.1353349536178108 0.0
1.1208350278293133 -1.1208350278293135 0.0
1.1055038961038959 -1.105503896103896 0.0
1.0893415584415582 -1.0893415584415584 0.0
1.0723480148423004 -1.0723480148423006 0.0
1.054523265306122 -1.0545232653061223 0.0
1.0358673098330238 -1.035867309833024 0.0
1.0163801484230053 -1.0163801484230055 0.0
0.9960617810760664 -0.9960617810760668 0.0
0.9749122077922076 -0.9749122077922077 0.0
0.9529314285714284 -0.9529314285714284 0.0
0.9301194434137288 -0.930119443413729 0.0
0.9064762523191091 -0.9064762523191096 0.0
0.8820018552875695 -0.8820018552875695 0.0
0.8566962523191093 -0.8566962523191094 0.0
0.8305594434137288 -0.8305594434137291 0.0
0.8035914285714284 -0.8035914285714285 0.0
0.7757922077922076 -0.7757922077922077 0.0
0.7471617810760666 -0.7471617810760667 0.0
0.7177001484230053 -0.7177001484230054 0.0
0.6874073098330239 -0.687407309833024 0.0
0.6562832653061222 -0.6562832653061225 0.0
0.6243280148423004 -0.6243280148423005 0.0
0.5915415584415582 -0.5915415584415583 0.0
0.5579238961038958 -0.5579238961038959 0.0
0.5234750278293133 -0.5234750278293134 0.0
0.48819495361781057 -0.48819495361781057 0.0
0.4520836734693877 -0.4520836734693877 0.0
0.4151411873840445 -0.4151411873840446 0.0
0.37736749536178105 -0.37736749536178116 0.0
0.3387625974025974 -0.3387625974025974 0.0
0.2993264935064933 -0.29932649350649343 0.0
0.25905918367346925 -0.25905918367346925 0.0
0.21796066790352486 -0.21796066790352486 0.0
0.17603094619666027 -0.1760309461966605 0.0
0.13327001855287546 -0.13327001855287568 0.0
0.08967788497217066 -0.08967788497217066 0.0
0.045254545454545436 -0.045254545454545436 0.0
0.0 0.0 0.0
0.04525454545454545 0.04525454545454546 0.0
0.08967788497217066 0.08967788497217068 0.0
0.13327001855287568 0.1332700185528757 0.0
0.17603094619666046 0.1760309461966605 0.0
0.21796066790352497 0.21796066790352508 0.0
0.2590591836734693 0.25905918367346936 0.0
0.29932649350649343 0.2993264935064935 0.0
0.3387625974025973 0.33876259740259734 0.0
0.37736749536178094 0.377367495361781 0.0
0.41514118738404443 0.4151411873840445 0.0
0.45208367346938766 0.4520836734693878 0.0
0.48819495361781057 0.4881949536178107 0.0
0.5234750278293133 0.5234750278293134 0.0
0.5579238961038959 0.557923896103896 0.0
0.5915415584415582 0.5915415584415583 0.0
0.6243280148423003 0.6243280148423004 0.0
0.6562832653061222 0.6562832653061225 0.0
0.687407309833024 0.6874073098330241 0.0
0.7177001484230054 0.7177001484230056 0.0
0.7471617810760667 0.7471617810760669 0.0
0.7757922077922076 0.7757922077922077 0.0
0.8035914285714284 0.8035914285714285 0.0
0.8305594434137288 0.830559443413729 0.0
0.8566962523191093 0.8566962523191094 0.0
0.8820018552875692 0.8820018552875695 0.0
0.9064762523191091 0.9064762523191093 0.0
0.9301194434137288 0.9301194434137292 0.0
0.9529314285714284 0.9529314285714284 0.0
0.9749122077922076 0.9749122077922077 0.0
0.9960617810760666 0.9960617810760668 0.0
1.0163801484230053 1.0163801484230055 0.0
1.0358673098330238 1.035867309833024 0.0
1.054523265306122 1.0545232653061223 0.0
1.0723480148423001 1.0723480148423004 0.0
1.0893415584415582 1.0893415584415584 0.0
1.1055038961038959 1.105503896103896 0.0
1.120835027829313 1.1208350278293133 0.0
1.1353349536178106 1.1353349536178106 0.0
1.1490036734693874 1.1490036734693876 0.0
1.1618411873840444 1.1618411873840446 0.0
1.1738474953617808 1.173847495361781 0.0
1.1850225974025972 1.1850225974025972 0.0
1.1953664935064932 1.1953664935064934 0.0
1.2048791836734691 1.2048791836734694 0.0
1.2135606679035245 1.2135606679035247 0.0
1.22141094619666 1.2214109461966602 0.0
1.2284300185528754 1.2284300185528756 0.0
1.2346178849721703 1.2346178849721705 0.0
1.2399745454545452 1.2399745454545454 0.0
1.2444999999999997 1.2445 0.0
1.7422999999999997 -1.2445 0.0
1.7377745454545452 -1.2399745454545454 0.0
1.7324178849721703 -1.2346178849721707 0.0
1.7262300185528754 -1.2284300185528756 0.0
1.7192109461966603 -1.2214109461966605 0.0
1.7113606679035245 -1.213560667903525 0.0
1.7026791836734692 -1.2048791836734694 0.0
1.6931664935064934 -1.1953664935064934 0.0
1.6828225974025972 -1.1850225974025974 0.0
1.6716474953617806 -1.173847495361781 0.0
1.6596411873840444 -1.1618411873840444 0.0
1.6468036734693878 -1.1490036734693876 0.0
1.6331349536178106 -1.1353349536178108 0.0
1.6186350278293133 -1.1208350278293135 0.0
1.603303896103896 -1.105503896103896 0.0
1.5871415584415582 -1.0893415584415584 0.0
1.5701480148423004 -1.0723480148423006 0.0
1.552323265306122 -1.0545232653061223 0.0
1.5336673098330238 -1.035867309833024 0.0
1.5141801484230053 -1.0163801484230055 0.0
1.4938617810760666 -0.9960617810760668 0.0
1.4727122077922075 -0.9749122077922077 0.0
1.4507314285714283 -0.9529314285714284 0.0
1.4279194434137288 -0.930119443413729 0.0
1.4042762523191092 -0.9064762523191096 0.0
1.3798018552875693 -0.8820018552875695 0.0
1.3544962523191093 -0.8566962523191094 0.0
1.328359443413729 -0.8305594434137291 0.0
1.3013914285714283 -0.8035914285714285 0.0
1.2735922077922077 -0.7757922077922077 0.0
1.2449617810760665 -0.7471617810760667 0.0
1.2155001484230055 -0.7177001484230054 0.0
1.1852073098330238 -0.687407309833024 0.0
1.1540832653061224 -0.6562832653061225 0.0
1.1221280148423003 -0.6243280148423005 0.0
1.0893415584415582 -0.5915415584415583 0.0
1.055723896103896 -0.5579238961038959 0.0
1.0212750278293132 -0.5234750278293134 0.0
0.9859949536178108 -0.48819495361781057 0.0
0.9498836734693876 -0.4520836734693877 0.0
0.9129411873840445 -0.4151411873840446 0.0
0.875167495361781 -0.37736749536178116 0.0
0.8365625974025973 -0.3387625974025974 0.0
0.7971264935064933 -0.29932649350649343 0.0
0.7568591836734693 -0.25905918367346925 0.0
0.7157606679035249 -0.21796066790352486 0.0
0.6738309461966603 -0.1760309461966605 0.0
0.6310700185528755 -0.13327001855287568 0.0
0.5874778849721707 -0.08967788497217066 0.0
0.5430545454545455 -0.045254545454545436 0.0
0.4978 0.0 0.0
0.5430545454545455 0.04525454545454546 0.0
0.5874778849721707 0.08967788497217068 0.0
0.6310700185528757 0.1332700185528757 0.0
0.6738309461966605 0.1760309461966605 0.0
0.715760667903525 0.21796066790352508 0.0
0.7568591836734693 0.25905918367346936 0.0
0.7971264935064934 0.2993264935064935 0.0
0.8365625974025973 0.33876259740259734 0.0
0.875167495361781 0.377367495361781 0.0
0.9129411873840445 0.4151411873840445 0.0
0.9498836734693876 0.4520836734693878 0.0
0.9859949536178105 0.4881949536178107 0.0
1.0212750278293132 0.5234750278293134 0.0
1.055723896103896 0.557923896103896 0.0
1.0893415584415582 0.5915415584415583 0.0
1.1221280148423003 0.6243280148423004 0.0
1.1540832653061224 0.6562832653061225 0.0
1.185207309833024 0.6874073098330241 0.0
1.2155001484230055 0.7177001484230056 0.0
1.2449617810760667 0.7471617810760669 0.0
1.2735922077922077 0.7757922077922077 0.0
1.3013914285714283 0.8035914285714285 0.0
1.3283594434137287 0.830559443413729 0.0
1.3544962523191093 0.8566962523191094 0.0
1.3798018552875693 0.8820018552875695 0.0
1.4042762523191092 0.9064762523191093 0.0
1.427919443413729 0.9301194434137292 0.0
1.4507314285714283 0.9529314285714284 0.0
1.4727122077922075 0.9749122077922077 0.0
1.4938617810760666 0.9960617810760668 0.0
1.5141801484230053 1.0163801484230055 0.0
1.5336673098330238 1.035867309833024 0.0
1.552323265306122 1.0545232653061223 0.0
1.5701480148423002 1.0723480148423004 0.0
1.5871415584415582 1.0893415584415584 0.0
1.603303896103896 1.105503896103896 0.0
1.6186350278293131 1.1208350278293133 0.0
1.6331349536178106 1.1353349536178106 0.0
1.6468036734693874 1.1490036734693876 0.0
1.6596411873840444 1.1618411873840446 0.0
1.6716474953617806 1.173847495361781 0.0
1.6828225974025972 1.1850225974025972 0.0
1.6931664935064934 1.1953664935064934 0.0
1.7026791836734692 1.2048791836734694 0.0
1.7113606679035245 1.2135606679035247 0.0
1.71921094619666 1.2214109461966602 0.0
1.7262300185528754 1.2284300185528756 0.0
1.7324178849721703 1.2346178849721705 0.0
1.7377745454545452 1.2399745454545454 0.0
1.7422999999999997 1.2445 0.0
1.6155872727272724 -1.2422372727272726 0.0
1.6106462152133578 -1.237296215213358 0.0
1.604873951762523 -1.2315239517625232 0.0
1.598270482374768 -1.224920482374768 0.0
1.5908358070500925 -1.2174858070500927 0.0
1.582569925788497 -1.2092199257884972 0.0
1.5734728385899812 -1.2001228385899814 0.0
1.5635445454545454 -1.1901945454545453 0.0
1.552785046382189 -1.1794350463821892 0.0
1.5411943413729126 -1.1678443413729127 0.0
1.5287724304267158 -1.155422430426716 0.0
1.5155193135435991 -1.142169313543599 0.0
1.501434990723562 -1.1280849907235622 0.0
1.4865194619666047 -1.1131694619666048 0.0
1.4707727272727271 -1.0974227272727273 0.0
1.4541947866419294 -1.0808447866419293 0.0
1.4367856400742112 -1.0634356400742113 0.0
1.418545287569573 -1.0451952875695731 0.0
1.3994737291280146 -1.0261237291280147 0.0
1.379570964749536 -1.0062209647495362 0.0
1.358836994434137 -0.9854869944341371 0.0
1.337271818181818 -0.9639218181818181 0.0
1.3148754359925787 -0.9415254359925787 0.0
1.291647847866419 -0.9182978478664192 0.0
1.2675890538033394 -0.8942390538033393 0.0
1.2426990538033393 -0.8693490538033395 0.0
1.2169778478664193 -0.8436278478664192 0.0
1.1904254359925788 -0.8170754359925788 0.0
1.163041818181818 -0.7896918181818181 0.0
1.1348269944341371 -0.7614769944341371 0.0
1.105780964749536 -0.7324309647495362 0.0
1.0759037291280147 -0.7025537291280148 0.0
1.0451952875695731 -0.6718452875695733 0.0
1.0136556400742114 -0.6403056400742114 0.0
0.9812847866419293 -0.6079347866419293 0.0
0.9480827272727271 -0.5747327272727272 0.0
0.9140494619666047 -0.5406994619666048 0.0
0.8791849907235622 -0.5058349907235622 0.0
0.8434893135435992 -0.47013931354359917 0.0
0.8069624304267162 -0.43361243042671627 0.0
0.7696043413729128 -0.3962543413729128 0.0
0.7314150463821893 -0.3580650463821894 0.0
0.6923945454545455 -0.3190445454545454 0.0
0.6525428385899814 -0.27919283858998134 0.0
0.6118599257884971 -0.23850992578849706 0.0
0.5703458070500929 -0.19699580705009279 0.0
0.5280004823747682 -0.15465048237476808 0.0
0.4848239517625232 -0.11147395176252317 0.0
0.4408162152133581 -0.06746621521335805 0.0
0.39597727272727273 -0.022627272727272718 0.0
0.39597727272727273 0.02262727272727273 0.0
0.4408162152133581 0.06746621521335806 0.0
0.4848239517625232 0.11147395176252319 0.0
0.528000482374768 0.15465048237476808 0.0
0.5703458070500929 0.19699580705009276 0.0
0.6118599257884971 0.23850992578849717 0.0
0.6525428385899814 0.2791928385899814 0.0
0.6923945454545455 0.3190445454545454 0.0
0.7314150463821891 0.3580650463821891 0.0
0.7696043413729128 0.39625434137291277 0.0
0.8069624304267162 0.43361243042671616 0.0
0.8434893135435992 0.4701393135435992 0.0
0.8791849907235619 0.5058349907235621 0.0
0.9140494619666046 0.5406994619666047 0.0
0.9480827272727271 0.5747327272727272 0.0
0.9812847866419294 0.6079347866419295 0.0
1.0136556400742114 0.6403056400742114 0.0
1.0451952875695731 0.6718452875695732 0.0
1.0759037291280147 0.7025537291280147 0.0
1.105780964749536 0.7324309647495362 0.0
1.1348269944341371 0.7614769944341373 0.0
1.163041818181818 0.789691818181818 0.0
1.1904254359925786 0.8170754359925786 0.0
1.216977847866419 0.843627847866419 0.0
1.2426990538033393 0.8693490538033394 0.0
1.2675890538033392 0.8942390538033393 0.0
1.291647847866419 0.9182978478664192 0.0
1.3148754359925787 0.9415254359925787 0.0
1.3372718181818182 0.9639218181818181 0.0
1.3588369944341372 0.9854869944341373 0.0
1.379570964749536 1.0062209647495362 0.0
1.3994737291280148 1.0261237291280147 0.0
1.418545287569573 1.0451952875695731 0.0
1.4367856400742112 1.0634356400742113 0.0
1.4541947866419291 1.0808447866419293 0.0
1.470772727272727 1.097422727272727 0.0
1.4865194619666047 1.1131694619666048 0.0
1.501434990723562 1.128084990723562 0.0
1.5155193135435991 1.1421693135435993 0.0
1.528772430426716 1.1554224304267162 0.0
1.5411943413729128 1.1678443413729127 0.0
1.5527850463821888 1.179435046382189 0.0
1.5635445454545451 1.1901945454545453 0.0
1.573472838589981 1.2001228385899811 0.0
1.5825699257884969 1.209219925788497 0.0
1.5908358070500925 1.2174858070500927 0.0
1.5982704823747678 1.224920482374768 0.0
1.604873951762523 1.2315239517625232 0.0
1.6106462152133578 1.237296215213358 0.0
1.6155872727272724 1.2422372727272726 0.0

CELLS 200 700
4 0 101 102 1
4 1 102 103 2
4 2 103 104 3
4 3 104 105 4
4 4 105 106 5
4 5 106 107 6
4 6 107 108 7
4 7 108 109 8
4 8 109 110 9
4 9 110 111 10
4 10 111 112 11
4 11 112 113 12
4 12 113 114 13
4 13 114 115 14
4 14 115 116 15
4 15 116 117 16
4 16 117 118 17
4 17 118 119 18
4 18 119 120 19
4 19 120 121 20
4 20 121 122 21
4 21 122 123 22
4 22 123 124 23
4 23 124 125 24
4 24 125 126 25
4 25 126 127 26
4 26 127 128 27
4 27 128 129 28
4 28 129 130 29
4 29 130 131 30
4 30 131 132 31
4 31 132 133 32
4 32 133 134 33
4 33 134 135 34
4 34 135 136 35
4 35 136 137 36
4 36 137 138 37
4 37 138 139 38
4 38 139 140 39
4 39 140 141 40
4 40 141 142 41
4 41 142 143 42
4 42 143 144 43
4 43 144 145 44
4 44 145 146 45
4 45 146 147 46
4 46 147 148 47
4 47 148 149 48
4 48 149 150 49
4 49 150 151 50
4 50 151 152 51
4 51 152 153 52
4 52 153 154 53
4 53 154 155 54
4 54 155 156 55
4 55 156 157 56
4 56 157 158 57
4 57 158 159 58
4 58 159 160 59
4 59 160 161 60
4 60 161 162 61
4 61 162 163 62
4 62 163 164 63
4 63 164 165 64
4 64 165 166 65
4 65 166 167 66
4 66 167 168 67
4 67 168 169 68
4 68 169 170 69
4 69 170 171 70
4 70 171 172 71
4 71 172 173 72
4 72 173 174 73
4 73 174 175 74
4 74 175 176 75
4 75 176 177 76
4 76 177 178 77
4 77 178 179 78
4 78 179 180 79
4 79 180 181 80
4 80 181 182 81
4 81 182 183 82
4 82 183 184 83
4 83 184 185 84
4 84 185 186 85
4 85 186 187 86
4 86 187 188 87
4 87 188 189 88
4 88 189 190 89
4 89 190 191 90
4 90 191 192 91
4 91 192 193 92
4 92 193 194 93
4 93 194 195 94
4 94 195 196 95
4 95 196 197 96
4 96 197 198 97
4 97 198 199 98
4 98 199 200 99
4 99 200 201 100
1 202
1 203
1 204
1 205
1 206
1 207
1 208
1 209
1 210
1 211
1 212
1 213
1 214
1 215
1 216
1 217
1 218
1 219
1 220
1 221
1 222
1 223
1 224
1 225
1 226
1 227
1 228
1 229
1 230
1 231
1 232
1 233
1 234
1 235
1 236
1 237
1 238
1 239
1 240
1 241
1 242
1 243
1 244
1 245
1 246
1 247
1 248
1 249
1 250
1 251
1 252
1 253
1 254
1 255
1 256
1 257
1 258
1 259
1 260
1 261
1 262
1 263
1 264
1 265
1 266
1 267
1 268
1 269
1 270
1 271
1 272
1 273
1 274
1 275
1 276
1 277
1 278
1 279
1 280
1 281
1 282
1 283
1 284
1 285
1 286
1 287
1 288
1 289
1 290
1 291
1 292
1 293
1 294
1 295
1 296
1 297
1 298
1 299
1 300
1 301

CELL_TYPES 200
9
9
9
9
9
9
9
9
9
9
9
9
9
9
9
9
9
9
9
9
9
9
9
9
9
9
9
9
9
9
9
9
9
9
9
9
9
9
9
9
9
9
9
9
9
9
9
9
9
9
9
9
9
9
9
9
9
9
9
9
9
9
9
9
9
9
9
9
9
9
9
9
9
9
9
9
9
9
9
9
9
9
9
9
9
9
9
9
9
9
9
9
9
9
9
9
9
9
9
9
1
1
1
1
1
1
1
1
1
1
1
1
1
1
1
1
1
1
1
1
1
1
1
1
1
1
1
1
1
1
1
1
1
1
1
1
1
1
1
1
1
1
1
1
1
1
1
1
1
1
1
1
1
1
1
1
1
1
1
1
1
1
1
1
1
1
1
1
1
1
1
1
1
1
1
1
1
1
1
1
1
1
1
1
1
1
1
1
1
1
1
1
1
1
1
1
1
1
1
1

CELL_DATA 200

VECTORS Vinf float
49.52950085787743 0.02893560904840852 4.318757852230024
49.53196777420336 0.029930316036797026 4.283547713663857
49.53472879438505 0.0309253155794893 4.2438448391931125
49.537723885251275 0.03185971634543033 4.200382428059276
49.54088629096813 0.03267715423209322 4.153985925774568
49.5441461790186 0.033330551106484856 4.105529169835223
49.54743499612029 0.033785830524901236 4.055881477619353
49.55068974141641 0.03402379185332634 4.005856105380008
49.55385632977585 0.03403975522598621 3.9561708360066734
49.556891483950245 0.033841207203780005 3.9074276920036315
49.55976306314932 0.033444240941717315 3.860112251104194
49.56244918489878 0.03286982271935429 3.814606815838744
49.565073832691894 0.03462420707188388 3.77156914074338
49.567308978771386 0.03306162864971922 3.7307141999280247
49.56938342758686 0.03174240477213473 3.6919214780074605
49.57127529741291 0.03074096934517658 3.655702041320621
49.57296439736129 0.03013441049231272 3.6225417490554475
49.574431968276095 0.03000283417239564 3.5928943395794395
49.57566999160313 0.025687015266235083 3.5640394102317643
49.57659522483875 0.017728732120863174 3.5340947115856416
49.57757254778225 0.018418207142262253 3.513978495232268
49.578447584584396 0.018710581392038673 3.4952711195286614
49.57921662392774 0.018586111996320497 3.478148821569796
49.57987920897194 0.01801959942596254 3.4627167982018263
49.58043613939402 0.016980398913316423 3.449029432895386
49.58088809282891 0.015433285958512172 3.437106566161543
49.58123482697392 0.013339559905716116 3.426947110906493
49.581474765013084 0.010658009122643655 3.418542201133928
49.58160520971538 0.0073457633249878005 3.411888209377365
49.58214768847128 0.012703687296823474 3.4057965722900674
49.582031089694006 0.008963360218618328 3.4021546615504135
49.582122515855026 0.00906737779899207 3.400034567306464
49.58216649345378 0.008835818056569092 3.3990094082388977
49.58217006957382 0.008246222257568223 3.399142306764137
49.5821391164456 0.007267680607714708 3.4004280456583187
49.58207264489491 0.005862440491885714 3.4028418452187443
49.58195818785191 0.00399014828987634 3.406401532315497
49.58185078595303 0.004939922457502121 3.4124081714046643
49.58159473902508 0.004235642729462637 3.4189067580585335
49.581189365532474 0.002931939368232012 3.427916436615323
49.58062771870669 0.0016079923917899895 3.439012660113792
49.57987950661289 0.0002908403263092894 3.4527476311366008
49.578910106936966 -0.0009867113245855036 3.4697743806153887
49.57767806035631 -0.0021744725820911546 3.490730415136208
49.57651879544742 -0.001749859238654374 3.5158148867284793
49.57468457932992 -0.0024952162991961277 3.5445264492206805
49.57282105358315 -0.002674822612374688 3.5724339561244007
49.57143566400591 -0.0021493965873869646 3.5915261357413826
49.57096834383367 -0.0011805897968309295 3.595786678245066
49.57123314812995 -0.00036739812742461536 3.5889096915298846
49.571233155698586 0.000349683646420994 3.5889080711832784
49.57096824989046 0.0011623135150899233 3.59578165946012
49.57143533072792 0.0021305906844074378 3.5915171379762327
49.57282036468386 0.0026556116027562806 3.572420239835372
49.57468348312324 0.0024758461477837057 3.544507642566828
49.57651737939646 0.0017306444698831935 3.515791058929086
49.577676637781906 0.002152618457869077 3.4907007101569523
49.57890895132052 0.0009659426143439119 3.4697394193002893
49.57987893288271 -0.0003105953972723349 3.4527079459896513
49.58062792786453 -0.0016269137052491076 3.438968857114159
49.58119042639475 -0.0029502242737308375 3.4278691726442196
49.58159664111805 -0.004253450328983573 3.418856662280296
49.58185339488033 -0.004957149952546219 3.412356306106135
49.58196151076465 -0.004007474336179928 3.4063476841430864
49.58207668267361 -0.00588013419160808 3.402785885453483
49.58214372200171 -0.007285841299110559 3.400370194521802
49.5821750699485 -0.00826487940584287 3.3990827335796783
49.582171742170004 -0.008854933910033398 3.3989482096582053
49.58212792132168 -0.009086880089938399 3.399971765215008
49.58203660827668 -0.008983171448640635 3.402090288773325
49.582153555701076 -0.012724028173760497 3.4057310157397542
49.58161026243788 -0.007375308708797037 3.4118242257310474
49.5814799555897 -0.010686401718016828 3.4184781991305004
49.58124008219592 -0.01336681560803109 3.4268843903200112
49.58089333138751 -0.015459419997162915 3.4370464265925595
49.58044127649724 -0.01700541947855867 3.4489730384020145
49.57988416306073 -0.018043501985507922 3.4626650775661063
49.57922132410847 -0.018608876317764957 3.4781024323148784
49.578451976685415 -0.018732170775206256 3.4952304620072363
49.57757660106341 -0.018438571609424977 3.5139436883680277
49.576598943217796 -0.01774782202522118 3.534065449739274
49.57567564281628 -0.02570711017277758 3.5640170657639043
49.57443771283582 -0.03002206785082414 3.5928759710548324
49.5729703949821 -0.030153149299751325 3.6225250154359783
49.57128171224418 -0.03075922558189579 3.655684960247553
49.56939038786674 -0.03176022712678153 3.691902519359509
49.56731656237457 -0.03307907225470882 3.730692472981331
49.56508207211762 -0.03464131693401566 3.771544313620221
49.56245805920476 -0.0328870427887249 3.814578219893085
49.559772612376385 -0.03346127335334182 3.8600806628247977
49.55690171201155 -0.033858088476675374 3.9073932122560877
49.55386724171105 -0.0340565282217765 3.9561335036400322
49.5507013411437 -0.034040507448296994 4.005815911138097
49.54744728250604 -0.033802545523128856 4.0558383999880965
49.54415914223575 -0.033347323937908686 4.105483209493753
49.54089991012025 -0.032694039900682564 4.153937128805544
49.537738127483266 -0.03187676170596042 4.200330896916217
49.53474361527118 -0.03094255559900909 4.243790734302786
49.53198311902789 -0.029947771348262858 4.283491249247897
49.52951666340311 -0.02895328485337376 4.3186992892387055
49.52950085787743 0.02893560904840852 4.318757852230024
49.53196777420336 0.029930316036797026 4.283547713663857
49.53472879438505 0.0309253155794893 4.2438448391931125
49.537723885251275 0.03185971634543033 4.200382428059276
49.54088629096813 0.03267715423209322 4.153985925774568
49.5441461790186 0.033330551106484856 4.105529169835223
49.54743499612029 0.033785830524901236 4.055881477619353
49.55068974141641 0.03402379185332634 4.005856105380008
49.55385632977585 0.03403975522598621 3.9561708360066734
49.556891483950245 0.033841207203780005 3.9074276920036315
49.55976306314932 0.033444240941717315 3.860112251104194
49.56244918489878 0.03286982271935429 3.814606815838744
49.565073832691894 0.03462420707188388 3.77156914074338
49.567308978771386 0.03306162864971922 3.7307141999280247
49.56938342758686 0.03174240477213473 3.6919214780074605
49.57127529741291 0.03074096934517658 3.655702041320621
49.57296439736129 0.03013441049231272 3.6225417490554475
49.574431968276095 0.03000283417239564 3.5928943395794395
49.57566999160313 0.025687015266235083 3.5640394102317643
49.57659522483875 0.017728732120863174 3.5340947115856416
49.57757254778225 0.018418207142262253 3.513978495232268
49.578447584584396 0.018710581392038673 3.4952711195286614
49.57921662392774 0.018586111996320497 3.478148821569796
49.57987920897194 0.01801959942596254 3.4627167982018263
49.58043613939402 0.016980398913316423 3.449029432895386
49.58088809282891 0.015433285958512172 3.437106566161543
49.58123482697392 0.013339559905716116 3.426947110906493
49.581474765013084 0.010658009122643655 3.418542201133928
49.58160520971538 0.0073457633249878005 3.411888209377365
49.58214768847128 0.012703687296823474 3.4057965722900674
49.582031089694006 0.008963360218618328 3.4021546615504135
49.582122515855026 0.00906737779899207 3.400034567306464
49.58216649345378 0.008835818056569092 3.3990094082388977
49.58217006957382 0.008246222257568223 3.399142306764137
49.5821391164456 0.007267680607714708 3.4004280456583187
49.58207264489491 0.005862440491885714 3.4028418452187443
49.58195818785191 0.00399014828987634 3.406401532315497
49.58185078595303 0.004939922457502121 3.4124081714046643
49.58159473902508 0.004235642729462637 3.4189067580585335
49.581189365532474 0.002931939368232012 3.427916436615323
49.58062771870669 0.0016079923917899895 3.439012660113792
49.57987950661289 0.0002908403263092894 3.4527476311366008
49.578910106936966 -0.0009867113245855036 3.4697743806153887
49.57767806035631 -0.0021744725820911546 3.490730415136208
49.57651879544742 -0.001749859238654374 3.5158148867284793
49.57468457932992 -0.0024952162991961277 3.5445264492206805
49.57282105358315 -0.002674822612374688 3.5724339561244007
49.57143566400591 -0.0021493965873869646 3.5915261357413826
49.57096834383367 -0.0011805897968309295 3.595786678245066
49.57123314812995 -0.00036739812742461536 3.5889096915298846
49.571233155698586 0.000349683646420994 3.5889080711832784
49.57096824989046 0.0011623135150899233 3.59578165946012
49.57143533072792 0.0021305906844074378 3.5915171379762327
49.57282036468386 0.0026556116027562806 3.572420239835372
49.57468348312324 0.0024758461477837057 3.544507642566828
49.57651737939646 0.0017306444698831935 3.515791058929086
49.577676637781906 0.002152618457869077 3.4907007101569523
49.57890895132052 0.0009659426143439119 3.4697394193002893
49.57987893288271 -0.0003105953972723349 3.4527079459896513
49.58062792786453 -0.0016269137052491076 3.438968857114159
49.58119042639475 -0.0029502242737308375 3.4278691726442196
49.58159664111805 -0.004253450328983573 3.418856662280296
49.58185339488033 -0.004957149952546219 3.412356306106135
49.58196151076465 -0.004007474336179928 3.4063476841430864
49.58207668267361 -0.00588013419160808 3.402785885453483
49.58214372200171 -0.007285841299110559 3.400370194521802
49.5821750699485 -0.00826487940584287 3.3990827335796783
49.582171742170004 -0.008854933910033398 3.3989482096582053
49.58212792132168 -0.009086880089938399 3.399971765215008
49.58203660827668 -0.008983171448640635 3.402090288773325
49.582153555701076 -0.012724028173760497 3.4057310157397542
49.58161026243788 -0.007375308708797037 3.4118242257310474
49.5814799555897 -0.010686401718016828 3.4184781991305004
49.58124008219592 -0.01336681560803109 3.4268843903200112
49.58089333138751 -0.015459419997162915 3.4370464265925595
49.58044127649724 -0.01700541947855867 3.4489730384020145
49.57988416306073 -0.018043501985507922 3.4626650775661063
49.57922132410847 -0.018608876317764957 3.4781024323148784
49.578451976685415 -0.018732170775206256 3.4952304620072363
49.57757660106341 -0.018438571609424977 3.5139436883680277
49.576598943217796 -0.01774782202522118 3.534065449739274
49.57567564281628 -0.02570711017277758 3.5640170657639043
49.57443771283582 -0.03002206785082414 3.5928759710548324
49.5729703949821 -0.030153149299751325 3.6225250154359783
49.57128171224418 -0.03075922558189579 3.655684960247553
49.56939038786674 -0.03176022712678153 3.691902519359509
49.56731656237457 -0.03307907225470882 3.730692472981331
49.56508207211762 -0.03464131693401566 3.771544313620221
49.56245805920476 -0.0328870427887249 3.814578219893085
49.559772612376385 -0.03346127335334182 3.8600806628247977
49.55690171201155 -0.033858088476675374 3.9073932122560877
49.55386724171105 -0.0340565282217765 3.9561335036400322
49.5507013411437 -0.034040507448296994 4.005815911138097
49.54744728250604 -0.033802545523128856 4.0558383999880965
49.54415914223575 -0.033347323937908686 4.105483209493753
49.54089991012025 -0.032694039900682564 4.153937128805544
49.537738127483266 -0.03187676170596042 4.200330896916217
49.53474361527118 -0.03094255559900909 4.243790734302786
49.53198311902789 -0.029947771348262858 4.283491249247897
49.52951666340311 -0.02895328485337376 4.3186992892387055

VECTORS L float
-0.006669347856882925 0.0 0.09081923684882413
-0.012032517674948515 0.0 0.16385171324974943
-0.017778889825221807 0.0 0.24210241249893663
-0.024101514786762066 0.0 0.32820018190765143
-0.031042634152094448 0.0 0.42272024251380313
-0.03860395092028543 0.0 0.5256857847520322
-0.04677049007254594 0.0 0.6368928876682362
-0.05551801936217037 0.0 0.7560115708505121
-0.06481586276271409 0.0 0.8826241063034037
-0.07462810276037116 0.0 1.0162413905548235
-0.08491401447397086 0.0 1.1563088562455552
-0.09562992607900068 0.0 1.3022318062838998
-0.10672811391765058 0.0 1.4533603681073588
-0.1181578906989551 0.0 1.6090043121489344
-0.12986697649805262 0.0 1.768451721294639
-0.14180314249967718 0.0 1.930991374410749
-0.15391501635001983 0.0 2.0959237131494057
-0.16615255826413633 0.0 2.2625673252978653
-0.1784656213072762 0.0 2.4302393395406594
-0.1908098830165913 0.0 2.598336198777828
-0.20315685854976417 0.0 2.766470013264144
-0.21546593110474793 0.0 2.934087687398015
-0.2277001841525036 0.0 3.100686513708429
-0.23982931471819596 0.0 3.265853844196235
-0.2518273244976396 0.0 3.4292356493226928
-0.26367171650822047 0.0 3.590525578476578
-0.27534286602907454 0.0 3.749456393809381
-0.28682336737563796 0.0 3.90579107499725
-0.29809712982767406 0.0 4.059310508123262
-0.3091469368110352 0.0 4.209780248057428
-0.3199642308113854 0.0 4.357083763627889
-0.3305330317778513 0.0 4.501003447947692
-0.3408359252279663 0.0 4.641302160888348
-0.3508562052225382 0.0 4.777752410844852
-0.36057554463788055 0.0 4.91010462988005
-0.3699732718215887 0.0 5.03807732365055
-0.37902630327735376 0.0 5.161356154748326
-0.3877114874241398 0.0 5.27962585862778
-0.3959937628302762 0.0 5.392408989437311
-0.4038236397265377 0.0 5.499031624753121
-0.4111599276553433 0.0 5.5989328572716435
-0.417945059240807 0.0 5.691328768496263
-0.42410965488464547 0.0 5.775274588067993
-0.42956877944673144 0.0 5.849613719453928
-0.43421817444740307 0.0 5.912926432305448
-0.4379361877684161 0.0 5.9635561399851404
-0.4405859723574576 0.0 5.999639340225201
-0.44207358472165814 0.0 6.019896766069938
-0.4424285164445588 0.0 6.0247300164714765
-0.44060058525303436 0.0 5.999838329999451
-0.440600480449182 0.0 5.999836902842539
-0.44242785418213443 0.0 6.024720998173247
-0.442072328125091 0.0 6.019879654480665
-0.4405841044711348 0.0 5.999613904453368
-0.4379337123549828 0.0 5.9635224312682285
-0.4342151139634445 0.0 5.912884756443958
-0.4295651673779564 0.0 5.84956453243645
-0.42410557269873933 0.0 5.775218999273311
-0.41794056468035234 0.0 5.691267564228737
-0.4111550746746424 0.0 5.598866772249066
-0.40381848224772 0.0 5.498961393255178
-0.3959883579492891 0.0 5.392335388962866
-0.38770591457567255 0.0 5.279549970871476
-0.37902062763190464 0.0 5.161278867163486
-0.3699674303257003 0.0 5.037997777612463
-0.36056956472467117 0.0 4.910023198956704
-0.3508501311310037 0.0 4.777669697456745
-0.3408297995467179 0.0 4.64121874498201