# vtk DataFile Version 4.0
[MyVLM domain - lattices] 
ASCII
DATASET UNSTRUCTURED_GRID
POINTS 302 float
1.2444999999999997 -1.2445 0.0
1.2399745454545452 -1.2399745454545454 0.0
1.2346178849721705 -1.2346178849721707 0.0
1.2284300185528754 -1.2284300185528756 0.0
1.2214109461966602 -1.2214109461966605 0.0
1.2135606679035247 -1.213560667903525 0.0
1.2048791836734691 -1.2048791836734694 0.0
1.1953664935064932 -1.1953664935064934 0.0
1.1850225974025972 -1.1850225974025974 0.0
1.1738474953617808 -1.173847495361781 0.0
1.1618411873840442 -1.1618411873840444 0.0
1.1490036734693874 -1.1490036734693876 0.0
1.1353349536178106 -1.1353349536178108 0.0
1.1208350278293133 -1.1208350278293135 0.0
1.1055038961038959 -1.105503896103896 0.0
1.0893415584415582 -1.0893415584415584 0.0
1.0723480148423004 -1.0723480148423006 0.0
1.054523265306122 -1.0545232653061223 0.0
1.0358673098330238 -1.035867309833024 0.0
1.0163801484230053 -1.0163801484230055 0.0
0.9960617810760664 -0.9960617810760668 0.0
0.9749122077922076 -0.9749122077922077 0.0
0.9529314285714284 -0.9529314285714284 0.0
0.9301194434137288 -0.930119443413729 0.0
0.9064762523191091 -0.9064762523191096 0.0
0.8820018552875695 -0.8820018552875695 0.0
0.8566962523191093 -0.8566962523191094 0.0
0.8305594434137288 -0.8305594434137291 0.0
0.8035914285714284 -0.8035914285714285 0.0
0.7757922077922076 -0.7757922077922077 0.0
0.7471617810760666 -0.7471617810760667 0.0
0.7177001484230053 -0.7177001484230054 0.0
0.6874073098330239 -0.687407309833024 0.0
0.6562832653061222 -0.6562832653061225 0.0
0.6243280148423004 -0.6243280148423005 0.0
0.5915415584415582 -0.5915415584415583 0.0
0.5579238961038958 -0.5579238961038959 0.0
0.5234750278293133 -0.5234750278293134 0.0
0.48819495361781057 -0.48819495361781057 0.0
0.4520836734693877 -0.4520836734693877 0.0
0.4151411873840445 -0.4151411873840446 0.0
0.37736749536178105 -0.37736749536178116 0.0
0.3387625974025974 -0.3387625974025974 0.0
0.2993264935064933 -0.29932649350649343 0.0
0.25905918367346925 -0.25905918367346925 0.0
0.21796066790352486 -0.21796066790352486 0.0
0.17603094619666027 -0.1760309461966605 0.0
0.13327001855287546 -0.13327001855287568 0.0
0.08967788497217066 -0.08967788497217066 0.0
0.045254545454545436 -0.045254545454545436 0.0
0.0 0.0 0.0
0.04525454545454545 0.04525454545454546 0.0
0.08967788497217066 0.08967788497217068 0.0
0.13327001855287568 0.1332700185528757 0.0
0.17603094619666046 0.1760309461966605 0.0
0.21796066790352497 0.21796066790352508 0.0
0.2590591836734693 0.25905918367346936 0.0
0.29932649350649343 0.2993264935064935 0.0
0.3387625974025973 0.33876259740259734 0.0
0.37736749536178094 0.377367495361781 0.0
0.41514118738404443 0.4151411873840445 0.0
0.45208367346938766 0.4520836734693878 0.0
0.48819495361781057 0.4881949536178107 0.0
0.5234750278293133 0.5234750278293134 0.0
0.5579238961038959 0.557923896103896 0.0
0.5915415584415582 0.5915415584415583 0.0
0.6243280148423003 0.6243280148423004 0.0
0.6562832653061222 0.6562832653061225 0.0
0.687407309833024 0.6874073098330241 0.0
0.7177001484230054 0.7177001484230056 0.0
0.7471617810760667 0.7471617810760669 0.0
0.7757922077922076 0.7757922077922077 0.0
0.8035914285714284 0.8035914285714285 0.0
0.8305594434137288 0.830559443413729 0.0
0.8566962523191093 0.8566962523191094 0.0
0.8820018552875692 0.8820018552875695 0.0
0.9064762523191091 0.9064762523191093 0.0
0.9301194434137288 0.9301194434137292 0.0
0.9529314285714284 0.9529314285714284 0.0
0.9749122077922076 0.9749122077922077 0.0
0.9960617810760666 0.9960617810760668 0.0
1.0163801484230053 1.0163801484230055 0.0
1.0358673098330238 1.035867309833024 0.0
1.054523265306122 1.0545232653061223 0.0
1.0723480148423001 1.0723480148423004 0.0
1.0893415584415582 1.0893415584415584 0.0
1.1055038961038959 1.105503896103896 0.0
1.120835027829313 1.1208350278293133 0.0
1.1353349536178106 1.1353349536178106 0.0
1.1490036734693874 1.1490036734693876 0.0
1.1618411873840444 1.1618411873840446 0.0
1.1738474953617808 1.173847495361781 0.0
1.1850225974025972 1.1850225974025972 0.0
1.1953664935064932 1.1953664935064934 0.0
1.2048791836734691 1.2048791836734694 0.0
1.2135606679035245 1.2135606679035247 0.0
1.22141094619666 1.2214109461966602 0.0
1.2284300185528754 1.2284300185528756 0.0
1.2346178849721703 1.2346178849721705 0.0
1.2399745454545452 1.2399745454545454 0.0
1.2444999999999997 1.2445 0.0
1.7422999999999997 -1.2445 0.0
1.7377745454545452 -1.2399745454545454 0.0
1.7324178849721703 -1.2346178849721707 0.0
1.7262300185528754 -1.2284300185528756 0.0
1.7192109461966603 -1.2214109461966605 0.0
1.7113606679035245 -1.213560667903525 0.0
1.7026791836734692 -1.2048791836734694 0.0
1.6931664935064934 -1.1953664935064934 0.0
1.6828225974025972 -1.1850225974025974 0.0
1.6716474953617806 -1.173847495361781 0.0
1.6596411873840444 -1.1618411873840444 0.0
1.6468036734693878 -1.1490036734693876 0.0
1.6331349536178106 -1.1353349536178108 0.0
1.6186350278293133 -1.1208350278293135 0.0
1.603303896103896 -1.105503896103896 0.0
1.5871415584415582 -1.0893415584415584 0.0
1.5701480148423004 -1.0723480148423006 0.0
1.552323265306122 -1.0545232653061223 0.0
1.5336673098330238 -1.035867309833024 0.0
1.5141801484230053 -1.0163801484230055 0.0
1.4938617810760666 -0.9960617810760668 0.0
1.4727122077922075 -0.9749122077922077 0.0
1.4507314285714283 -0.9529314285714284 0.0
1.4279194434137288 -0.930119443413729 0.0
1.4042762523191092 -0.9064762523191096 0.0
1.3798018552875693 -0.8820018552875695 0.0
1.3544962523191093 -0.8566962523191094 0.0
1.328359443413729 -0.8305594434137291 0.0
1.3013914285714283 -0.8035914285714285 0.0
1.2735922077922077 -0.7757922077922077 0.0
1.2449617810760665 -0.7471617810760667 0.0
1.2155001484230055 -0.7177001484230054 0.0
1.1852073098330238 -0.687407309833024 0.0
1.1540832653061224 -0.6562832653061225 0.0
1.1221280148423003 -0.6243280148423005 0.0
1.0893415584415582 -0.5915415584415583 0.0
1.055723896103896 -0.5579238961038959 0.0
1.0212750278293132 -0.5234750278293134 0.0
0.9859949536178108 -0.48819495361781057 0.0
0.9498836734693876 -0.4520836734693877 0.0
0.9129411873840445 -0.4151411873840446 0.0
0.875167495361781 -0.37736749536178116 0.0
0.8365625974025973 -0.3387625974025974 0.0
0.7971264935064933 -0.29932649350649343 0.0
0.7568591836734693 -0.25905918367346925 0.0
0.7157606679035249 -0.21796066790352486 0.0
0.6738309461966603 -0.1760309461966605 0.0
0.6310700185528755 -0.13327001855287568 0.0
0.5874778849721707 -0.08967788497217066 0.0
0.5430545454545455 -0.045254545454545436 0.0
0.4978 0.0 0.0
0.5430545454545455 0.04525454545454546 0.0
0.5874778849721707 0.08967788497217068 0.0
0.6310700185528757 0.1332700185528757 0.0
0.6738309461966605 0.1760309461966605 0.0
0.715760667903525 0.21796066790352508 0.0
0.7568591836734693 0.25905918367346936 0.0
0.7971264935064934 0.2993264935064935 0.0
0.8365625974025973 0.33876259740259734 0.0
0.875167495361781 0.377367495361781 0.0
0.9129411873840445 0.4151411873840445 0.0
0.9498836734693876 0.4520836734693878 0.0
0.9859949536178105 0.4881949536178107 0.0
1.0212750278293132 0.5234750278293134 0.0
1.055723896103896 0.557923896103896 0.0
1.0893415584415582 0.5915415584415583 0.0
1.1221280148423003 0.6243280148423004 0.0
1.1540832653061224 0.6562832653061225 0.0
1.185207309833024 0.6874073098330241 0.0
1.2155001484230055 0.7177001484230056 0.0
1.2449617810760667 0.7471617810760669 0.0
1.2735922077922077 0.7757922077922077 0.0
1.3013914285714283 0.8035914285714285 0.0
1.3283594434137287 0.830559443413729 0.0
1.3544962523191093 0.8566962523191094 0.0
1.3798018552875693 0.8820018552875695 0.0
1.4042762523191092 0.9064762523191093 0.0
1.427919443413729 0.9301194434137292 0.0
1.4507314285714283 0.9529314285714284 0.0
1.4727122077922075 0.9749122077922077 0.0
1.4938617810760666 0.9960617810760668 0.0
1.5141801484230053 1.0163801484230055 0.0
1.5336673098330238 1.035867309833024 0.0
1.552323265306122 1.0545232653061223 0.0
1.5701480148423002 1.0723480148423004 0.0
1.5871415584415582 1.0893415584415584 0.0
1.603303896103896 1.105503896103896 0.0
1.6186350278293131 1.1208350278293133 0.0
1.6331349536178106 1.1353349536178106 0.0
1.6468036734693874 1.1490036734693876 0.0
1.6596411873840444 1.1618411873840446 0.0
1.6716474953617806 1.173847495361781 0.0
1.6828225974025972 1.1850225974025972 0.0
1.6931664935064934 1.1953664935064934 0.0
1.7026791836734692 1.2048791836734694 0.0
1.7113606679035245 1.2135606679035247 0.0
1.71921094619666 1.2214109461966602 0.0
1.7262300185528754 1.2284300185528756 0.0
1.7324178849721703 1.2346178849721705 0.0
1.7377745454545452 1.2399745454545454 0.0
1.7422999999999997 1.2445 0.0
1.6155872727272724 -1.2422372727272726 0.0
1.6106462152133578 -1.237296215213358 0.0
1.604873951762523 -1.2315239517625232 0.0
1.598270482374768 -1.224920482374768 0.0
1.5908358070500925 -1.2174858070500927 0.0
1.582569925788497 -1.2092199257884972 0.0
1.5734728385899812 -1.2001228385899814 0.0
1.5635445454545454 -1.1901945454545453 0.0
1.552785046382189 -1.1794350463821892 0.0
1.5411943413729126 -1.1678443413729127 0.0
1.5287724304267158 -1.155422430426716 0.0
1.5155193135435991 -1.142169313543599 0.0
1.501434990723562 -1.1280849907235622 0.0
1.4865194619666047 -1.1131694619666048 0.0
1.4707727272727271 -1.0974227272727273 0.0
1.4541947866419294 -1.0808447866419293 0.0
1.4367856400742112 -1.0634356400742113 0.0
1.418545287569573 -1.0451952875695731 0.0
1.3994737291280146 -1.0261237291280147 0.0
1.379570964749536 -1.0062209647495362 0.0
1.358836994434137 -0.9854869944341371 0.0
1.337271818181818 -0.9639218181818181 0.0
1.3148754359925787 -0.9415254359925787 0.0
1.291647847866419 -0.9182978478664192 0.0
1.2675890538033394 -0.8942390538033393 0.0
1.2426990538033393 -0.8693490538033395 0.0
1.2169778478664193 -0.8436278478664192 0.0
1.1904254359925788 -0.8170754359925788 0.0
1.163041818181818 -0.7896918181818181 0.0
1.1348269944341371 -0.7614769944341371 0.0
1.105780964749536 -0.7324309647495362 0.0
1.0759037291280147 -0.7025537291280148 0.0
1.0451952875695731 -0.6718452875695733 0.0
1.0136556400742114 -0.6403056400742114 0.0
0.9812847866419293 -0.6079347866419293 0.0
0.9480827272727271 -0.5747327272727272 0.0
0.9140494619666047 -0.5406994619666048 0.0
0.8791849907235622 -0.5058349907235622 0.0
0.8434893135435992 -0.47013931354359917 0.0
0.8069624304267162 -0.43361243042671627 0.0
0.7696043413729128 -0.3962543413729128 0.0
0.7314150463821893 -0.3580650463821894 0.0
0.6923945454545455 -0.3190445454545454 0.0
0.6525428385899814 -0.27919283858998134 0.0
0.6118599257884971 -0.23850992578849706 0.0
0.5703458070500929 -0.19699580705009279 0.0
0.5280004823747682 -0.15465048237476808 0.0
0.4848239517625232 -0.11147395176252317 0.0
0.4408162152133581 -0.06746621521335805 0.0
0.39597727272727273 -0.022627272727272718 0.0
0.39597727272727273 0.02262727272727273 0.0
0.4408162152133581 0.06746621521335806 0.0
0.4848239517625232 0.11147395176252319 0.0
0.528000482374768 0.15465048237476808 0.0
0.5703458070500929 0.19699580705009276 0.0
0.6118599257884971 0.23850992578849717 0.0
0.6525428385899814 0.2791928385899814 0.0
0.6923945454545455 0.3190445454545454 0.0
0.7314150463821891 0.3580650463821891 0.0
0.7696043413729128 0.39625434137291277 0.0
0.8069624304267162 0.43361243042671616 0.0
0.8434893135435992 0.4701393135435992 0.0
0.8791849907235619 0.5058349907235621 0.0
0.9140494619666046 0.5406994619666047 0.0
0.9480827272727271 0.5747327272727272 0.0
0.9812847866419294 0.6079347866419295 0.0
1.0136556400742114 0.6403056400742114 0.0
1.0451952875695731 0.6718452875695732 0.0
1.0759037291280147 0.7025537291280147 0.0
1.105780964749536 0.7324309647495362 0.0
1.1348269944341371 0.7614769944341373 0.0
1.163041818181818 0.789691818181818 0.0
1.1904254359925786 0.8170754359925786 0.0
1.216977847866419 0.843627847866419 0.0
1.2426990538033393 0.8693490538033394 0.0
1.2675890538033392 0.8942390538033393 0.0
1.291647847866419 0.9182978478664192 0.0
1.3148754359925787 0.9415254359925787 0.0
1.3372718181818182 0.9639218181818181 0.0
1.3588369944341372 0.9854869944341373 0.0
1.379570964749536 1.0062209647495362 0.0
1.3994737291280148 1.0261237291280147 0.0
1.418545287569573 1.0451952875695731 0.0
1.4367856400742112 1.0634356400742113 0.0
1.4541947866419291 1.0808447866419293 0.0
1.470772727272727 1.097422727272727 0.0
1.4865194619666047 1.1131694619666048 0.0
1.501434990723562 1.128084990723562 0.0
1.5155193135435991 1.1421693135435993 0.0
1.528772430426716 1.1554224304267162 0.0
1.5411943413729128 1.1678443413729127 0.0
1.5527850463821888 1.179435046382189 0.0
1.5635445454545451 1.1901945454545453 0.0
1.573472838589981 1.2001228385899811 0.0
1.5825699257884969 1.209219925788497 0.0
1.5908358070500925 1.2174858070500927 0.0
1.5982704823747678 1.224920482374768 0.0
1.604873951762523 1.2315239517625232 0.0
1.6106462152133578 1.237296215213358 0.0
1.6155872727272724 1.2422372727272726 0.0

CELLS 200 700
4 0 101 102 1
4 1 102 103 2
4 2 103 104 3
4 3 104 105 4
4 4 105 106 5
4 5 106 107 6
4 6 107 108 7
4 7 108 109 8
4 8 109 110 9
4 9 110 111 10
4 10 111 112 11
4 11 112 113 12
4 12 113 114 13
4 13 114 115 14
4 14 115 116 15
4 15 116 117 16
4 16 117 118 17
4 17 118 119 18
4 18 119 120 19
4 19 120 121 20
4 20 121 122 21
4 21 122 123 22
4 22 123 124 23
4 23 124 125 24
4 24 125 126 25
4 25 126 127 26
4 26 127 128 27
4 27 128 129 28
4 28 129 130 29
4 29 130 131 30
4 30 131 132 31
4 31 132 133 32
4 32 133 134 33
4 33 134 135 34
4 34 135 136 35
4 35 136 137 36
4 36 137 138 37
4 37 138 139 38
4 38 139 140 39
4 39 140 141 40
4 40 141 142 41
4 41 142 143 42
4 42 143 144 43
4 43 144 145 44
4 44 145 146 45
4 45 146 147 46
4 46 147 148 47
4 47 148 149 48
4 48 149 150 49
4 49 150 151 50
4 50 151 152 51
4 51 152 153 52
4 52 153 154 53
4 53 154 155 54
4 54 155 156 55
4 55 156 157 56
4 56 157 158 57
4 57 158 159 58
4 58 159 160 59
4 59 160 161 60
4 60 161 162 61
4 61 162 163 62
4 62 163 164 63
4 63 164 165 64
4 64 165 166 65
4 65 166 167 66
4 66 167 168 67
4 67 168 169 68
4 68 169 170 69
4 69 170 171 70
4 70 171 172 71
4 71 172 173 72
4 72 173 174 73
4 73 174 175 74
4 74 175 176 75
4 75 176 177 76
4 76 177 178 77
4 77 178 179 78
4 78 179 180 79
4 79 180 181 80
4 80 181 182 81
4 81 182 183 82
4 82 183 184 83
4 83 184 185 84
4 84 185 186 85
4 85 186 187 86
4 86 187 188 87
4 87 188 189 88
4 88 189 190 89
4 89 190 191 90
4 90 191 192 91
4 91 192 193 92
4 92 193 194 93
4 93 194 195 94
4 94 195 196 95
4 95 196 197 96
4 96 197 198 97
4 97 198 199 98
4 98 199 200 99
4 99 200 201 100
1 202
1 203
1 204
1 205
1 206
1 207
1 208
1 209
1 210
1 211
1 212
1 213
1 214
1 215
1 216
1 217
1 218
1 219
1 220
1 221
1 222
1 223
1 224
1 225
1 226
1 227
1 228
1 229
1 230
1 231
1 232
1 233
1 234
1 235
1 236
1 237
1 238
1 239
1 240
1 241
1 242
1 243
1 244
1 245
1 246
1 247
1 248
1 249
1 250
1 251
1 252
1 253
1 254
1 255
1 256
1 257
1 258
1 259
1 260
1 261
1 262
1 263
1 264
1 265
1 266
1 267
1 268
1 269
1 270
1 271
1 272
1 273
1 274
1 275
1 276
1 277
1 278
1 279
1 280
1 281
1 282
1 283
1 284
1 285
1 286
1 287
1 288
1 289
1 290
1 291
1 292
1 293
1 294
1 295
1 296
1 297
1 298
1 299
1 300
1 301

CELL_TYPES 200
9
9
9
9
9
9
9
9
9
9
9
9
9
9
9
9
9
9
9
9
9
9
9
9
9
9
9
9
9
9
9
9
9
9
9
9
9
9
9
9
9
9
9
9
9
9
9
9
9
9
9
9
9
9
9
9
9
9
9
9
9
9
9
9
9
9
9
9
9
9
9
9
9
9
9
9
9
9
9
9
9
9
9
9
9
9
9
9
9
9
9
9
9
9
9
9
9
9
9
9
1
1
1
1
1
1
1
1
1
1
1
1
1
1
1
1
1
1
1
1
1
1
1
1
1
1
1
1
1
1
1
1
1
1
1
1
1
1
1
1
1
1
1
1
1
1
1
1
1
1
1
1
1
1
1
1
1
1
1
1
1
1
1
1
1
1
1
1
1
1
1
1
1
1
1
1
1
1
1
1
1
1
1
1
1
1
1
1
1
1
1
1
1
1
1
1
1
1
1
1

CELL_DATA 200

VECTORS Vinf float
49.53039158049383 0.028315029098122134 4.31393712727835
49.532886482433916 0.029270583136461272 4.278185630726285
49.53531436614671 0.0308027327828211 4.2435155490629475
49.53830791821319 0.031715342414565445 4.200067048855458
49.541466726229075 0.03250887153074978 4.153678933127406
49.544720437013424 0.033136927429861414 4.105223395271655
49.54800013273972 0.03356640313537747 4.055568396206272
49.55124272263776 0.03377931307713616 4.005526123370056
49.55439440161727 0.033772314789475295 3.9558134891377237
49.55741256952863 0.03355414574182002 3.90703171840085
49.560266079246084 0.03314180589141952 3.8596656277037495
49.56293416163303 0.032556595585109954 3.814097007559751
49.5654046443706 0.03182094954194432 3.770623507832021
49.567672059245055 0.03095651576291361 3.729475507593425
49.56973600862349 0.02998339781300162 3.690827107811511
49.57159990022792 0.028920153814297342 3.654801136942383
49.57326997575684 0.027784097220016058 3.6214703605340457
49.57475449058821 0.0265915967724663 3.5908578838464402
49.57606295440101 0.025358294859608006 3.5629395517034537
49.57720550065934 0.024099315657272143 3.537650130776535
49.57819261758743 0.022829498801708686 3.514893206750718
49.57892935638011 0.016552348570784435 3.488840827053529
49.5795842131274 0.016802861369041536 3.4736274681114563
49.580155023752624 0.01671785656926895 3.4595299811553972
49.58064217539176 0.016288664973340656 3.44672882575462
49.58105025865649 0.015498982875157495 3.4353287583103387
49.58138425551666 0.014324717274406804 3.4253843013962313
49.58164657804928 0.012735875334249356 3.4169237899405194
49.58183591332007 0.010699575105194769 3.4099695893202795
49.58194811849755 0.008182791504574898 3.4045507788143974
49.58233419649667 0.01152694251593656 3.4002328039919196
49.58218081984146 0.008365567510444948 3.3980372519718265
49.58223081052138 0.008327928499714775 3.3972803717123146
49.58222911917964 0.007951487373275832 3.3975952398093656
49.58218173221648 0.007217668185008463 3.398997440608362
49.58209435253205 0.006098316762981625 3.4014720314631286
49.58196426658815 0.004555479657850655 3.4050458806115516
49.58177284562112 0.002547183637032837 3.409834239861129
49.58158881346284 0.004451006403075717 3.4174527060348536
49.581178861012226 0.003120297900705547 3.4264802007947224
49.58061956274423 0.0017959459193534614 3.437614615646139
49.57988284341421 0.0005090749219667282 3.451413003426696
49.57893820715948 -0.0007076371995615782 3.4685349289892913
49.5777457683282 -0.0018072202536174693 3.4896148585063673
49.57653345924894 -0.0015639781052587806 3.5151017376472016
49.574725949589826 -0.0023419919481117864 3.543779846110431
49.57288205201554 -0.0025592183945966074 3.5716450223836906
49.57150551292222 -0.0020714012412254654 3.590708452171478
49.57103723977932 -0.0011350673913705614 3.5949612330615768
49.571294846734915 -0.0003470685815754133 3.588094538343591
49.57129481661736 0.0003309785142227764 3.5880932720343015
49.5710372701623 0.00111852734786872 3.594956958199861
49.571505568522525 0.00205442229420686 3.5907007976783722
49.57288212095912 0.0025418339438516434 3.5716334255970987
49.57472603684855 0.0023242707760737016 3.5437639801907483
49.57653360731697 0.00154601971434766 3.515081639059632
49.57774580226151 0.0017878072130957789 3.4895904188165217
49.57893848919582 0.0006886202469528606 3.468506551917274
49.579883506441476 -0.0005277392267960585 3.451381287109403
49.58062071124612 -0.0018143566887781678 3.4375801389592384
49.58118054826284 -0.003138586044695687 3.426443520213685
49.58159104727504 -0.004469308413302642 3.417414330679573
49.58177501105439 -0.0025648186879236342 3.409796078284005
49.58196707098803 -0.004573448080641987 3.405007004805664
49.582097620325946 -0.006116758112410671 3.4014330698547526
49.582185285316406 -0.007236664487766944 3.398958849259678
49.58223281656821 -0.00797107013846821 3.3975573080763155
49.58223456702767 -0.00834811162874105 3.3972432477795005
49.58218459332338 -0.008386374922181356 3.398000976610354
49.582338126695156 -0.011550840306941501 3.400197638754227
49.58195068949523 -0.008209870071594063 3.40452090296226
49.581838357321324 -0.010726107482631033 3.40994084845608
49.58164867801484 -0.012762091343987716 3.416896402412241
49.58138572174049 -0.014350778546064782 3.42535853421412
49.58105076136883 -0.015524936956068392 3.435304737751358
49.58064140406441 -0.01631442674150443 3.4467063191293286
49.58015274298801 -0.016743218734874506 3.459508411032514
49.57958029341114 -0.0168275208798275 3.473606144108229
49.578923785131344 -0.016575939661689 3.488819084926534
49.578187647421046 -0.022859256603932253 3.514869523485397
49.57719940810129 -0.024127742637465272 3.5376242802846174
49.57605615289397 -0.025385005660893287 3.5629093381623798
49.574747490185985 -0.026616359111981968 3.590820657515379
49.57326330900762 -0.02780683651037218 3.6214237188314278
49.57159405003091 -0.028940923185241278 3.6547435262299666
49.5697313647382 -0.030002337437476084 3.6907580141379612
49.567668907777 -0.030973820411361888 3.7293952593863913
49.56540317743919 -0.03183684885086049 3.7705329173043705
49.562934492027324 -0.032571341539686174 3.813997063451754
49.56026825193424 -0.03315566075896973 3.859557329270298
49.557416569510515 -0.033567367626245306 3.906916033006909
49.55440016113527 -0.033785142189243826 3.9556913711715067
49.55125013035725 -0.033791951695380004 4.005398538145759
49.5480090454245 -0.03357901763363331 4.055436319630473
49.54473069241892 -0.033149639044137716 4.105087786089008
49.54147815525319 -0.03252176074058025 4.153540689736799
49.538320354672834 -0.03172845487220566 4.199926966379051
49.53532765337611 -0.030816086564303506 4.243374288481064
49.532899954274114 -0.02928319242523278 4.27804256186184
49.530405640209324 -0.02832781422175 4.313794007565498
49.53039158049383 0.028315029098122134 4.31393712727835
49.532886482433916 0.029270583136461272 4.278185630726285
49.53531436614671 0.0308027327828211 4.2435155490629475
49.53830791821319 0.031715342414565445 4.200067048855458
49.541466726229075 0.03250887153074978 4.153678933127406
49.544720437013424 0.033136927429861414 4.105223395271655
49.54800013273972 0.03356640313537747 4.055568396206272
49.55124272263776 0.03377931307713616 4.005526123370056
49.55439440161727 0.033772314789475295 3.9558134891377237
49.55741256952863 0.03355414574182002 3.90703171840085
49.560266079246084 0.03314180589141952 3.8596656277037495
49.56293416163303 0.032556595585109954 3.814097007559751
49.5654046443706 0.03182094954194432 3.770623507832021
49.567672059245055 0.03095651576291361 3.729475507593425
49.56973600862349 0.02998339781300162 3.690827107811511
49.57159990022792 0.028920153814297342 3.654801136942383
49.57326997575684 0.027784097220016058 3.6214703605340457
49.57475449058821 0.0265915967724663 3.5908578838464402
49.57606295440101 0.025358294859608006 3.5629395517034537
49.57720550065934 0.024099315657272143 3.537650130776535
49.57819261758743 0.022829498801708686 3.514893206750718
49.57892935638011 0.016552348570784435 3.488840827053529
49.5795842131274 0.016802861369041536 3.4736274681114563
49.580155023752624 0.01671785656926895 3.4595299811553972
49.58064217539176 0.016288664973340656 3.44672882575462
49.58105025865649 0.015498982875157495 3.4353287583103387
49.58138425551666 0.014324717274406804 3.4253843013962313
49.58164657804928 0.012735875334249356 3.4169237899405194
49.58183591332007 0.010699575105194769 3.4099695893202795
49.58194811849755 0.008182791504574898 3.4045507788143974
49.58233419649667 0.01152694251593656 3.4002328039919196
49.58218081984146 0.008365567510444948 3.3980372519718265
49.58223081052138 0.008327928499714775 3.3972803717123146
49.58222911917964 0.007951487373275832 3.3975952398093656
49.58218173221648 0.007217668185008463 3.398997440608362
49.58209435253205 0.006098316762981625 3.4014720314631286
49.58196426658815 0.004555479657850655 3.4050458806115516
49.58177284562112 0.002547183637032837 3.409834239861129
49.58158881346284 0.004451006403075717 3.4174527060348536
49.581178861012226 0.003120297900705547 3.4264802007947224
49.58061956274423 0.0017959459193534614 3.437614615646139
49.57988284341421 0.0005090749219667282 3.451413003426696
49.57893820715948 -0.0007076371995615782 3.4685349289892913
49.5777457683282 -0.0018072202536174693 3.4896148585063673
49.57653345924894 -0.0015639781052587806 3.5151017376472016
49.574725949589826 -0.0023419919481117864 3.543779846110431
49.57288205201554 -0.0025592183945966074 3.5716450223836906
49.57150551292222 -0.0020714012412254654 3.590708452171478
49.57103723977932 -0.0011350673913705614 3.5949612330615768
49.571294846734915 -0.0003470685815754133 3.588094538343591
49.57129481661736 0.0003309785142227764 3.5880932720343015
49.5710372701623 0.00111852734786872 3.594956958199861
49.571505568522525 0.00205442229420686 3.5907007976783722
49.57288212095912 0.0025418339438516434 3.5716334255970987
49.57472603684855 0.0023242707760737016 3.5437639801907483
49.57653360731697 0.00154601971434766 3.515081639059632
49.57774580226151 0.0017878072130957789 3.4895904188165217
49.57893848919582 0.0006886202469528606 3.468506551917274
49.579883506441476 -0.0005277392267960585 3.451381287109403
49.58062071124612 -0.0018143566887781678 3.4375801389592384
49.58118054826284 -0.003138586044695687 3.426443520213685
49.58159104727504 -0.004469308413302642 3.417414330679573
49.58177501105439 -0.0025648186879236342 3.409796078284005
49.58196707098803 -0.004573448080641987 3.405007004805664
49.582097620325946 -0.006116758112410671 3.4014330698547526
49.582185285316406 -0.007236664487766944 3.398958849259678
49.58223281656821 -0.00797107013846821 3.3975573080763155
49.58223456702767 -0.00834811162874105 3.3972432477795005
49.58218459332338 -0.008386374922181356 3.398000976610354
49.582338126695156 -0.011550840306941501 3.400197638754227
49.58195068949523 -0.008209870071594063 3.40452090296226
49.581838357321324 -0.010726107482631033 3.40994084845608
49.58164867801484 -0.012762091343987716 3.416896402412241
49.58138572174049 -0.014350778546064782 3.42535853421412
49.58105076136883 -0.015524936956068392 3.435304737751358
49.58064140406441 -0.01631442674150443 3.4467063191293286
49.58015274298801 -0.016743218734874506 3.459508411032514
49.57958029341114 -0.0168275208798275 3.473606144108229
49.578923785131344 -0.016575939661689 3.488819084926534
49.578187647421046 -0.022859256603932253 3.514869523485397
49.57719940810129 -0.024127742637465272 3.5376242802846174
49.57605615289397 -0.025385005660893287 3.5629093381623798
49.574747490185985 -0.026616359111981968 3.590820657515379
49.57326330900762 -0.02780683651037218 3.6214237188314278
49.57159405003091 -0.028940923185241278 3.6547435262299666
49.5697313647382 -0.030002337437476084 3.6907580141379612
49.567668907777 -0.030973820411361888 3.7293952593863913
49.56540317743919 -0.03183684885086049 3.7705329173043705
49.562934492027324 -0.032571341539686174 3.813997063451754
49.56026825193424 -0.03315566075896973 3.859557329270298
49.557416569510515 -0.033567367626245306 3.906916033006909
49.55440016113527 -0.033785142189243826 3.9556913711715067
49.55125013035725 -0.033791951695380004 4.005398538145759
49.5480090454245 -0.03357901763363331 4.055436319630473
49.54473069241892 -0.033149639044137716 4.105087786089008
49.54147815525319 -0.03252176074058025 4.153540689736799
49.538320354672834 -0.03172845487220566 4.199926966379051
49.53532765337611 -0.030816086564303506 4.243374288481064
49.532899954274114 -0.02928319242523278 4.27804256186184
49.530405640209324 -0.02832781422175 4.313794007565498

VECTORS L float
-0.006666392830618109 0.0 0.09077899704787241
-0.012027478421500405 0.0 0.1637830916750069
-0.01777236676856951 0.0 0.2420135853692388
-0.02409324285170844 0.0 0.32808753958565023
-0.03103227476720176 0.0 0.4225791745337897
-0.03859111602661215 0.0 0.5255110067567236
-0.0467546550445409 0.0 0.6366772556169834
-0.055498892906150406 0.0 0.7557511180781223
-0.06479324158181203 0.0 0.8823160644333093
-0.07460176867953713 0.0 1.0158827886081587
-0.08488404848311487 0.0 1.1559007970950417
-0.09559570050492622 0.0 1.301765742646966
-0.10668896893288884 0.0 1.4528273148435604
-0.11811348323413197 0.0 1.608399597542323
-0.12981723346502286 0.0 1.7677743500740564
-0.14174771714582962 0.0 1.9302366247041018
-0.1538531399302441 0.0 2.0950811166401877
-0.16608351335132118 0.0 2.2616271124877487
-0.17839150204829804 0.0 2.4292300272839524
-0.19073288621766263 0.0 2.5972877018829945
-0.2030663296792262 0.0 2.765237244616972
-0.21534972225327295 0.0 2.9325052239499367
-0.22757469706652284 0.0 3.0989777047472358
-0.23970020305919307 0.0 3.26409567794212
-0.25169619853314257 0.0 3.4274500534470183
-0.26353850608555524 0.0 3.588711597681697
-0.2752066541766858 0.0 3.7476015413186774
-0.28668298451181917 0.0 3.903879424138385
-0.2979519627929097 0.0 4.0573337092523944
-0.30899944920489625 0.0 4.207771849017277
-0.319811590555314 0.0 4.355005198846699
-0.3303770459542271 0.0 4.4988793252051416
-0.3406784905834343 0.0 4.639158308959076
-0.35069771241276887 0.0 4.775594149446863
-0.360415901493885 0.0 4.907930703910533
-0.36981208442607544 0.0 5.035882368976675
-0.37886269277672086 0.0 5.1591282036612345
-0.38754146677400714 0.0 5.277310617913854
-0.395830163373443 0.0 5.390181188738155
-0.40366325329367536 0.0 5.496847577115175
-0.4110031757952046 0.0 5.5967983030966435
-0.41779291813903674 0.0 5.689257000903296
-0.42396329193492904 0.0 5.773281503934217
-0.42942933032811365 0.0 5.84771478378527
-0.4340873161639218 0.0 5.911144481551619
-0.4378102133835722 0.0 5.961840695276071
-0.4404631491330973 0.0 5.997966806156939
-0.44195289209813704 0.0 6.0182532452645034
-0.4423094174954275 0.0 6.023108197381858
-0.4404835974753336 0.0 5.998245259594454
-0.4404835269663823 0.0 5.998244299445234
-0.44230891152813057 0.0 6.023101307418287
-0.44195194204724225 0.0 6.018240308032996
-0.4404617627519699 0.0 5.997947927238241
-0.4378084137424927 0.0 5.9618161888276235
-0.4340851383187864 0.0 5.911114824943894
-0.4294268117592719 0.0 5.847680487403515
-0.4239604831495658 0.0 5.773243255555419
-0.4177898812832739 0.0 5.689215646796608
-0.41099997592063153 0.0 5.596754729096161
-0.4036599542874376 0.0 5.49680265319828
-0.39582682561172405 0.0 5.3901357370720255
-0.3875381614351949 0.0 5.2772656077637015
-0.37885939906418403 0.0 5.159083351830828
-0.36980884815341347 0.0 5.035838299328533
-0.3604127771646378 0.0 4.907888158641643
-0.35069475055544796 0.0 4.775553816624628
-0.3406757315595959 0.0 4.639120738203309