# vtk DataFile Version 4.0
[MyVLM domain - lattices] 
ASCII
DATASET UNSTRUCTURED_GRID
POINTS 302 float
1.2444999999999997 -1.2445 0.0
1.2399745454545452 -1.2399745454545454 0.0
1.2346178849721705 -1.2346178849721707 0.0
1.2284300185528754 -1.2284300185528756 0.0
1.2214109461966602 -1.2214109461966605 0.0
1.2135606679035247 -1.213560667903525 0.0
1.2048791836734691 -1.2048791836734694 0.0
1.1953664935064932 -1.1953664935064934 0.0
1.1850225974025972 -1.1850225974025974 0.0
1.1738474953617808 -1.173847495361781 0.0
1.1618411873840442 -1.1618411873840444 0.0
1.1490036734693874 -1.1490036734693876 0.0
1.1353349536178106 -1.1353349536178108 0.0
1.1208350278293133 -1.1208350278293135 0.0
1.1055038961038959 -1.105503896103896 0.0
1.0893415584415582 -1.0893415584415584 0.0
1.0723480148423004 -1.0723480148423006 0.0
1.054523265306122 -1.0545232653061223 0.0
1.0358673098330238 -1.035867309833024 0.0
1.0163801484230053 -1.0163801484230055 0.0
0.9960617810760664 -0.9960617810760668 0.0
0.9749122077922076 -0.9749122077922077 0.0
0.9529314285714284 -0.9529314285714284 0.0
0.9301194434137288 -0.930119443413729 0.0
0.9064762523191091 -0.9064762523191096 0.0
0.8820018552875695 -0.8820018552875695 0.0
0.8566962523191093 -0.8566962523191094 0.0
0.8305594434137288 -0.8305594434137291 0.0
0.8035914285714284 -0.8035914285714285 0.0
0.7757922077922076 -0.7757922077922077 0.0
0.7471617810760666 -0.7471617810760667 0.0
0.7177001484230053 -0.7177001484230054 0.0
0.6874073098330239 -0.687407309833024 0.0
0.6562832653061222 -0.6562832653061225 0.0
0.6243280148423004 -0.6243280148423005 0.0
0.5915415584415582 -0.5915415584415583 0.0
0.5579238961038958 -0.5579238961038959 0.0
0.5234750278293133 -0.5234750278293134 0.0
0.48819495361781057 -0.48819495361781057 0.0
0.4520836734693877 -0.4520836734693877 0.0
0.4151411873840445 -0.4151411873840446 0.0
0.37736749536178105 -0.37736749536178116 0.0
0.3387625974025974 -0.3387625974025974 0.0
0.2993264935064933 -0.29932649350649343 0.0
0.25905918367346925 -0.25905918367346925 0.0
0.21796066790352486 -0.21796066790352486 0.0
0.17603094619666027 -0.1760309461966605 0.0
0.13327001855287546 -0.13327001855287568 0.0
0.08967788497217066 -0.08967788497217066 0.0
0.045254545454545436 -0.045254545454545436 0.0
0.0 0.0 0.0
0.04525454545454545 0.04525454545454546 0.0
0.08967788497217066 0.08967788497217068 0.0
0.13327001855287568 0.1332700185528757 0.0
0.17603094619666046 0.1760309461966605 0.0
0.21796066790352497 0.21796066790352508 0.0
0.2590591836734693 0.25905918367346936 0.0
0.29932649350649343 0.2993264935064935 0.0
0.3387625974025973 0.33876259740259734 0.0
0.37736749536178094 0.377367495361781 0.0
0.41514118738404443 0.4151411873840445 0.0
0.45208367346938766 0.4520836734693878 0.0
0.48819495361781057 0.4881949536178107 0.0
0.5234750278293133 0.5234750278293134 0.0
0.5579238961038959 0.557923896103896 0.0
0.5915415584415582 0.5915415584415583 0.0
0.6243280148423003 0.6243280148423004 0.0
0.6562832653061222 0.6562832653061225 0.0
0.687407309833024 0.6874073098330241 0.0
0.7177001484230054 0.7177001484230056 0.0
0.7471617810760667 0.7471617810760669 0.0
0.7757922077922076 0.7757922077922077 0.0
0.8035914285714284 0.8035914285714285 0.0
0.8305594434137288 0.830559443413729 0.0
0.8566962523191093 0.8566962523191094 0.0
0.8820018552875692 0.8820018552875695 0.0
0.9064762523191091 0.9064762523191093 0.0
0.9301194434137288 0.9301194434137292 0.0
0.9529314285714284 0.9529314285714284 0.0
0.9749122077922076 0.9749122077922077 0.0
0.9960617810760666 0.9960617810760668 0.0
1.0163801484230053 1.0163801484230055 0.0
1.0358673098330238 1.035867309833024 0.0
1.054523265306122 1.0545232653061223 0.0
1.0723480148423001 1.0723480148423004 0.0
1.0893415584415582 1.0893415584415584 0.0
1.1055038961038959 1.105503896103896 0.0
1.120835027829313 1.1208350278293133 0.0
1.1353349536178106 1.1353349536178106 0.0
1.1490036734693874 1.1490036734693876 0.0
1.1618411873840444 1.1618411873840446 0.0
1.1738474953617808 1.173847495361781 0.0
1.1850225974025972 1.1850225974025972 0.0
1.1953664935064932 1.1953664935064934 0.0
1.2048791836734691 1.2048791836734694 0.0
1.2135606679035245 1.2135606679035247 0.0
1.22141094619666 1.2214109461966602 0.0
1.2284300185528754 1.2284300185528756 0.0
1.2346178849721703 1.2346178849721705 0.0
1.2399745454545452 1.2399745454545454 0.0
1.2444999999999997 1.2445 0.0
1.7422999999999997 -1.2445 0.0
1.7377745454545452 -1.2399745454545454 0.0
1.7324178849721703 -1.2346178849721707 0.0
1.7262300185528754 -1.2284300185528756 0.0
1.7192109461966603 -1.2214109461966605 0.0
1.7113606679035245 -1.213560667903525 0.0
1.7026791836734692 -1.2048791836734694 0.0
1.6931664935064934 -1.1953664935064934 0.0
1.6828225974025972 -1.1850225974025974 0.0
1.6716474953617806 -1.173847495361781 0.0
1.6596411873840444 -1.1618411873840444 0.0
1.6468036734693878 -1.1490036734693876 0.0
1.6331349536178106 -1.1353349536178108 0.0
1.6186350278293133 -1.1208350278293135 0.0
1.603303896103896 -1.105503896103896 0.0
1.5871415584415582 -1.0893415584415584 0.0
1.5701480148423004 -1.0723480148423006 0.0
1.552323265306122 -1.0545232653061223 0.0
1.5336673098330238 -1.035867309833024 0.0
1.5141801484230053 -1.0163801484230055 0.0
1.4938617810760666 -0.9960617810760668 0.0
1.4727122077922075 -0.9749122077922077 0.0
1.4507314285714283 -0.9529314285714284 0.0
1.4279194434137288 -0.930119443413729 0.0
1.4042762523191092 -0.9064762523191096 0.0
1.3798018552875693 -0.8820018552875695 0.0
1.3544962523191093 -0.8566962523191094 0.0
1.328359443413729 -0.8305594434137291 0.0
1.3013914285714283 -0.8035914285714285 0.0
1.2735922077922077 -0.7757922077922077 0.0
1.2449617810760665 -0.7471617810760667 0.0
1.2155001484230055 -0.7177001484230054 0.0
1.1852073098330238 -0.687407309833024 0.0
1.1540832653061224 -0.6562832653061225 0.0
1.1221280148423003 -0.6243280148423005 0.0
1.0893415584415582 -0.5915415584415583 0.0
1.055723896103896 -0.5579238961038959 0.0
1.0212750278293132 -0.5234750278293134 0.0
0.9859949536178108 -0.48819495361781057 0.0
0.9498836734693876 -0.4520836734693877 0.0
0.9129411873840445 -0.4151411873840446 0.0
0.875167495361781 -0.37736749536178116 0.0
0.8365625974025973 -0.3387625974025974 0.0
0.7971264935064933 -0.29932649350649343 0.0
0.7568591836734693 -0.25905918367346925 0.0
0.7157606679035249 -0.21796066790352486 0.0
0.6738309461966603 -0.1760309461966605 0.0
0.6310700185528755 -0.13327001855287568 0.0
0.5874778849721707 -0.08967788497217066 0.0
0.5430545454545455 -0.045254545454545436 0.0
0.4978 0.0 0.0
0.5430545454545455 0.04525454545454546 0.0
0.5874778849721707 0.08967788497217068 0.0
0.6310700185528757 0.1332700185528757 0.0
0.6738309461966605 0.1760309461966605 0.0
0.715760667903525 0.21796066790352508 0.0
0.7568591836734693 0.25905918367346936 0.0
0.7971264935064934 0.2993264935064935 0.0
0.8365625974025973 0.33876259740259734 0.0
0.875167495361781 0.377367495361781 0.0
0.9129411873840445 0.4151411873840445 0.0
0.9498836734693876 0.4520836734693878 0.0
0.9859949536178105 0.4881949536178107 0.0
1.0212750278293132 0.5234750278293134 0.0
1.055723896103896 0.557923896103896 0.0
1.0893415584415582 0.5915415584415583 0.0
1.1221280148423003 0.6243280148423004 0.0
1.1540832653061224 0.6562832653061225 0.0
1.185207309833024 0.6874073098330241 0.0
1.2155001484230055 0.7177001484230056 0.0
1.2449617810760667 0.7471617810760669 0.0
1.2735922077922077 0.7757922077922077 0.0
1.3013914285714283 0.8035914285714285 0.0
1.3283594434137287 0.830559443413729 0.0
1.3544962523191093 0.8566962523191094 0.0
1.3798018552875693 0.8820018552875695 0.0
1.4042762523191092 0.9064762523191093 0.0
1.427919443413729 0.9301194434137292 0.0
1.4507314285714283 0.9529314285714284 0.0
1.4727122077922075 0.9749122077922077 0.0
1.4938617810760666 0.9960617810760668 0.0
1.5141801484230053 1.0163801484230055 0.0
1.5336673098330238 1.035867309833024 0.0
1.552323265306122 1.0545232653061223 0.0
1.5701480148423002 1.0723480148423004 0.0
1.5871415584415582 1.0893415584415584 0.0
1.603303896103896 1.105503896103896 0.0
1.6186350278293131 1.1208350278293133 0.0
1.6331349536178106 1.1353349536178106 0.0
1.6468036734693874 1.1490036734693876 0.0
1.6596411873840444 1.1618411873840446 0.0
1.6716474953617806 1.173847495361781 0.0
1.6828225974025972 1.1850225974025972 0.0
1.6931664935064934 1.1953664935064934 0.0
1.7026791836734692 1.2048791836734694 0.0
1.7113606679035245 1.2135606679035247 0.0
1.71921094619666 1.2214109461966602 0.0
1.7262300185528754 1.2284300185528756 0.0
1.7324178849721703 1.2346178849721705 0.0
1.7377745454545452 1.2399745454545454 0.0
1.7422999999999997 1.2445 0.0
1.6155872727272724 -1.2422372727272726 0.0
1.6106462152133578 -1.237296215213358 0.0
1.604873951762523 -1.2315239517625232 0.0
1.598270482374768 -1.224920482374768 0.0
1.5908358070500925 -1.2174858070500927 0.0
1.582569925788497 -1.2092199257884972 0.0
1.5734728385899812 -1.2001228385899814 0.0
1.5635445454545454 -1.1901945454545453 0.0
1.552785046382189 -1.1794350463821892 0.0
1.5411943413729126 -1.1678443413729127 0.0
1.5287724304267158 -1.155422430426716 0.0
1.5155193135435991 -1.142169313543599 0.0
1.501434990723562 -1.1280849907235622 0.0
1.4865194619666047 -1.1131694619666048 0.0
1.4707727272727271 -1.0974227272727273 0.0
1.4541947866419294 -1.0808447866419293 0.0
1.4367856400742112 -1.0634356400742113 0.0
1.418545287569573 -1.0451952875695731 0.0
1.3994737291280146 -1.0261237291280147 0.0
1.379570964749536 -1.0062209647495362 0.0
1.358836994434137 -0.9854869944341371 0.0
1.337271818181818 -0.9639218181818181 0.0
1.3148754359925787 -0.9415254359925787 0.0
1.291647847866419 -0.9182978478664192 0.0
1.2675890538033394 -0.8942390538033393 0.0
1.2426990538033393 -0.8693490538033395 0.0
1.2169778478664193 -0.8436278478664192 0.0
1.1904254359925788 -0.8170754359925788 0.0
1.163041818181818 -0.7896918181818181 0.0
1.1348269944341371 -0.7614769944341371 0.0
1.105780964749536 -0.7324309647495362 0.0
1.0759037291280147 -0.7025537291280148 0.0
1.0451952875695731 -0.6718452875695733 0.0
1.0136556400742114 -0.6403056400742114 0.0
0.9812847866419293 -0.6079347866419293 0.0
0.9480827272727271 -0.5747327272727272 0.0
0.9140494619666047 -0.5406994619666048 0.0
0.8791849907235622 -0.5058349907235622 0.0
0.8434893135435992 -0.47013931354359917 0.0
0.8069624304267162 -0.43361243042671627 0.0
0.7696043413729128 -0.3962543413729128 0.0
0.7314150463821893 -0.3580650463821894 0.0
0.6923945454545455 -0.3190445454545454 0.0
0.6525428385899814 -0.27919283858998134 0.0
0.6118599257884971 -0.23850992578849706 0.0
0.5703458070500929 -0.19699580705009279 0.0
0.5280004823747682 -0.15465048237476808 0.0
0.4848239517625232 -0.11147395176252317 0.0
0.4408162152133581 -0.06746621521335805 0.0
0.39597727272727273 -0.022627272727272718 0.0
0.39597727272727273 0.02262727272727273 0.0
0.4408162152133581 0.06746621521335806 0.0
0.4848239517625232 0.11147395176252319 0.0
0.528000482374768 0.15465048237476808 0.0
0.5703458070500929 0.19699580705009276 0.0
0.6118599257884971 0.23850992578849717 0.0
0.6525428385899814 0.2791928385899814 0.0
0.6923945454545455 0.3190445454545454 0.0
0.7314150463821891 0.3580650463821891 0.0
0.7696043413729128 0.39625434137291277 0.0
0.8069624304267162 0.43361243042671616 0.0
0.8434893135435992 0.4701393135435992 0.0
0.8791849907235619 0.5058349907235621 0.0
0.9140494619666046 0.5406994619666047 0.0
0.9480827272727271 0.5747327272727272 0.0
0.9812847866419294 0.6079347866419295 0.0
1.0136556400742114 0.6403056400742114 0.0
1.0451952875695731 0.6718452875695732 0.0
1.0759037291280147 0.7025537291280147 0.0
1.105780964749536 0.7324309647495362 0.0
1.1348269944341371 0.7614769944341373 0.0
1.163041818181818 0.789691818181818 0.0
1.1904254359925786 0.8170754359925786 0.0
1.216977847866419 0.843627847866419 0.0
1.2426990538033393 0.8693490538033394 0.0
1.2675890538033392 0.8942390538033393 0.0
1.291647847866419 0.9182978478664192 0.0
1.3148754359925787 0.9415254359925787 0.0
1.3372718181818182 0.9639218181818181 0.0
1.3588369944341372 0.9854869944341373 0.0
1.379570964749536 1.0062209647495362 0.0
1.3994737291280148 1.0261237291280147 0.0
1.418545287569573 1.0451952875695731 0.0
1.4367856400742112 1.0634356400742113 0.0
1.4541947866419291 1.0808447866419293 0.0
1.470772727272727 1.097422727272727 0.0
1.4865194619666047 1.1131694619666048 0.0
1.501434990723562 1.128084990723562 0.0
1.5155193135435991 1.1421693135435993 0.0
1.528772430426716 1.1554224304267162 0.0
1.5411943413729128 1.1678443413729127 0.0
1.5527850463821888 1.179435046382189 0.0
1.5635445454545451 1.1901945454545453 0.0
1.573472838589981 1.2001228385899811 0.0
1.5825699257884969 1.209219925788497 0.0
1.5908358070500925 1.2174858070500927 0.0
1.5982704823747678 1.224920482374768 0.0
1.604873951762523 1.2315239517625232 0.0
1.6106462152133578 1.237296215213358 0.0
1.6155872727272724 1.2422372727272726 0.0

CELLS 200 700
4 0 101 102 1
4 1 102 103 2
4 2 103 104 3
4 3 104 105 4
4 4 105 106 5
4 5 106 107 6
4 6 107 108 7
4 7 108 109 8
4 8 109 110 9
4 9 110 111 10
4 10 111 112 11
4 11 112 113 12
4 12 113 114 13
4 13 114 115 14
4 14 115 116 15
4 15 116 117 16
4 16 117 118 17
4 17 118 119 18
4 18 119 120 19
4 19 120 121 20
4 20 121 122 21
4 21 122 123 22
4 22 123 124 23
4 23 124 125 24
4 24 125 126 25
4 25 126 127 26
4 26 127 128 27
4 27 128 129 28
4 28 129 130 29
4 29 130 131 30
4 30 131 132 31
4 31 132 133 32
4 32 133 134 33
4 33 134 135 34
4 34 135 136 35
4 35 136 137 36
4 36 137 138 37
4 37 138 139 38
4 38 139 140 39
4 39 140 141 40
4 40 141 142 41
4 41 142 143 42
4 42 143 144 43
4 43 144 145 44
4 44 145 146 45
4 45 146 147 46
4 46 147 148 47
4 47 148 149 48
4 48 149 150 49
4 49 150 151 50
4 50 151 152 51
4 51 152 153 52
4 52 153 154 53
4 53 154 155 54
4 54 155 156 55
4 55 156 157 56
4 56 157 158 57
4 57 158 159 58
4 58 159 160 59
4 59 160 161 60
4 60 161 162 61
4 61 162 163 62
4 62 163 164 63
4 63 164 165 64
4 64 165 166 65
4 65 166 167 66
4 66 167 168 67
4 67 168 169 68
4 68 169 170 69
4 69 170 171 70
4 70 171 172 71
4 71 172 173 72
4 72 173 174 73
4 73 174 175 74
4 74 175 176 75
4 75 176 177 76
4 76 177 178 77
4 77 178 179 78
4 78 179 180 79
4 79 180 181 80
4 80 181 182 81
4 81 182 183 82
4 82 183 184 83
4 83 184 185 84
4 84 185 186 85
4 85 186 187 86
4 86 187 188 87
4 87 188 189 88
4 88 189 190 89
4 89 190 191 90
4 90 191 192 91
4 91 192 193 92
4 92 193 194 93
4 93 194 195 94
4 94 195 196 95
4 95 196 197 96
4 96 197 198 97
4 97 198 199 98
4 98 199 200 99
4 99 200 201 100
1 202
1 203
1 204
1 205
1 206
1 207
1 208
1 209
1 210
1 211
1 212
1 213
1 214
1 215
1 216
1 217
1 218
1 219
1 220
1 221
1 222
1 223
1 224
1 225
1 226
1 227
1 228
1 229
1 230
1 231
1 232
1 233
1 234
1 235
1 236
1 237
1 238
1 239
1 240
1 241
1 242
1 243
1 244
1 245
1 246
1 247
1 248
1 249
1 250
1 251
1 252
1 253
1 254
1 255
1 256
1 257
1 258
1 259
1 260
1 261
1 262
1 263
1 264
1 265
1 266
1 267
1 268
1 269
1 270
1 271
1 272
1 273
1 274
1 275
1 276
1 277
1 278
1 279
1 280
1 281
1 282
1 283
1 284
1 285
1 286
1 287
1 288
1 289
1 290
1 291
1 292
1 293
1 294
1 295
1 296
1 297
1 298
1 299
1 300
1 301

CELL_TYPES 200
9
9
9
9
9
9
9
9
9
9
9
9
9
9
9
9
9
9
9
9
9
9
9
9
9
9
9
9
9
9
9
9
9
9
9
9
9
9
9
9
9
9
9
9
9
9
9
9
9
9
9
9
9
9
9
9
9
9
9
9
9
9
9
9
9
9
9
9
9
9
9
9
9
9
9
9
9
9
9
9
9
9
9
9
9
9
9
9
9
9
9
9
9
9
9
9
9
9
9
9
1
1
1
1
1
1
1
1
1
1
1
1
1
1
1
1
1
1
1
1
1
1
1
1
1
1
1
1
1
1
1
1
1
1
1
1
1
1
1
1
1
1
1
1
1
1
1
1
1
1
1
1
1
1
1
1
1
1
1
1
1
1
1
1
1
1
1
1
1
1
1
1
1
1
1
1
1
1
1
1
1
1
1
1
1
1
1
1
1
1
1
1
1
1
1
1
1
1
1
1

CELL_DATA 200

VECTORS Vinf float
49.53082805941342 0.03304132745818885 4.305434396918561
49.53330781150373 0.03441312316978798 4.2702393738930455
49.536073310504825 0.03588523907358578 4.230705594483536
49.53905843453576 0.03741254672267724 4.187649454717344
49.54203120387866 0.031779443557458036 4.138399643160027
49.54518961936739 0.03250052649056939 4.091328381751596
49.54839028623045 0.033046993268537266 4.042920775995469
49.55157380351366 0.03340108520657203 3.9939477000983037
49.55468898558319 0.03355830425316784 3.9450972213611752
49.55769459698272 0.03352462161095156 3.89695723847612
49.56055939626305 0.03331239925290912 3.850017663187167
49.563260779904866 0.032936148670500216 3.804686582400478
49.565782600644866 0.03240913479355231 3.7613117229173967
49.568112758400176 0.031741392996692736 3.7201994644105567
49.57024100898929 0.030939216110184544 3.6816272182936793
49.57215725107952 0.030005801376600996 3.645848859624797
49.57385042584546 0.028942586303646965 3.613095477112171
49.57530810450741 0.027750791944996175 3.5835746500516192
49.576630622764945 0.02668676060251899 3.5575466734534005
49.577737571490665 0.01938543018596311 3.5277702498194574
49.57874451563388 0.019970340085028303 3.506905552907402
49.5796275181982 0.020098657311809896 3.4873890934026903
49.58037012435637 0.019767976192970767 3.469673556626005
49.58096812743378 0.018967318521370527 3.4540801309035007
49.58142173147974 0.017672608345739183 3.4408527681808754
49.58172845229655 0.015847748829212843 3.4301899871925117
49.581879967697304 0.013450253263748201 3.4222603910075184
49.58246352503033 0.012473991979896275 3.4080030559367738
49.58250329195901 0.01228418490827793 3.4023061799179697
49.58265978091808 0.011388588676607494 3.397158765973776
49.58274714017245 0.010452061244513292 3.393426295133412
49.5827736000632 0.009476176449596179 3.391178162248697
49.58274370093851 0.008453354242709273 3.390492270066212
49.582652956911396 0.007371229606165613 3.391438474150112
49.58273171748127 0.00674778074999095 3.3924336931735195
49.58292439687925 0.009124707741241252 3.3990694922571647
49.58275836524788 0.007397518580282936 3.4016847588706876
49.58251437732017 0.005886818786361387 3.4058464358983285
49.582191555620646 0.004605108684299902 3.411797299170973
49.58176294572394 0.0035508190943243437 3.419928336479595
49.58095401703601 0.002018431211095038 3.431157519195681
49.58018657297171 0.0008402572933539386 3.4443198538696587
49.579215039622504 -0.0003915218240559824 3.4609674666186745
49.57798312615471 -0.001433385280787666 3.4817953999949722
49.57648617705119 -0.002199339216824951 3.5070338917967
49.57477683087726 -0.002392916203784242 3.5356943744552103
49.57319734184414 -0.0023370068327605467 3.5645479180006823
49.57178017016098 -0.0018646028732438398 3.5840512439529904
49.57126006456316 -0.0009476467187565574 3.588841257580158
49.57146743197188 -0.00017341187405509569 3.5824473718480214
49.571466404109046 0.0001874460169579109 3.582462971576339
49.57125839338778 0.0009620082747471175 3.5888764391754022
49.57177798741189 0.001880077952048747 3.584106911101724
49.573195607486554 0.002353668507678908 3.5646125477081765
49.57477488712309 0.0024006721327895484 3.5357687564582068
49.576487012059154 0.002216438620509923 3.507105550863789
49.577983420825824 0.0014508661282586783 3.481873329011775
49.57921502796516 0.00040976927703332205 3.4610502214408876
49.58018671910972 -0.0008207596344112257 3.4444035077287154
49.580955228751066 -0.0020125622926832985 3.43128385560198
49.58176262220225 -0.0035069143154186416 3.420043881503926
49.582197344204594 -0.004552491504107776 3.411859151536545
49.58252577700944 -0.005828494102672237 3.405860909100906
49.58277469284959 -0.007336346648333905 3.4016604757933724
49.58294476047479 -0.009063259211014725 3.399018056362283
49.58275426590809 -0.006724891438682744 3.392311998481179
49.582653810780826 -0.007317021730118615 3.3915409329783084
49.58275250069573 -0.008403620830086986 3.390478422214456
49.58278606307985 -0.009429928697127303 3.3911186466780836
49.58275959119093 -0.010408994209905138 3.393382947659285
49.58266907428216 -0.011349173043599 3.3971834664950977
49.582506777202184 -0.01224971981324156 3.4024403578869045
49.582480949357844 -0.012321792901909469 3.407938076312459
49.58190880072549 -0.013588982648123369 3.4221242348938508
49.5817555856937 -0.015908801385710793 3.4300181906371905
49.58144683614087 -0.017695894094063008 3.4406803128508052
49.58099034152059 -0.018989837909451416 3.453950316368068
49.58038768207211 -0.019823857911839732 3.4696451589966655
49.579637256083764 -0.02021910670599736 3.4875468315720908
49.57874117235117 -0.020183395457691034 3.50737453803212
49.57771285360199 -0.019715301006368355 3.5287338908002615
49.57665551560583 -0.026820873085018262 3.5573173005102015
49.57532204249966 -0.027815934607768284 3.5834145788422647
49.57385995810773 -0.029003265678152274 3.6129887180098708
49.572160759769886 -0.030062404857110883 3.6458020035458225
49.57023716104717 -0.03099175798931941 3.681645724846469
49.568100656670644 -0.03178965569939018 3.7202873358497457
49.56576186473081 -0.03245285674334556 3.761471143715343
49.56323152913534 -0.032975187052844794 3.8049176871788197
49.56052215248009 -0.033346823842011215 3.850318557645645
49.557650148844395 -0.03355473420211339 3.8973242826850942
49.554638254489724 -0.03358460345292373 3.945525483661848
49.55151773577183 -0.03342420315280272 3.994431456294432
49.54832977961304 -0.03306762595944518 4.043453954884669
49.545125481335134 -0.032519370988512486 4.091904907605407
49.54196413401394 -0.03179714814422852 4.13901366808804
49.539022329860735 -0.03769348685915178 4.187978594605538
49.53604054183876 -0.03617268414884432 4.231011510012663
49.53327765660805 -0.03470687473705997 4.2705265329396305
49.53079991192143 -0.03334095088175103 4.305706606156306
49.53082805941342 0.03304132745818885 4.305434396918561
49.53330781150373 0.03441312316978798 4.2702393738930455
49.536073310504825 0.03588523907358578 4.230705594483536
49.53905843453576 0.03741254672267724 4.187649454717344
49.54203120387866 0.031779443557458036 4.138399643160027
49.54518961936739 0.03250052649056939 4.091328381751596
49.54839028623045 0.033046993268537266 4.042920775995469
49.55157380351366 0.03340108520657203 3.9939477000983037
49.55468898558319 0.03355830425316784 3.9450972213611752
49.55769459698272 0.03352462161095156 3.89695723847612
49.56055939626305 0.03331239925290912 3.850017663187167
49.563260779904866 0.032936148670500216 3.804686582400478
49.565782600644866 0.03240913479355231 3.7613117229173967
49.568112758400176 0.031741392996692736 3.7201994644105567
49.57024100898929 0.030939216110184544 3.6816272182936793
49.57215725107952 0.030005801376600996 3.645848859624797
49.57385042584546 0.028942586303646965 3.613095477112171
49.57530810450741 0.027750791944996175 3.5835746500516192
49.576630622764945 0.02668676060251899 3.5575466734534005
49.577737571490665 0.01938543018596311 3.5277702498194574
49.57874451563388 0.019970340085028303 3.506905552907402
49.5796275181982 0.020098657311809896 3.4873890934026903
49.58037012435637 0.019767976192970767 3.469673556626005
49.58096812743378 0.018967318521370527 3.4540801309035007
49.58142173147974 0.017672608345739183 3.4408527681808754
49.58172845229655 0.015847748829212843 3.4301899871925117
49.581879967697304 0.013450253263748201 3.4222603910075184
49.58246352503033 0.012473991979896275 3.4080030559367738
49.58250329195901 0.01228418490827793 3.4023061799179697
49.58265978091808 0.011388588676607494 3.397158765973776
49.58274714017245 0.010452061244513292 3.393426295133412
49.5827736000632 0.009476176449596179 3.391178162248697
49.58274370093851 0.008453354242709273 3.390492270066212
49.582652956911396 0.007371229606165613 3.391438474150112
49.58273171748127 0.00674778074999095 3.3924336931735195
49.58292439687925 0.009124707741241252 3.3990694922571647
49.58275836524788 0.007397518580282936 3.4016847588706876
49.58251437732017 0.005886818786361387 3.4058464358983285
49.582191555620646 0.004605108684299902 3.411797299170973
49.58176294572394 0.0035508190943243437 3.419928336479595
49.58095401703601 0.002018431211095038 3.431157519195681
49.58018657297171 0.0008402572933539386 3.4443198538696587
49.579215039622504 -0.0003915218240559824 3.4609674666186745
49.57798312615471 -0.001433385280787666 3.4817953999949722
49.57648617705119 -0.002199339216824951 3.5070338917967
49.57477683087726 -0.002392916203784242 3.5356943744552103
49.57319734184414 -0.0023370068327605467 3.5645479180006823
49.57178017016098 -0.0018646028732438398 3.5840512439529904
49.57126006456316 -0.0009476467187565574 3.588841257580158
49.57146743197188 -0.00017341187405509569 3.5824473718480214
49.571466404109046 0.0001874460169579109 3.582462971576339
49.57125839338778 0.0009620082747471175 3.5888764391754022
49.57177798741189 0.001880077952048747 3.584106911101724
49.573195607486554 0.002353668507678908 3.5646125477081765
49.57477488712309 0.0024006721327895484 3.5357687564582068
49.576487012059154 0.002216438620509923 3.507105550863789
49.577983420825824 0.0014508661282586783 3.481873329011775
49.57921502796516 0.00040976927703332205 3.4610502214408876
49.58018671910972 -0.0008207596344112257 3.4444035077287154
49.580955228751066 -0.0020125622926832985 3.43128385560198
49.58176262220225 -0.0035069143154186416 3.420043881503926
49.582197344204594 -0.004552491504107776 3.411859151536545
49.58252577700944 -0.005828494102672237 3.405860909100906
49.58277469284959 -0.007336346648333905 3.4016604757933724
49.58294476047479 -0.009063259211014725 3.399018056362283
49.58275426590809 -0.006724891438682744 3.392311998481179
49.582653810780826 -0.007317021730118615 3.3915409329783084
49.58275250069573 -0.008403620830086986 3.390478422214456
49.58278606307985 -0.009429928697127303 3.3911186466780836
49.58275959119093 -0.010408994209905138 3.393382947659285
49.58266907428216 -0.011349173043599 3.3971834664950977
49.582506777202184 -0.01224971981324156 3.4024403578869045
49.582480949357844 -0.012321792901909469 3.407938076312459
49.58190880072549 -0.013588982648123369 3.4221242348938508
49.5817555856937 -0.015908801385710793 3.4300181906371905
49.58144683614087 -0.017695894094063008 3.4406803128508052
49.58099034152059 -0.018989837909451416 3.453950316368068
49.58038768207211 -0.019823857911839732 3.4696451589966655
49.579637256083764 -0.02021910670599736 3.4875468315720908
49.57874117235117 -0.020183395457691034 3.50737453803212
49.57771285360199 -0.019715301006368355 3.5287338908002615
49.57665551560583 -0.026820873085018262 3.5573173005102015
49.57532204249966 -0.027815934607768284 3.5834145788422647
49.57385995810773 -0.029003265678152274 3.6129887180098708
49.572160759769886 -0.030062404857110883 3.6458020035458225
49.57023716104717 -0.03099175798931941 3.681645724846469
49.568100656670644 -0.03178965569939018 3.7202873358497457
49.56576186473081 -0.03245285674334556 3.761471143715343
49.56323152913534 -0.032975187052844794 3.8049176871788197
49.56052215248009 -0.033346823842011215 3.850318557645645
49.557650148844395 -0.03355473420211339 3.8973242826850942
49.554638254489724 -0.03358460345292373 3.945525483661848
49.55151773577183 -0.03342420315280272 3.994431456294432
49.54832977961304 -0.03306762595944518 4.043453954884669
49.545125481335134 -0.032519370988512486 4.091904907605407
49.54196413401394 -0.03179714814422852 4.13901366808804
49.539022329860735 -0.03769348685915178 4.187978594605538
49.53604054183876 -0.03617268414884432 4.231011510012663
49.53327765660805 -0.03470687473705997 4.2705265329396305
49.53079991192143 -0.03334095088175103 4.305706606156306

VECTORS L float
-0.006650766910529483 0.0 0.09056621250462128
-0.011999256381351377 0.0 0.16339878061436752
-0.017729903512968527 0.0 0.24143534585458853
-0.024035269178356338 0.0 0.3272980883703073
-0.030957105920443397 0.0 0.42155556961110513
-0.03849806237177531 0.0 0.5242438570893757
-0.04664369172020493 0.0 0.6351662226568416
-0.05536948970223413 0.0 0.7539889817377095
-0.06464469386893335 0.0 0.8802932294862075
-0.0744333796580431 0.0 1.0135897664485747
-0.08469514814381948 0.0 1.1533284639339236
-0.09538570330725983 0.0 1.298906124938951
-0.10645746628468199 0.0 1.4496748486220044
-0.1178603630228168 0.0 1.6049527561245474
-0.12954280640605706 0.0 1.7640373645994991
-0.14145281093139958 0.0 1.9262207661957063
-0.1535390785659187 0.0 2.0908044146231686
-0.1657517907217316 0.0 2.257109909799975
-0.17804261623103618 0.0 2.4244791064516553
-0.19035888450392066 0.0 2.5921947676184933
-0.2026787805836506 0.0 2.7599598301145485
-0.21495815174220786 0.0 2.9271730481884437
-0.22716268821442295 0.0 3.093367211738679
-0.23926372390977338 0.0 3.2581519628891096
-0.2512363243256455 0.0 3.42118775832198
-0.26305784106998237 0.0 3.582166185621775
-0.2747050968836935 0.0 3.740771630574329
-0.28617121965556297 0.0 3.896910512831222
-0.29741376985021944 0.0 4.0500049158858715
-0.30843900732171875 0.0 4.200140082730597
-0.3192324232663836 0.0 4.347118441053106
-0.32978023439654697 0.0 4.49075229818928
-0.3400680270056788 0.0 4.630845376803567
-0.35007915522416455 0.0 4.767171003282966
-0.35979113911577804 0.0 4.8994230591438885
-0.36919820770499956 0.0 5.027522958652946
-0.37823485803077567 0.0 5.150578721205454
-0.38689210838303206 0.0 5.26846803918273
-0.395143351014945 0.0 5.380828584016428
-0.4029170645618213 0.0 5.48668642003859
-0.41023622757288336 0.0 5.5863544555498565
-0.41699548541880377 0.0 5.6783980334834006
-0.423139034824055 0.0 5.762057257818527
-0.4285847593743512 0.0 5.836213915764684
-0.4332295476266571 0.0 5.899463896640021
-0.43694946799111417 0.0 5.950119573310076
-0.43961286011317974 0.0 5.986388072891415
-0.44111494335461077 0.0 6.006842554588512
-0.44148568716690406 0.0 6.011891124676837
-0.43967782488039675 0.0 5.987272724690559
-0.43967601035971005 0.0 5.987248015620415
-0.4414834651092103 0.0 6.011860866008627
-0.4411134247523207 0.0 6.006821875160173
-0.4396123001825979 0.0 5.986380448087728
-0.43694996025919397 0.0 5.950126276725806
-0.4332302325095081 0.0 5.899473222969848
-0.42858538655474326 0.0 5.836222456336537
-0.4231394653180199 0.0 5.762063120030875
-0.41699566598707155 0.0 5.678400492355337
-0.41023630086166674 0.0 5.586355453553187
-0.40291696502323276 0.0 5.486685064580929
-0.3951434065978007 0.0 5.380829340910902
-0.38689140040651965 0.0 5.268458398377071
-0.3782335192764315 0.0 5.150560490840136
-0.36919644117225864 0.0 5.027498903054282
-0.3597891330316172 0.0 4.899395741475588
-0.3500776094326549 0.0 4.767149953607908