# vtk DataFile Version 4.0
[MyVLM domain - lattices] 
ASCII
DATASET UNSTRUCTURED_GRID
POINTS 302 float
1.2444999999999997 -1.2445 0.0
1.2399745454545452 -1.2399745454545454 0.0
1.2346178849721705 -1.2346178849721707 0.0
1.2284300185528754 -1.2284300185528756 0.0
1.2214109461966602 -1.2214109461966605 0.0
1.2135606679035247 -1.213560667903525 0.0
1.2048791836734691 -1.2048791836734694 0.0
1.1953664935064932 -1.1953664935064934 0.0
1.1850225974025972 -1.1850225974025974 0.0
1.1738474953617808 -1.173847495361781 0.0
1.1618411873840442 -1.1618411873840444 0.0
1.1490036734693874 -1.1490036734693876 0.0
1.1353349536178106 -1.1353349536178108 0.0
1.1208350278293133 -1.1208350278293135 0.0
1.1055038961038959 -1.105503896103896 0.0
1.0893415584415582 -1.0893415584415584 0.0
1.0723480148423004 -1.0723480148423006 0.0
1.054523265306122 -1.0545232653061223 0.0
1.0358673098330238 -1.035867309833024 0.0
1.0163801484230053 -1.0163801484230055 0.0
0.9960617810760664 -0.9960617810760668 0.0
0.9749122077922076 -0.9749122077922077 0.0
0.9529314285714284 -0.9529314285714284 0.0
0.9301194434137288 -0.930119443413729 0.0
0.9064762523191091 -0.9064762523191096 0.0
0.8820018552875695 -0.8820018552875695 0.0
0.8566962523191093 -0.8566962523191094 0.0
0.8305594434137288 -0.8305594434137291 0.0
0.8035914285714284 -0.8035914285714285 0.0
0.7757922077922076 -0.7757922077922077 0.0
0.7471617810760666 -0.7471617810760667 0.0
0.7177001484230053 -0.7177001484230054 0.0
0.6874073098330239 -0.687407309833024 0.0
0.6562832653061222 -0.6562832653061225 0.0
0.6243280148423004 -0.6243280148423005 0.0
0.5915415584415582 -0.5915415584415583 0.0
0.5579238961038958 -0.5579238961038959 0.0
0.5234750278293133 -0.5234750278293134 0.0
0.48819495361781057 -0.48819495361781057 0.0
0.4520836734693877 -0.4520836734693877 0.0
0.4151411873840445 -0.4151411873840446 0.0
0.37736749536178105 -0.37736749536178116 0.0
0.3387625974025974 -0.3387625974025974 0.0
0.2993264935064933 -0.29932649350649343 0.0
0.25905918367346925 -0.25905918367346925 0.0
0.21796066790352486 -0.21796066790352486 0.0
0.17603094619666027 -0.1760309461966605 0.0
0.13327001855287546 -0.13327001855287568 0.0
0.08967788497217066 -0.08967788497217066 0.0
0.045254545454545436 -0.045254545454545436 0.0
0.0 0.0 0.0
0.04525454545454545 0.04525454545454546 0.0
0.08967788497217066 0.08967788497217068 0.0
0.13327001855287568 0.1332700185528757 0.0
0.17603094619666046 0.1760309461966605 0.0
0.21796066790352497 0.21796066790352508 0.0
0.2590591836734693 0.25905918367346936 0.0
0.29932649350649343 0.2993264935064935 0.0
0.3387625974025973 0.33876259740259734 0.0
0.37736749536178094 0.377367495361781 0.0
0.41514118738404443 0.4151411873840445 0.0
0.45208367346938766 0.4520836734693878 0.0
0.48819495361781057 0.4881949536178107 0.0
0.5234750278293133 0.5234750278293134 0.0
0.5579238961038959 0.557923896103896 0.0
0.5915415584415582 0.5915415584415583 0.0
0.6243280148423003 0.6243280148423004 0.0
0.6562832653061222 0.6562832653061225 0.0
0.687407309833024 0.6874073098330241 0.0
0.7177001484230054 0.7177001484230056 0.0
0.7471617810760667 0.7471617810760669 0.0
0.7757922077922076 0.7757922077922077 0.0
0.8035914285714284 0.8035914285714285 0.0
0.8305594434137288 0.830559443413729 0.0
0.8566962523191093 0.8566962523191094 0.0
0.8820018552875692 0.8820018552875695 0.0
0.9064762523191091 0.9064762523191093 0.0
0.9301194434137288 0.9301194434137292 0.0
0.9529314285714284 0.9529314285714284 0.0
0.9749122077922076 0.9749122077922077 0.0
0.9960617810760666 0.9960617810760668 0.0
1.0163801484230053 1.0163801484230055 0.0
1.0358673098330238 1.035867309833024 0.0
1.054523265306122 1.0545232653061223 0.0
1.0723480148423001 1.0723480148423004 0.0
1.0893415584415582 1.0893415584415584 0.0
1.1055038961038959 1.105503896103896 0.0
1.120835027829313 1.1208350278293133 0.0
1.1353349536178106 1.1353349536178106 0.0
1.1490036734693874 1.1490036734693876 0.0
1.1618411873840444 1.1618411873840446 0.0
1.1738474953617808 1.173847495361781 0.0
1.1850225974025972 1.1850225974025972 0.0
1.1953664935064932 1.1953664935064934 0.0
1.2048791836734691 1.2048791836734694 0.0
1.2135606679035245 1.2135606679035247 0.0
1.22141094619666 1.2214109461966602 0.0
1.2284300185528754 1.2284300185528756 0.0
1.2346178849721703 1.2346178849721705 0.0
1.2399745454545452 1.2399745454545454 0.0
1.2444999999999997 1.2445 0.0
1.7422999999999997 -1.2445 0.0
1.7377745454545452 -1.2399745454545454 0.0
1.7324178849721703 -1.2346178849721707 0.0
1.7262300185528754 -1.2284300185528756 0.0
1.7192109461966603 -1.2214109461966605 0.0
1.7113606679035245 -1.213560667903525 0.0
1.7026791836734692 -1.2048791836734694 0.0
1.6931664935064934 -1.1953664935064934 0.0
1.6828225974025972 -1.1850225974025974 0.0
1.6716474953617806 -1.173847495361781 0.0
1.6596411873840444 -1.1618411873840444 0.0
1.6468036734693878 -1.1490036734693876 0.0
1.6331349536178106 -1.1353349536178108 0.0
1.6186350278293133 -1.1208350278293135 0.0
1.603303896103896 -1.105503896103896 0.0
1.5871415584415582 -1.0893415584415584 0.0
1.5701480148423004 -1.0723480148423006 0.0
1.552323265306122 -1.0545232653061223 0.0
1.5336673098330238 -1.035867309833024 0.0
1.5141801484230053 -1.0163801484230055 0.0
1.4938617810760666 -0.9960617810760668 0.0
1.4727122077922075 -0.9749122077922077 0.0
1.4507314285714283 -0.9529314285714284 0.0
1.4279194434137288 -0.930119443413729 0.0
1.4042762523191092 -0.9064762523191096 0.0
1.3798018552875693 -0.8820018552875695 0.0
1.3544962523191093 -0.8566962523191094 0.0
1.328359443413729 -0.8305594434137291 0.0
1.3013914285714283 -0.8035914285714285 0.0
1.2735922077922077 -0.7757922077922077 0.0
1.2449617810760665 -0.7471617810760667 0.0
1.2155001484230055 -0.7177001484230054 0.0
1.1852073098330238 -0.687407309833024 0.0
1.1540832653061224 -0.6562832653061225 0.0
1.1221280148423003 -0.6243280148423005 0.0
1.0893415584415582 -0.5915415584415583 0.0
1.055723896103896 -0.5579238961038959 0.0
1.0212750278293132 -0.5234750278293134 0.0
0.9859949536178108 -0.48819495361781057 0.0
0.9498836734693876 -0.4520836734693877 0.0
0.9129411873840445 -0.4151411873840446 0.0
0.875167495361781 -0.37736749536178116 0.0
0.8365625974025973 -0.3387625974025974 0.0
0.7971264935064933 -0.29932649350649343 0.0
0.7568591836734693 -0.25905918367346925 0.0
0.7157606679035249 -0.21796066790352486 0.0
0.6738309461966603 -0.1760309461966605 0.0
0.6310700185528755 -0.13327001855287568 0.0
0.5874778849721707 -0.08967788497217066 0.0
0.5430545454545455 -0.045254545454545436 0.0
0.4978 0.0 0.0
0.5430545454545455 0.04525454545454546 0.0
0.5874778849721707 0.08967788497217068 0.0
0.6310700185528757 0.1332700185528757 0.0
0.6738309461966605 0.1760309461966605 0.0
0.715760667903525 0.21796066790352508 0.0
0.7568591836734693 0.25905918367346936 0.0
0.7971264935064934 0.2993264935064935 0.0
0.8365625974025973 0.33876259740259734 0.0
0.875167495361781 0.377367495361781 0.0
0.9129411873840445 0.4151411873840445 0.0
0.9498836734693876 0.4520836734693878 0.0
0.9859949536178105 0.4881949536178107 0.0
1.0212750278293132 0.5234750278293134 0.0
1.055723896103896 0.557923896103896 0.0
1.0893415584415582 0.5915415584415583 0.0
1.1221280148423003 0.6243280148423004 0.0
1.1540832653061224 0.6562832653061225 0.0
1.185207309833024 0.6874073098330241 0.0
1.2155001484230055 0.7177001484230056 0.0
1.2449617810760667 0.7471617810760669 0.0
1.2735922077922077 0.7757922077922077 0.0
1.3013914285714283 0.8035914285714285 0.0
1.3283594434137287 0.830559443413729 0.0
1.3544962523191093 0.8566962523191094 0.0
1.3798018552875693 0.8820018552875695 0.0
1.4042762523191092 0.9064762523191093 0.0
1.427919443413729 0.9301194434137292 0.0
1.4507314285714283 0.9529314285714284 0.0
1.4727122077922075 0.9749122077922077 0.0
1.4938617810760666 0.9960617810760668 0.0
1.5141801484230053 1.0163801484230055 0.0
1.5336673098330238 1.035867309833024 0.0
1.552323265306122 1.0545232653061223 0.0
1.5701480148423002 1.0723480148423004 0.0
1.5871415584415582 1.0893415584415584 0.0
1.603303896103896 1.105503896103896 0.0
1.6186350278293131 1.1208350278293133 0.0
1.6331349536178106 1.1353349536178106 0.0
1.6468036734693874 1.1490036734693876 0.0
1.6596411873840444 1.1618411873840446 0.0
1.6716474953617806 1.173847495361781 0.0
1.6828225974025972 1.1850225974025972 0.0
1.6931664935064934 1.1953664935064934 0.0
1.7026791836734692 1.2048791836734694 0.0
1.7113606679035245 1.2135606679035247 0.0
1.71921094619666 1.2214109461966602 0.0
1.7262300185528754 1.2284300185528756 0.0
1.7324178849721703 1.2346178849721705 0.0
1.7377745454545452 1.2399745454545454 0.0
1.7422999999999997 1.2445 0.0
1.6155872727272724 -1.2422372727272726 0.0
1.6106462152133578 -1.237296215213358 0.0
1.604873951762523 -1.2315239517625232 0.0
1.598270482374768 -1.224920482374768 0.0
1.5908358070500925 -1.2174858070500927 0.0
1.582569925788497 -1.2092199257884972 0.0
1.5734728385899812 -1.2001228385899814 0.0
1.5635445454545454 -1.1901945454545453 0.0
1.552785046382189 -1.1794350463821892 0.0
1.5411943413729126 -1.1678443413729127 0.0
1.5287724304267158 -1.155422430426716 0.0
1.5155193135435991 -1.142169313543599 0.0
1.501434990723562 -1.1280849907235622 0.0
1.4865194619666047 -1.1131694619666048 0.0
1.4707727272727271 -1.0974227272727273 0.0
1.4541947866419294 -1.0808447866419293 0.0
1.4367856400742112 -1.0634356400742113 0.0
1.418545287569573 -1.0451952875695731 0.0
1.3994737291280146 -1.0261237291280147 0.0
1.379570964749536 -1.0062209647495362 0.0
1.358836994434137 -0.9854869944341371 0.0
1.337271818181818 -0.9639218181818181 0.0
1.3148754359925787 -0.9415254359925787 0.0
1.291647847866419 -0.9182978478664192 0.0
1.2675890538033394 -0.8942390538033393 0.0
1.2426990538033393 -0.8693490538033395 0.0
1.2169778478664193 -0.8436278478664192 0.0
1.1904254359925788 -0.8170754359925788 0.0
1.163041818181818 -0.7896918181818181 0.0
1.1348269944341371 -0.7614769944341371 0.0
1.105780964749536 -0.7324309647495362 0.0
1.0759037291280147 -0.7025537291280148 0.0
1.0451952875695731 -0.6718452875695733 0.0
1.0136556400742114 -0.6403056400742114 0.0
0.9812847866419293 -0.6079347866419293 0.0
0.9480827272727271 -0.5747327272727272 0.0
0.9140494619666047 -0.5406994619666048 0.0
0.8791849907235622 -0.5058349907235622 0.0
0.8434893135435992 -0.47013931354359917 0.0
0.8069624304267162 -0.43361243042671627 0.0
0.7696043413729128 -0.3962543413729128 0.0
0.7314150463821893 -0.3580650463821894 0.0
0.6923945454545455 -0.3190445454545454 0.0
0.6525428385899814 -0.27919283858998134 0.0
0.6118599257884971 -0.23850992578849706 0.0
0.5703458070500929 -0.19699580705009279 0.0
0.5280004823747682 -0.15465048237476808 0.0
0.4848239517625232 -0.11147395176252317 0.0
0.4408162152133581 -0.06746621521335805 0.0
0.39597727272727273 -0.022627272727272718 0.0
0.39597727272727273 0.02262727272727273 0.0
0.4408162152133581 0.06746621521335806 0.0
0.4848239517625232 0.11147395176252319 0.0
0.528000482374768 0.15465048237476808 0.0
0.5703458070500929 0.19699580705009276 0.0
0.6118599257884971 0.23850992578849717 0.0
0.6525428385899814 0.2791928385899814 0.0
0.6923945454545455 0.3190445454545454 0.0
0.7314150463821891 0.3580650463821891 0.0
0.7696043413729128 0.39625434137291277 0.0
0.8069624304267162 0.43361243042671616 0.0
0.8434893135435992 0.4701393135435992 0.0
0.8791849907235619 0.5058349907235621 0.0
0.9140494619666046 0.5406994619666047 0.0
0.9480827272727271 0.5747327272727272 0.0
0.9812847866419294 0.6079347866419295 0.0
1.0136556400742114 0.6403056400742114 0.0
1.0451952875695731 0.6718452875695732 0.0
1.0759037291280147 0.7025537291280147 0.0
1.105780964749536 0.7324309647495362 0.0
1.1348269944341371 0.7614769944341373 0.0
1.163041818181818 0.789691818181818 0.0
1.1904254359925786 0.8170754359925786 0.0
1.216977847866419 0.843627847866419 0.0
1.2426990538033393 0.8693490538033394 0.0
1.2675890538033392 0.8942390538033393 0.0
1.291647847866419 0.9182978478664192 0.0
1.3148754359925787 0.9415254359925787 0.0
1.3372718181818182 0.9639218181818181 0.0
1.3588369944341372 0.9854869944341373 0.0
1.379570964749536 1.0062209647495362 0.0
1.3994737291280148 1.0261237291280147 0.0
1.418545287569573 1.0451952875695731 0.0
1.4367856400742112 1.0634356400742113 0.0
1.4541947866419291 1.0808447866419293 0.0
1.470772727272727 1.097422727272727 0.0
1.4865194619666047 1.1131694619666048 0.0
1.501434990723562 1.128084990723562 0.0
1.5155193135435991 1.1421693135435993 0.0
1.528772430426716 1.1554224304267162 0.0
1.5411943413729128 1.1678443413729127 0.0
1.5527850463821888 1.179435046382189 0.0
1.5635445454545451 1.1901945454545453 0.0
1.573472838589981 1.2001228385899811 0.0
1.5825699257884969 1.209219925788497 0.0
1.5908358070500925 1.2174858070500927 0.0
1.5982704823747678 1.224920482374768 0.0
1.604873951762523 1.2315239517625232 0.0
1.6106462152133578 1.237296215213358 0.0
1.6155872727272724 1.2422372727272726 0.0

CELLS 200 700
4 0 101 102 1
4 1 102 103 2
4 2 103 104 3
4 3 104 105 4
4 4 105 106 5
4 5 106 107 6
4 6 107 108 7
4 7 108 109 8
4 8 109 110 9
4 9 110 111 10
4 10 111 112 11
4 11 112 113 12
4 12 113 114 13
4 13 114 115 14
4 14 115 116 15
4 15 116 117 16
4 16 117 118 17
4 17 118 119 18
4 18 119 120 19
4 19 120 121 20
4 20 121 122 21
4 21 122 123 22
4 22 123 124 23
4 23 124 125 24
4 24 125 126 25
4 25 126 127 26
4 26 127 128 27
4 27 128 129 28
4 28 129 130 29
4 29 130 131 30
4 30 131 132 31
4 31 132 133 32
4 32 133 134 33
4 33 134 135 34
4 34 135 136 35
4 35 136 137 36
4 36 137 138 37
4 37 138 139 38
4 38 139 140 39
4 39 140 141 40
4 40 141 142 41
4 41 142 143 42
4 42 143 144 43
4 43 144 145 44
4 44 145 146 45
4 45 146 147 46
4 46 147 148 47
4 47 148 149 48
4 48 149 150 49
4 49 150 151 50
4 50 151 152 51
4 51 152 153 52
4 52 153 154 53
4 53 154 155 54
4 54 155 156 55
4 55 156 157 56
4 56 157 158 57
4 57 158 159 58
4 58 159 160 59
4 59 160 161 60
4 60 161 162 61
4 61 162 163 62
4 62 163 164 63
4 63 164 165 64
4 64 165 166 65
4 65 166 167 66
4 66 167 168 67
4 67 168 169 68
4 68 169 170 69
4 69 170 171 70
4 70 171 172 71
4 71 172 173 72
4 72 173 174 73
4 73 174 175 74
4 74 175 176 75
4 75 176 177 76
4 76 177 178 77
4 77 178 179 78
4 78 179 180 79
4 79 180 181 80
4 80 181 182 81
4 81 182 183 82
4 82 183 184 83
4 83 184 185 84
4 84 185 186 85
4 85 186 187 86
4 86 187 188 87
4 87 188 189 88
4 88 189 190 89
4 89 190 191 90
4 90 191 192 91
4 91 192 193 92
4 92 193 194 93
4 93 194 195 94
4 94 195 196 95
4 95 196 197 96
4 96 197 198 97
4 97 198 199 98
4 98 199 200 99
4 99 200 201 100
1 202
1 203
1 204
1 205
1 206
1 207
1 208
1 209
1 210
1 211
1 212
1 213
1 214
1 215
1 216
1 217
1 218
1 219
1 220
1 221
1 222
1 223
1 224
1 225
1 226
1 227
1 228
1 229
1 230
1 231
1 232
1 233
1 234
1 235
1 236
1 237
1 238
1 239
1 240
1 241
1 242
1 243
1 244
1 245
1 246
1 247
1 248
1 249
1 250
1 251
1 252
1 253
1 254
1 255
1 256
1 257
1 258
1 259
1 260
1 261
1 262
1 263
1 264
1 265
1 266
1 267
1 268
1 269
1 270
1 271
1 272
1 273
1 274
1 275
1 276
1 277
1 278
1 279
1 280
1 281
1 282
1 283
1 284
1 285
1 286
1 287
1 288
1 289
1 290
1 291
1 292
1 293
1 294
1 295
1 296
1 297
1 298
1 299
1 300
1 301

CELL_TYPES 200
9
9
9
9
9
9
9
9
9
9
9
9
9
9
9
9
9
9
9
9
9
9
9
9
9
9
9
9
9
9
9
9
9
9
9
9
9
9
9
9
9
9
9
9
9
9
9
9
9
9
9
9
9
9
9
9
9
9
9
9
9
9
9
9
9
9
9
9
9
9
9
9
9
9
9
9
9
9
9
9
9
9
9
9
9
9
9
9
9
9
9
9
9
9
9
9
9
9
9
9
1
1
1
1
1
1
1
1
1
1
1
1
1
1
1
1
1
1
1
1
1
1
1
1
1
1
1
1
1
1
1
1
1
1
1
1
1
1
1
1
1
1
1
1
1
1
1
1
1
1
1
1
1
1
1
1
1
1
1
1
1
1
1
1
1
1
1
1
1
1
1
1
1
1
1
1
1
1
1
1
1
1
1
1
1
1
1
1
1
1
1
1
1
1
1
1
1
1
1
1

CELL_DATA 200

VECTORS Vinf float
49.53062405469706 0.03440614037114545 4.286824667813487
49.533155015687015 0.035294641032357375 4.251651694733911
49.53598588042789 0.03614037931353843 4.212026362988922
49.53905353788391 0.03687036001608703 4.168702602974837
49.542287190713225 0.03741416495430759 4.1225335851661065
49.54561184910669 0.03770868705265979 4.074429682244759
49.54895257304392 0.0377018416595825 4.025307452766478
49.55265528823312 0.03677689916017406 3.9777613757153247
49.55586769190668 0.0366439800501727 3.9286267901487175
49.55894360821384 0.036287299568847506 3.8804329869614422
49.56184949470926 0.035725293917405795 3.833658707586437
49.56456247783606 0.034981620276623306 3.7886802464083282
49.56706886452821 0.03408183132603607 3.745790690614698
49.569362407539685 0.03305106503549778 3.705217207463157
49.571442599138734 0.03191275718045784 3.667132415065845
49.57331310900595 0.030688180572971527 3.6316595801209144
49.57489646994669 0.030334837092714673 3.600131615896225
49.576365533398175 0.0284772831064538 3.570043579643006
49.57773940166578 0.025548775078662964 3.5407658493799103
49.57885747244825 0.025295927324776098 3.5166721899002518
49.57981519196711 0.02390974056589553 3.4944553846512907
49.58063052939034 0.022539002564532604 3.4746510318391715
49.58131978808711 0.021194314282622 3.457126323571183
49.58189787048527 0.01988193160427657 3.441744644157482
49.582376675336995 0.018604448656125223 3.428370796139319
49.58265748079134 0.017276998245429477 3.4173584294029835
49.58304258813155 0.016008953464064102 3.406836990269825
49.583296687819534 0.0149953259893223 3.3990117213234035
49.58345755538797 0.013874995107340499 3.3924371942897826
49.58356230436908 0.01279685337674692 3.3873402122924983
49.58362008197738 0.01175492782642553 3.3836941304905768
49.5835155964556 0.010267502461666765 3.381978724956776
49.58347146982254 0.009154084439131708 3.381347215226081
49.58355497023025 0.008751844444602022 3.381317579724679
49.58345775155351 0.007764786350412404 3.383204673520642
49.58332205166617 0.006774158324990863 3.386289912864768
49.58314177424354 0.005770302131222968 3.390548433979593
49.58282448070244 0.0045977154302934385 3.396578207365186
49.5825517529411 0.0036790365802762607 3.403081040674697
49.58206758668679 0.002600555427484781 3.4119129352660544
49.581420077830145 0.0015327276514667401 3.422976660267437
49.58059462039437 0.0004992521028967777 3.436771167618926
49.57950827610861 -0.0005654438582082499 3.454475924217612
49.57830578639938 -0.0013885783500781046 3.4751410094125856
49.57677886333816 -0.002145835518396219 3.500755046899579
49.575031146461924 -0.0026187543493609317 3.5297125748485
49.573251775808565 -0.0025450579470179062 3.558082498041971
49.57199771933098 -0.001992487207078472 3.577044173129036
49.57157397846625 -0.0010029542226160698 3.581587339088288
49.5718351222892 -0.00020283058106789875 3.575092272437475
49.571835448946416 0.00023412259205376172 3.5750901443648786
49.57157489476908 0.0010345675609092562 3.581583469973354
49.57199924417678 0.0020246306359269456 3.57704093139408
49.57325397353191 0.002577077248158225 3.5580797988201978
49.575033831066406 0.0026515414073680875 3.529707379308014
49.576781825965696 0.002178568669820294 3.5007417801543514
49.5783088468935 0.00142118151862484 3.4751133153830653
49.57951084074801 0.0005974588252113829 3.4544308785703897
49.5805974400868 -0.00046586673194982454 3.4367086896835204
49.58142294941265 -0.0014980432486790774 3.4228973963332847
49.582070962212526 -0.0025641378110813208 3.41181658417469
49.5825560987262 -0.0036406113159208483 3.4029684502351736
49.582829766900176 -0.004557415600067642 3.396453061268438
49.58314909670909 -0.005727260641634169 3.3904123359434055
49.58333124713019 -0.006728638495396395 3.386146856470542
49.58346898926378 -0.007716752820073618 3.3830571059466035
49.58356835286558 -0.008701257089253955 3.381167531116958
49.583486505698396 -0.00910087852687586 3.381197985943771
49.58353297227801 -0.01021107483254006 3.381830259505997
49.58364049320191 -0.011695909136527724 3.3835456811196676
49.58358549556684 -0.012734704854379865 3.387193661357499
49.583483895447245 -0.01380967498530177 3.3922920766383706
49.58332656833112 -0.014926945003146013 3.398866945117652
49.58308962014783 -0.01597108418033385 3.4065114229068305
49.582695019713604 -0.017214149398822758 3.417215161710589
49.582418634599605 -0.018528421975345717 3.428221655111536
49.5819440887027 -0.019803801093227002 3.4415942274269518
49.58137047456853 -0.02111434963893054 3.456974947170888
49.58068598066426 -0.022457691182837653 3.474498219615909
49.57987564972036 -0.0238278211746178 3.494299591001536
49.57892295475763 -0.025214279053069142 3.5165109935173873
49.57785042659075 -0.02508364502873361 3.540103196437286
49.5764079669985 -0.028308596150338733 3.570323584806177
49.57487676350636 -0.030308337527918675 3.6012684807206248
49.57339382192758 -0.030614146773469533 3.6314533499295782
49.57152543455913 -0.03184127717839551 3.66691226423758
49.56944678415608 -0.032982067453622844 3.7049833052561874
49.567154306154286 -0.03401512417154281 3.7455434701391903
49.564648622535195 -0.034916919535697734 3.788420256930504
49.56193609645791 -0.035662260314698935 3.833386556847536
49.559030529112874 -0.03622557897924153 3.8801493394654045
49.55595488474875 -0.0365832398479314 3.928332378632316
49.552742772409566 -0.036716854490036116 3.9774569991025674
49.54904016947149 -0.03750572151024864 4.024960195072449
49.545701009046205 -0.03754660779492283 4.0740613714500435
49.54237675967068 -0.03727867278127778 4.122159301636043
49.53914280045361 -0.03675538572365221 4.168332049592894
49.536074445514075 -0.036041040444823466 4.211665121289091
49.53324272075252 -0.035207054793710765 4.251302320008738
49.53071088916678 -0.03432725063597934 4.286487604377269
49.53062405469706 0.03440614037114545 4.286824667813487
49.533155015687015 0.035294641032357375 4.251651694733911
49.53598588042789 0.03614037931353843 4.212026362988922
49.53905353788391 0.03687036001608703 4.168702602974837
49.542287190713225 0.03741416495430759 4.1225335851661065
49.54561184910669 0.03770868705265979 4.074429682244759
49.54895257304392 0.0377018416595825 4.025307452766478
49.55265528823312 0.03677689916017406 3.9777613757153247
49.55586769190668 0.0366439800501727 3.9286267901487175
49.55894360821384 0.036287299568847506 3.8804329869614422
49.56184949470926 0.035725293917405795 3.833658707586437
49.56456247783606 0.034981620276623306 3.7886802464083282
49.56706886452821 0.03408183132603607 3.745790690614698
49.569362407539685 0.03305106503549778 3.705217207463157
49.571442599138734 0.03191275718045784 3.667132415065845
49.57331310900595 0.030688180572971527 3.6316595801209144
49.57489646994669 0.030334837092714673 3.600131615896225
49.576365533398175 0.0284772831064538 3.570043579643006
49.57773940166578 0.025548775078662964 3.5407658493799103
49.57885747244825 0.025295927324776098 3.5166721899002518
49.57981519196711 0.02390974056589553 3.4944553846512907
49.58063052939034 0.022539002564532604 3.4746510318391715
49.58131978808711 0.021194314282622 3.457126323571183
49.58189787048527 0.01988193160427657 3.441744644157482
49.582376675336995 0.018604448656125223 3.428370796139319
49.58265748079134 0.017276998245429477 3.4173584294029835
49.58304258813155 0.016008953464064102 3.406836990269825
49.583296687819534 0.0149953259893223 3.3990117213234035
49.58345755538797 0.013874995107340499 3.3924371942897826
49.58356230436908 0.01279685337674692 3.3873402122924983
49.58362008197738 0.01175492782642553 3.3836941304905768
49.5835155964556 0.010267502461666765 3.381978724956776
49.58347146982254 0.009154084439131708 3.381347215226081
49.58355497023025 0.008751844444602022 3.381317579724679
49.58345775155351 0.007764786350412404 3.383204673520642
49.58332205166617 0.006774158324990863 3.386289912864768
49.58314177424354 0.005770302131222968 3.390548433979593
49.58282448070244 0.0045977154302934385 3.396578207365186
49.5825517529411 0.0036790365802762607 3.403081040674697
49.58206758668679 0.002600555427484781 3.4119129352660544
49.581420077830145 0.0015327276514667401 3.422976660267437
49.58059462039437 0.0004992521028967777 3.436771167618926
49.57950827610861 -0.0005654438582082499 3.454475924217612
49.57830578639938 -0.0013885783500781046 3.4751410094125856
49.57677886333816 -0.002145835518396219 3.500755046899579
49.575031146461924 -0.0026187543493609317 3.5297125748485
49.573251775808565 -0.0025450579470179062 3.558082498041971
49.57199771933098 -0.001992487207078472 3.577044173129036
49.57157397846625 -0.0010029542226160698 3.581587339088288
49.5718351222892 -0.00020283058106789875 3.575092272437475
49.571835448946416 0.00023412259205376172 3.5750901443648786
49.57157489476908 0.0010345675609092562 3.581583469973354
49.57199924417678 0.0020246306359269456 3.57704093139408
49.57325397353191 0.002577077248158225 3.5580797988201978
49.575033831066406 0.0026515414073680875 3.529707379308014
49.576781825965696 0.002178568669820294 3.5007417801543514
49.5783088468935 0.00142118151862484 3.4751133153830653
49.57951084074801 0.0005974588252113829 3.4544308785703897
49.5805974400868 -0.00046586673194982454 3.4367086896835204
49.58142294941265 -0.0014980432486790774 3.4228973963332847
49.582070962212526 -0.0025641378110813208 3.41181658417469
49.5825560987262 -0.0036406113159208483 3.4029684502351736
49.582829766900176 -0.004557415600067642 3.396453061268438
49.58314909670909 -0.005727260641634169 3.3904123359434055
49.58333124713019 -0.006728638495396395 3.386146856470542
49.58346898926378 -0.007716752820073618 3.3830571059466035
49.58356835286558 -0.008701257089253955 3.381167531116958
49.583486505698396 -0.00910087852687586 3.381197985943771
49.58353297227801 -0.01021107483254006 3.381830259505997
49.58364049320191 -0.011695909136527724 3.3835456811196676
49.58358549556684 -0.012734704854379865 3.387193661357499
49.583483895447245 -0.01380967498530177 3.3922920766383706
49.58332656833112 -0.014926945003146013 3.398866945117652
49.58308962014783 -0.01597108418033385 3.4065114229068305
49.582695019713604 -0.017214149398822758 3.417215161710589
49.582418634599605 -0.018528421975345717 3.428221655111536
49.5819440887027 -0.019803801093227002 3.4415942274269518
49.58137047456853 -0.02111434963893054 3.456974947170888
49.58068598066426 -0.022457691182837653 3.474498219615909
49.57987564972036 -0.0238278211746178 3.494299591001536
49.57892295475763 -0.025214279053069142 3.5165109935173873
49.57785042659075 -0.02508364502873361 3.540103196437286
49.5764079669985 -0.028308596150338733 3.570323584806177
49.57487676350636 -0.030308337527918675 3.6012684807206248
49.57339382192758 -0.030614146773469533 3.6314533499295782
49.57152543455913 -0.03184127717839551 3.66691226423758
49.56944678415608 -0.032982067453622844 3.7049833052561874
49.567154306154286 -0.03401512417154281 3.7455434701391903
49.564648622535195 -0.034916919535697734 3.788420256930504
49.56193609645791 -0.035662260314698935 3.833386556847536
49.559030529112874 -0.03622557897924153 3.8801493394654045
49.55595488474875 -0.0365832398479314 3.928332378632316
49.552742772409566 -0.036716854490036116 3.9774569991025674
49.54904016947149 -0.03750572151024864 4.024960195072449
49.545701009046205 -0.03754660779492283 4.0740613714500435
49.54237675967068 -0.03727867278127778 4.122159301636043
49.53914280045361 -0.03675538572365221 4.168332049592894
49.536074445514075 -0.036041040444823466 4.211665121289091
49.53324272075252 -0.035207054793710765 4.251302320008738
49.53071088916678 -0.03432725063597934 4.286487604377269

VECTORS L float
-0.006623452595858857 0.0 0.09019426231298826
-0.011950545842675627 0.0 0.16273546929158786
-0.017658555924009924 0.0 0.24046377656186727
-0.023939277950795115 0.0 0.32599093657400463
-0.030834797450144225 0.0 0.4198900451593772
-0.03834699866944087 0.0 0.5221867608850725
-0.04646129279866099 0.0 0.6326824219596605
-0.05515416761845564 0.0 0.7510568528781718
-0.06439440268511569 0.0 0.8768849120926488
-0.07414644133392188 0.0 1.0096824099605672
-0.08437030106370191 0.0 1.1489048884147073
-0.09502212480244285 0.0 1.2939551277724086
-0.10605464987358429 0.0 1.4441895328413437
-0.11741801007393785 0.0 1.598929055142516
-0.1290607269953259 0.0 1.757472692142363
-0.1409309185098546 0.0 1.9191139436908662
-0.15297791150924864 0.0 2.083162773352519
-0.1651500125044549 0.0 2.2489152497495306
-0.17739869954505058 0.0 2.415710629642475
-0.1896852535723839 0.0 2.5830216597775526
-0.20196788292196677 0.0 2.7502792459709116
-0.21421029506629072 0.0 2.9169891780355326
-0.2263799856965302 0.0 3.0827088315071984
-0.23844802126839065 0.0 3.247044206482388
-0.25038885486819357 0.0 3.4096474201914626
-0.26218035217777147 0.0 3.5702170605732637
-0.27379934664839267 0.0 3.7284376592609605
-0.2852323953718691 0.0 3.884126158676981
-0.29646161683447286 0.0 4.0370390589371805
-0.30747261593571196 0.0 4.1869803360720335
-0.31825168334205384 0.0 4.333763304481113
-0.3287858059321151 0.0 4.477210759169502
-0.3390574708632792 0.0 4.61708422059833
-0.34904892896393286 0.0 4.753141991040142
-0.3587455894395682 0.0 4.88518538167998
-0.3681244523868078 0.0 5.012901193428943
-0.37716041983252846 0.0 5.135947656924508
-0.3858260551647734 0.0 5.25395115660289
-0.3940820359769447 0.0 5.366376223174596
-0.4018961721672741 0.0 5.472784510861389
-0.40922072126978803 0.0 5.572525890982317
-0.4159991717392205 0.0 5.664830822718047
-0.4221642502169557 0.0 5.748783217236377
-0.42762297656539633 0.0 5.823116925984274
-0.43228005139638304 0.0 5.88653421822546
-0.4360077252572664 0.0 5.937295477426742
-0.43867005314055846 0.0 5.973549484833538
-0.44016760794110016 0.0 5.993942300899373
-0.44053611590046665 0.0 5.998960424464158
-0.43873611329113343 0.0 5.974449052915767
-0.43873532638334956 0.0 5.974438337270708
-0.44053424116499423 0.0 5.998934895424656
-0.4401645639446308 0.0 5.993900849554767
-0.43866554763176624 0.0 5.97348813147802
-0.4360023132545355 0.0 5.937221779972599
-0.43227349400534776 0.0 5.886444923550432
-0.4276151116661804 0.0 5.823009826435711
-0.4221549143451122 0.0 5.748656086852067
-0.4159889919806266 0.0 5.664692200782793
-0.40920955912013374 0.0 5.572373891426295
-0.40188408041385765 0.0 5.472619852510826
-0.394069118213786 0.0 5.36620031671162
-0.3858124300085091 0.0 5.253765617278742
-0.3771463511304521 0.0 5.135756077655674
-0.3681100695620643 0.0 5.0127053366233065
-0.35873103374844256 0.0 4.884987170882132
-0.34903432781695826 0.0 4.752943161251412
-0.3390429253094702 0.0 4.616886147844468