# vtk DataFile Version 4.0
[MyVLM domain - lattices] 
ASCII
DATASET UNSTRUCTURED_GRID
POINTS 302 float
1.2444999999999997 -1.2445 0.0
1.2399745454545452 -1.2399745454545454 0.0
1.2346178849721705 -1.2346178849721707 0.0
1.2284300185528754 -1.2284300185528756 0.0
1.2214109461966602 -1.2214109461966605 0.0
1.2135606679035247 -1.213560667903525 0.0
1.2048791836734691 -1.2048791836734694 0.0
1.1953664935064932 -1.1953664935064934 0.0
1.1850225974025972 -1.1850225974025974 0.0
1.1738474953617808 -1.173847495361781 0.0
1.1618411873840442 -1.1618411873840444 0.0
1.1490036734693874 -1.1490036734693876 0.0
1.1353349536178106 -1.1353349536178108 0.0
1.1208350278293133 -1.1208350278293135 0.0
1.1055038961038959 -1.105503896103896 0.0
1.0893415584415582 -1.0893415584415584 0.0
1.0723480148423004 -1.0723480148423006 0.0
1.054523265306122 -1.0545232653061223 0.0
1.0358673098330238 -1.035867309833024 0.0
1.0163801484230053 -1.0163801484230055 0.0
0.9960617810760664 -0.9960617810760668 0.0
0.9749122077922076 -0.9749122077922077 0.0
0.9529314285714284 -0.9529314285714284 0.0
0.9301194434137288 -0.930119443413729 0.0
0.9064762523191091 -0.9064762523191096 0.0
0.8820018552875695 -0.8820018552875695 0.0
0.8566962523191093 -0.8566962523191094 0.0
0.8305594434137288 -0.8305594434137291 0.0
0.8035914285714284 -0.8035914285714285 0.0
0.7757922077922076 -0.7757922077922077 0.0
0.7471617810760666 -0.7471617810760667 0.0
0.7177001484230053 -0.7177001484230054 0.0
0.6874073098330239 -0.687407309833024 0.0
0.6562832653061222 -0.6562832653061225 0.0
0.6243280148423004 -0.6243280148423005 0.0
0.5915415584415582 -0.5915415584415583 0.0
0.5579238961038958 -0.5579238961038959 0.0
0.5234750278293133 -0.5234750278293134 0.0
0.48819495361781057 -0.48819495361781057 0.0
0.4520836734693877 -0.4520836734693877 0.0
0.4151411873840445 -0.4151411873840446 0.0
0.37736749536178105 -0.37736749536178116 0.0
0.3387625974025974 -0.3387625974025974 0.0
0.2993264935064933 -0.29932649350649343 0.0
0.25905918367346925 -0.25905918367346925 0.0
0.21796066790352486 -0.21796066790352486 0.0
0.17603094619666027 -0.1760309461966605 0.0
0.13327001855287546 -0.13327001855287568 0.0
0.08967788497217066 -0.08967788497217066 0.0
0.045254545454545436 -0.045254545454545436 0.0
0.0 0.0 0.0
0.04525454545454545 0.04525454545454546 0.0
0.08967788497217066 0.08967788497217068 0.0
0.13327001855287568 0.1332700185528757 0.0
0.17603094619666046 0.1760309461966605 0.0
0.21796066790352497 0.21796066790352508 0.0
0.2590591836734693 0.25905918367346936 0.0
0.29932649350649343 0.2993264935064935 0.0
0.3387625974025973 0.33876259740259734 0.0
0.37736749536178094 0.377367495361781 0.0
0.41514118738404443 0.4151411873840445 0.0
0.45208367346938766 0.4520836734693878 0.0
0.48819495361781057 0.4881949536178107 0.0
0.5234750278293133 0.5234750278293134 0.0
0.5579238961038959 0.557923896103896 0.0
0.5915415584415582 0.5915415584415583 0.0
0.6243280148423003 0.6243280148423004 0.0
0.6562832653061222 0.6562832653061225 0.0
0.687407309833024 0.6874073098330241 0.0
0.7177001484230054 0.7177001484230056 0.0
0.7471617810760667 0.7471617810760669 0.0
0.7757922077922076 0.7757922077922077 0.0
0.8035914285714284 0.8035914285714285 0.0
0.8305594434137288 0.830559443413729 0.0
0.8566962523191093 0.8566962523191094 0.0
0.8820018552875692 0.8820018552875695 0.0
0.9064762523191091 0.9064762523191093 0.0
0.9301194434137288 0.9301194434137292 0.0
0.9529314285714284 0.9529314285714284 0.0
0.9749122077922076 0.9749122077922077 0.0
0.9960617810760666 0.9960617810760668 0.0
1.0163801484230053 1.0163801484230055 0.0
1.0358673098330238 1.035867309833024 0.0
1.054523265306122 1.0545232653061223 0.0
1.0723480148423001 1.0723480148423004 0.0
1.0893415584415582 1.0893415584415584 0.0
1.1055038961038959 1.105503896103896 0.0
1.120835027829313 1.1208350278293133 0.0
1.1353349536178106 1.1353349536178106 0.0
1.1490036734693874 1.1490036734693876 0.0
1.1618411873840444 1.1618411873840446 0.0
1.1738474953617808 1.173847495361781 0.0
1.1850225974025972 1.1850225974025972 0.0
1.1953664935064932 1.1953664935064934 0.0
1.2048791836734691 1.2048791836734694 0.0
1.2135606679035245 1.2135606679035247 0.0
1.22141094619666 1.2214109461966602 0.0
1.2284300185528754 1.2284300185528756 0.0
1.2346178849721703 1.2346178849721705 0.0
1.2399745454545452 1.2399745454545454 0.0
1.2444999999999997 1.2445 0.0
1.7422999999999997 -1.2445 0.0
1.7377745454545452 -1.2399745454545454 0.0
1.7324178849721703 -1.2346178849721707 0.0
1.7262300185528754 -1.2284300185528756 0.0
1.7192109461966603 -1.2214109461966605 0.0
1.7113606679035245 -1.213560667903525 0.0
1.7026791836734692 -1.2048791836734694 0.0
1.6931664935064934 -1.1953664935064934 0.0
1.6828225974025972 -1.1850225974025974 0.0
1.6716474953617806 -1.173847495361781 0.0
1.6596411873840444 -1.1618411873840444 0.0
1.6468036734693878 -1.1490036734693876 0.0
1.6331349536178106 -1.1353349536178108 0.0
1.6186350278293133 -1.1208350278293135 0.0
1.603303896103896 -1.105503896103896 0.0
1.5871415584415582 -1.0893415584415584 0.0
1.5701480148423004 -1.0723480148423006 0.0
1.552323265306122 -1.0545232653061223 0.0
1.5336673098330238 -1.035867309833024 0.0
1.5141801484230053 -1.0163801484230055 0.0
1.4938617810760666 -0.9960617810760668 0.0
1.4727122077922075 -0.9749122077922077 0.0
1.4507314285714283 -0.9529314285714284 0.0
1.4279194434137288 -0.930119443413729 0.0
1.4042762523191092 -0.9064762523191096 0.0
1.3798018552875693 -0.8820018552875695 0.0
1.3544962523191093 -0.8566962523191094 0.0
1.328359443413729 -0.8305594434137291 0.0
1.3013914285714283 -0.8035914285714285 0.0
1.2735922077922077 -0.7757922077922077 0.0
1.2449617810760665 -0.7471617810760667 0.0
1.2155001484230055 -0.7177001484230054 0.0
1.1852073098330238 -0.687407309833024 0.0
1.1540832653061224 -0.6562832653061225 0.0
1.1221280148423003 -0.6243280148423005 0.0
1.0893415584415582 -0.5915415584415583 0.0
1.055723896103896 -0.5579238961038959 0.0
1.0212750278293132 -0.5234750278293134 0.0
0.9859949536178108 -0.48819495361781057 0.0
0.9498836734693876 -0.4520836734693877 0.0
0.9129411873840445 -0.4151411873840446 0.0
0.875167495361781 -0.37736749536178116 0.0
0.8365625974025973 -0.3387625974025974 0.0
0.7971264935064933 -0.29932649350649343 0.0
0.7568591836734693 -0.25905918367346925 0.0
0.7157606679035249 -0.21796066790352486 0.0
0.6738309461966603 -0.1760309461966605 0.0
0.6310700185528755 -0.13327001855287568 0.0
0.5874778849721707 -0.08967788497217066 0.0
0.5430545454545455 -0.045254545454545436 0.0
0.4978 0.0 0.0
0.5430545454545455 0.04525454545454546 0.0
0.5874778849721707 0.08967788497217068 0.0
0.6310700185528757 0.1332700185528757 0.0
0.6738309461966605 0.1760309461966605 0.0
0.715760667903525 0.21796066790352508 0.0
0.7568591836734693 0.25905918367346936 0.0
0.7971264935064934 0.2993264935064935 0.0
0.8365625974025973 0.33876259740259734 0.0
0.875167495361781 0.377367495361781 0.0
0.9129411873840445 0.4151411873840445 0.0
0.9498836734693876 0.4520836734693878 0.0
0.9859949536178105 0.4881949536178107 0.0
1.0212750278293132 0.5234750278293134 0.0
1.055723896103896 0.557923896103896 0.0
1.0893415584415582 0.5915415584415583 0.0
1.1221280148423003 0.6243280148423004 0.0
1.1540832653061224 0.6562832653061225 0.0
1.185207309833024 0.6874073098330241 0.0
1.2155001484230055 0.7177001484230056 0.0
1.2449617810760667 0.7471617810760669 0.0
1.2735922077922077 0.7757922077922077 0.0
1.3013914285714283 0.8035914285714285 0.0
1.3283594434137287 0.830559443413729 0.0
1.3544962523191093 0.8566962523191094 0.0
1.3798018552875693 0.8820018552875695 0.0
1.4042762523191092 0.9064762523191093 0.0
1.427919443413729 0.9301194434137292 0.0
1.4507314285714283 0.9529314285714284 0.0
1.4727122077922075 0.9749122077922077 0.0
1.4938617810760666 0.9960617810760668 0.0
1.5141801484230053 1.0163801484230055 0.0
1.5336673098330238 1.035867309833024 0.0
1.552323265306122 1.0545232653061223 0.0
1.5701480148423002 1.0723480148423004 0.0
1.5871415584415582 1.0893415584415584 0.0
1.603303896103896 1.105503896103896 0.0
1.6186350278293131 1.1208350278293133 0.0
1.6331349536178106 1.1353349536178106 0.0
1.6468036734693874 1.1490036734693876 0.0
1.6596411873840444 1.1618411873840446 0.0
1.6716474953617806 1.173847495361781 0.0
1.6828225974025972 1.1850225974025972 0.0
1.6931664935064934 1.1953664935064934 0.0
1.7026791836734692 1.2048791836734694 0.0
1.7113606679035245 1.2135606679035247 0.0
1.71921094619666 1.2214109461966602 0.0
1.7262300185528754 1.2284300185528756 0.0
1.7324178849721703 1.2346178849721705 0.0
1.7377745454545452 1.2399745454545454 0.0
1.7422999999999997 1.2445 0.0
1.6155872727272724 -1.2422372727272726 0.0
1.6106462152133578 -1.237296215213358 0.0
1.604873951762523 -1.2315239517625232 0.0
1.598270482374768 -1.224920482374768 0.0
1.5908358070500925 -1.2174858070500927 0.0
1.582569925788497 -1.2092199257884972 0.0
1.5734728385899812 -1.2001228385899814 0.0
1.5635445454545454 -1.1901945454545453 0.0
1.552785046382189 -1.1794350463821892 0.0
1.5411943413729126 -1.1678443413729127 0.0
1.5287724304267158 -1.155422430426716 0.0
1.5155193135435991 -1.142169313543599 0.0
1.501434990723562 -1.1280849907235622 0.0
1.4865194619666047 -1.1131694619666048 0.0
1.4707727272727271 -1.0974227272727273 0.0
1.4541947866419294 -1.0808447866419293 0.0
1.4367856400742112 -1.0634356400742113 0.0
1.418545287569573 -1.0451952875695731 0.0
1.3994737291280146 -1.0261237291280147 0.0
1.379570964749536 -1.0062209647495362 0.0
1.358836994434137 -0.9854869944341371 0.0
1.337271818181818 -0.9639218181818181 0.0
1.3148754359925787 -0.9415254359925787 0.0
1.291647847866419 -0.9182978478664192 0.0
1.2675890538033394 -0.8942390538033393 0.0
1.2426990538033393 -0.8693490538033395 0.0
1.2169778478664193 -0.8436278478664192 0.0
1.1904254359925788 -0.8170754359925788 0.0
1.163041818181818 -0.7896918181818181 0.0
1.1348269944341371 -0.7614769944341371 0.0
1.105780964749536 -0.7324309647495362 0.0
1.0759037291280147 -0.7025537291280148 0.0
1.0451952875695731 -0.6718452875695733 0.0
1.0136556400742114 -0.6403056400742114 0.0
0.9812847866419293 -0.6079347866419293 0.0
0.9480827272727271 -0.5747327272727272 0.0
0.9140494619666047 -0.5406994619666048 0.0
0.8791849907235622 -0.5058349907235622 0.0
0.8434893135435992 -0.47013931354359917 0.0
0.8069624304267162 -0.43361243042671627 0.0
0.7696043413729128 -0.3962543413729128 0.0
0.7314150463821893 -0.3580650463821894 0.0
0.6923945454545455 -0.3190445454545454 0.0
0.6525428385899814 -0.27919283858998134 0.0
0.6118599257884971 -0.23850992578849706 0.0
0.5703458070500929 -0.19699580705009279 0.0
0.5280004823747682 -0.15465048237476808 0.0
0.4848239517625232 -0.11147395176252317 0.0
0.4408162152133581 -0.06746621521335805 0.0
0.39597727272727273 -0.022627272727272718 0.0
0.39597727272727273 0.02262727272727273 0.0
0.4408162152133581 0.06746621521335806 0.0
0.4848239517625232 0.11147395176252319 0.0
0.528000482374768 0.15465048237476808 0.0
0.5703458070500929 0.19699580705009276 0.0
0.6118599257884971 0.23850992578849717 0.0
0.6525428385899814 0.2791928385899814 0.0
0.6923945454545455 0.3190445454545454 0.0
0.7314150463821891 0.3580650463821891 0.0
0.7696043413729128 0.39625434137291277 0.0
0.8069624304267162 0.43361243042671616 0.0
0.8434893135435992 0.4701393135435992 0.0
0.8791849907235619 0.5058349907235621 0.0
0.9140494619666046 0.5406994619666047 0.0
0.9480827272727271 0.5747327272727272 0.0
0.9812847866419294 0.6079347866419295 0.0
1.0136556400742114 0.6403056400742114 0.0
1.0451952875695731 0.6718452875695732 0.0
1.0759037291280147 0.7025537291280147 0.0
1.105780964749536 0.7324309647495362 0.0
1.1348269944341371 0.7614769944341373 0.0
1.163041818181818 0.789691818181818 0.0
1.1904254359925786 0.8170754359925786 0.0
1.216977847866419 0.843627847866419 0.0
1.2426990538033393 0.8693490538033394 0.0
1.2675890538033392 0.8942390538033393 0.0
1.291647847866419 0.9182978478664192 0.0
1.3148754359925787 0.9415254359925787 0.0
1.3372718181818182 0.9639218181818181 0.0
1.3588369944341372 0.9854869944341373 0.0
1.379570964749536 1.0062209647495362 0.0
1.3994737291280148 1.0261237291280147 0.0
1.418545287569573 1.0451952875695731 0.0
1.4367856400742112 1.0634356400742113 0.0
1.4541947866419291 1.0808447866419293 0.0
1.470772727272727 1.097422727272727 0.0
1.4865194619666047 1.1131694619666048 0.0
1.501434990723562 1.128084990723562 0.0
1.5155193135435991 1.1421693135435993 0.0
1.528772430426716 1.1554224304267162 0.0
1.5411943413729128 1.1678443413729127 0.0
1.5527850463821888 1.179435046382189 0.0
1.5635445454545451 1.1901945454545453 0.0
1.573472838589981 1.2001228385899811 0.0
1.5825699257884969 1.209219925788497 0.0
1.5908358070500925 1.2174858070500927 0.0
1.5982704823747678 1.224920482374768 0.0
1.604873951762523 1.2315239517625232 0.0
1.6106462152133578 1.237296215213358 0.0
1.6155872727272724 1.2422372727272726 0.0

CELLS 200 700
4 0 101 102 1
4 1 102 103 2
4 2 103 104 3
4 3 104 105 4
4 4 105 106 5
4 5 106 107 6
4 6 107 108 7
4 7 108 109 8
4 8 109 110 9
4 9 110 111 10
4 10 111 112 11
4 11 112 113 12
4 12 113 114 13
4 13 114 115 14
4 14 115 116 15
4 15 116 117 16
4 16 117 118 17
4 17 118 119 18
4 18 119 120 19
4 19 120 121 20
4 20 121 122 21
4 21 122 123 22
4 22 123 124 23
4 23 124 125 24
4 24 125 126 25
4 25 126 127 26
4 26 127 128 27
4 27 128 129 28
4 28 129 130 29
4 29 130 131 30
4 30 131 132 31
4 31 132 133 32
4 32 133 134 33
4 33 134 135 34
4 34 135 136 35
4 35 136 137 36
4 36 137 138 37
4 37 138 139 38
4 38 139 140 39
4 39 140 141 40
4 40 141 142 41
4 41 142 143 42
4 42 143 144 43
4 43 144 145 44
4 44 145 146 45
4 45 146 147 46
4 46 147 148 47
4 47 148 149 48
4 48 149 150 49
4 49 150 151 50
4 50 151 152 51
4 51 152 153 52
4 52 153 154 53
4 53 154 155 54
4 54 155 156 55
4 55 156 157 56
4 56 157 158 57
4 57 158 159 58
4 58 159 160 59
4 59 160 161 60
4 60 161 162 61
4 61 162 163 62
4 62 163 164 63
4 63 164 165 64
4 64 165 166 65
4 65 166 167 66
4 66 167 168 67
4 67 168 169 68
4 68 169 170 69
4 69 170 171 70
4 70 171 172 71
4 71 172 173 72
4 72 173 174 73
4 73 174 175 74
4 74 175 176 75
4 75 176 177 76
4 76 177 178 77
4 77 178 179 78
4 78 179 180 79
4 79 180 181 80
4 80 181 182 81
4 81 182 183 82
4 82 183 184 83
4 83 184 185 84
4 84 185 186 85
4 85 186 187 86
4 86 187 188 87
4 87 188 189 88
4 88 189 190 89
4 89 190 191 90
4 90 191 192 91
4 91 192 193 92
4 92 193 194 93
4 93 194 195 94
4 94 195 196 95
4 95 196 197 96
4 96 197 198 97
4 97 198 199 98
4 98 199 200 99
4 99 200 201 100
1 202
1 203
1 204
1 205
1 206
1 207
1 208
1 209
1 210
1 211
1 212
1 213
1 214
1 215
1 216
1 217
1 218
1 219
1 220
1 221
1 222
1 223
1 224
1 225
1 226
1 227
1 228
1 229
1 230
1 231
1 232
1 233
1 234
1 235
1 236
1 237
1 238
1 239
1 240
1 241
1 242
1 243
1 244
1 245
1 246
1 247
1 248
1 249
1 250
1 251
1 252
1 253
1 254
1 255
1 256
1 257
1 258
1 259
1 260
1 261
1 262
1 263
1 264
1 265
1 266
1 267
1 268
1 269
1 270
1 271
1 272
1 273
1 274
1 275
1 276
1 277
1 278
1 279
1 280
1 281
1 282
1 283
1 284
1 285
1 286
1 287
1 288
1 289
1 290
1 291
1 292
1 293
1 294
1 295
1 296
1 297
1 298
1 299
1 300
1 301

CELL_TYPES 200
9
9
9
9
9
9
9
9
9
9
9
9
9
9
9
9
9
9
9
9
9
9
9
9
9
9
9
9
9
9
9
9
9
9
9
9
9
9
9
9
9
9
9
9
9
9
9
9
9
9
9
9
9
9
9
9
9
9
9
9
9
9
9
9
9
9
9
9
9
9
9
9
9
9
9
9
9
9
9
9
9
9
9
9
9
9
9
9
9
9
9
9
9
9
9
9
9
9
9
9
1
1
1
1
1
1
1
1
1
1
1
1
1
1
1
1
1
1
1
1
1
1
1
1
1
1
1
1
1
1
1
1
1
1
1
1
1
1
1
1
1
1
1
1
1
1
1
1
1
1
1
1
1
1
1
1
1
1
1
1
1
1
1
1
1
1
1
1
1
1
1
1
1
1
1
1
1
1
1
1
1
1
1
1
1
1
1
1
1
1
1
1
1
1
1
1
1
1
1
1

CELL_DATA 200

VECTORS Vinf float
49.60381524006482 0.07163960948850537 2.292023523913759
49.605204966996524 0.07243496986836243 2.2598420445258705
49.606765807592204 0.07326404987729068 2.2236616454930624
49.60846787075921 0.07408981400845942 2.184136358181989
49.61027841000502 0.07487722509801324 2.1419830704505536
49.612163620290325 0.07559583966872724 2.097952403052531
49.61409075552586 0.07622191642112412 2.0527954191299824
49.616030218823106 0.07673964815137857 2.0072312274290196
49.6179572586182 0.07714130995639329 1.9619205490537812
49.61985301209374 0.07742639098508343 1.9174485418055573
49.621704831774004 0.07760002826816795 1.874317285504088
49.623506019295895 0.07767117255672425 1.8329456747194142
49.62129689511595 0.08049739952395844 1.7966579813557386
49.62273868454133 0.08060562394227669 1.7601090389472447
49.62410586263137 0.08067136796814402 1.7262097129148277
49.63399198638585 0.07885516461364588 1.689142119906664
49.633054531540715 0.0787764527927295 1.6608333427238147
49.63262647905159 0.07829394530095905 1.6359495737055767
49.63280968270508 0.07739730881505319 1.6143068356782524
49.63371447837126 0.07607530264697655 1.5955837200730096
49.635458209588776 0.07431409753186075 1.579362474940197
49.63209865040382 0.08062717714985275 1.569919743755205
49.633076037383 0.08057427346110171 1.5590528638956118
49.65185632384551 0.08730425250285473 1.552183891615142
49.64796995081357 0.08270536697514531 1.5418955039169022
49.64510241229639 0.07829280384095672 1.5370183034567733
49.64340417031334 0.0741647797570689 1.5365689536108835
49.63727746523623 0.07981641951197364 1.5441097452507333
49.63792590789326 0.07953405905189916 1.5489021488169037
49.635444454615964 0.08683658310339472 1.5583009320329828
49.634899555351986 0.08475525511607396 1.5686520855207813
49.63471996518845 0.08284015612868176 1.5826276815715778
49.63959372120318 0.07803932239131334 1.5964505335263168
49.639784328843234 0.07762978057070168 1.616685078635487
49.64454246906577 0.0821362870109196 1.6398626777585543
49.64334902146932 0.08070874895334144 1.6680903194291359
49.642252239324726 0.07925740190425179 1.702591536663697
49.641322804482165 0.07774234000903064 1.7440533172417976
49.640651983662565 0.07607424979023071 1.7931875180471684
49.64034876795146 0.07407204454330907 1.8505006817201386
49.640505659259986 0.07140363831024331 1.9158055007348627
49.64337302668439 0.06908450848483423 1.9855549718599674
49.64452104787592 0.06407484346868153 2.0582461396678084
49.65081128453344 0.06444704792707252 2.130977821037604
49.64521810398142 0.0508599901451309 2.1934998854936163
49.636809081118784 0.036319825215272196 2.263293789044875
49.62542312075893 0.022582268103753765 2.3600278207927903
49.61244247636611 0.011310822446315155 2.4924189878284237
49.60001958705843 0.0033180057597040264 2.6445447046232835
49.59908896329695 0.00329136990591009 2.7965599605370057
49.59944675631453 0.0010067760096362883 2.8004953195331463
49.60145056860573 0.002682207853407066 2.662172105754552
49.61587016448684 -0.0042400490517795035 2.530080352007113
49.631549818093106 -0.015687901972669543 2.4177223255585067
49.645487879620354 -0.031620861592687975 2.3330784528317112
49.65505286391494 -0.04991168143489299 2.2631234046095807
49.65994270126193 -0.06726824206656565 2.18961960351007
49.65134387255804 -0.06920313484590924 2.100202781503794
49.647952379477644 -0.07520701817131986 2.0100432704869884
49.6444770990765 -0.0782537739722404 1.9248441734728008
49.64261402525741 -0.0798249310235912 1.8478568690619355
49.64156978849004 -0.07996191359434629 1.7816627270256296
49.640883892631344 -0.08006307452540132 1.7256427298831456
49.634875035327475 -0.08537409188415332 1.6840832603057718
49.63384456424469 -0.08701168375991698 1.6450792946538657
49.63303312131485 -0.08891669874876856 1.612733355255719
49.64029192586212 -0.08043311064767546 1.5780833906081524
49.640189713690965 -0.08066466978577887 1.5550221272308025
49.635486252105714 -0.08523389226898843 1.5386101260455352
49.63580492526163 -0.08705795830093906 1.522451479784296
49.636513163265235 -0.08909832665454313 1.5101673810312373
49.638887377739614 -0.08176633468581854 1.4988566610152532
49.63832085191502 -0.08199797596510017 1.4923461552819273
49.64460941882965 -0.0756389584483811 1.48239639810462
49.64649072323374 -0.07990262433663395 1.481522187401343
49.64958745244976 -0.08450500896857227 1.4852385401427664
49.65374126278758 -0.08933917287052849 1.4945662238505357
49.634433659279935 -0.08260836747878245 1.5002928297632092
49.63350487055717 -0.0826368890101564 1.5100169773588608
49.63692136753027 -0.07593518618703236 1.5181102711665315
49.63521569306451 -0.07766915968166783 1.5333278637263654
49.634381416633865 -0.07901060817379184 1.5511318577543594
49.634297183502234 -0.07996774039895987 1.5719540267254493
49.63484865819757 -0.08054667395743575 1.5961279935587807
49.63592989394166 -0.08075302164215117 1.6238492124173136
49.62584815634556 -0.08246928791585466 1.6603683239702978
49.624537799374046 -0.08237031044173389 1.6936619185443595
49.623156137001615 -0.08223014191726132 1.7296481263625936
49.62551126329782 -0.07920881062430432 1.7651967195356169
49.62377276197432 -0.079116568696165 1.806104777698487
49.621986179413064 -0.07892521890854057 1.8487971292416294
49.620157399259085 -0.07862629731987948 1.8928528477456026
49.61829813204534 -0.07821500382981282 1.9377687990524444
49.616426200430126 -0.07769199230296395 1.9829600027659335
49.61456524119121 -0.07706489799812187 2.0277672011205117
49.6127437048813 -0.07634918610669021 2.071473814379447
49.610993215899654 -0.07556801376235564 2.1133318944486144
49.60934654330995 -0.07475104074829 2.1525938952018553
49.60783553726142 -0.07393238898449825 2.1885453583880716
49.60648936789241 -0.07314812720112676 2.220533614285424
49.60381524006482 0.07163960948850537 2.292023523913759
49.605204966996524 0.07243496986836243 2.2598420445258705
49.606765807592204 0.07326404987729068 2.2236616454930624
49.60846787075921 0.07408981400845942 2.184136358181989
49.61027841000502 0.07487722509801324 2.1419830704505536
49.612163620290325 0.07559583966872724 2.097952403052531
49.61409075552586 0.07622191642112412 2.0527954191299824
49.616030218823106 0.07673964815137857 2.0072312274290196
49.6179572586182 0.07714130995639329 1.9619205490537812
49.61985301209374 0.07742639098508343 1.9174485418055573
49.621704831774004 0.07760002826816795 1.874317285504088
49.623506019295895 0.07767117255672425 1.8329456747194142
49.62129689511595 0.08049739952395844 1.7966579813557386
49.62273868454133 0.08060562394227669 1.7601090389472447
49.62410586263137 0.08067136796814402 1.7262097129148277
49.63399198638585 0.07885516461364588 1.689142119906664
49.633054531540715 0.0787764527927295 1.6608333427238147
49.63262647905159 0.07829394530095905 1.6359495737055767
49.63280968270508 0.07739730881505319 1.6143068356782524
49.63371447837126 0.07607530264697655 1.5955837200730096
49.635458209588776 0.07431409753186075 1.579362474940197
49.63209865040382 0.08062717714985275 1.569919743755205
49.633076037383 0.08057427346110171 1.5590528638956118
49.65185632384551 0.08730425250285473 1.552183891615142
49.64796995081357 0.08270536697514531 1.5418955039169022
49.64510241229639 0.07829280384095672 1.5370183034567733
49.64340417031334 0.0741647797570689 1.5365689536108835
49.63727746523623 0.07981641951197364 1.5441097452507333
49.63792590789326 0.07953405905189916 1.5489021488169037
49.635444454615964 0.08683658310339472 1.5583009320329828
49.634899555351986 0.08475525511607396 1.5686520855207813
49.63471996518845 0.08284015612868176 1.5826276815715778
49.63959372120318 0.07803932239131334 1.5964505335263168
49.639784328843234 0.07762978057070168 1.616685078635487
49.64454246906577 0.0821362870109196 1.6398626777585543
49.64334902146932 0.08070874895334144 1.6680903194291359
49.642252239324726 0.07925740190425179 1.702591536663697
49.641322804482165 0.07774234000903064 1.7440533172417976
49.640651983662565 0.07607424979023071 1.7931875180471684
49.64034876795146 0.07407204454330907 1.8505006817201386
49.640505659259986 0.07140363831024331 1.9158055007348627
49.64337302668439 0.06908450848483423 1.9855549718599674
49.64452104787592 0.06407484346868153 2.0582461396678084
49.65081128453344 0.06444704792707252 2.130977821037604
49.64521810398142 0.0508599901451309 2.1934998854936163
49.636809081118784 0.036319825215272196 2.263293789044875
49.62542312075893 0.022582268103753765 2.3600278207927903
49.61244247636611 0.011310822446315155 2.4924189878284237
49.60001958705843 0.0033180057597040264 2.6445447046232835
49.59908896329695 0.00329136990591009 2.7965599605370057
49.59944675631453 0.0010067760096362883 2.8004953195331463
49.60145056860573 0.002682207853407066 2.662172105754552
49.61587016448684 -0.0042400490517795035 2.530080352007113
49.631549818093106 -0.015687901972669543 2.4177223255585067
49.645487879620354 -0.031620861592687975 2.3330784528317112
49.65505286391494 -0.04991168143489299 2.2631234046095807
49.65994270126193 -0.06726824206656565 2.18961960351007
49.65134387255804 -0.06920313484590924 2.100202781503794
49.647952379477644 -0.07520701817131986 2.0100432704869884
49.6444770990765 -0.0782537739722404 1.9248441734728008
49.64261402525741 -0.0798249310235912 1.8478568690619355
49.64156978849004 -0.07996191359434629 1.7816627270256296
49.640883892631344 -0.08006307452540132 1.7256427298831456
49.634875035327475 -0.08537409188415332 1.6840832603057718
49.63384456424469 -0.08701168375991698 1.6450792946538657
49.63303312131485 -0.08891669874876856 1.612733355255719
49.64029192586212 -0.08043311064767546 1.5780833906081524
49.640189713690965 -0.08066466978577887 1.5550221272308025
49.635486252105714 -0.08523389226898843 1.5386101260455352
49.63580492526163 -0.08705795830093906 1.522451479784296
49.636513163265235 -0.08909832665454313 1.5101673810312373
49.638887377739614 -0.08176633468581854 1.4988566610152532
49.63832085191502 -0.08199797596510017 1.4923461552819273
49.64460941882965 -0.0756389584483811 1.48239639810462
49.64649072323374 -0.07990262433663395 1.481522187401343
49.64958745244976 -0.08450500896857227 1.4852385401427664
49.65374126278758 -0.08933917287052849 1.4945662238505357
49.634433659279935 -0.08260836747878245 1.5002928297632092
49.63350487055717 -0.0826368890101564 1.5100169773588608
49.63692136753027 -0.07593518618703236 1.5181102711665315
49.63521569306451 -0.07766915968166783 1.5333278637263654
49.634381416633865 -0.07901060817379184 1.5511318577543594
49.634297183502234 -0.07996774039895987 1.5719540267254493
49.63484865819757 -0.08054667395743575 1.5961279935587807
49.63592989394166 -0.08075302164215117 1.6238492124173136
49.62584815634556 -0.08246928791585466 1.6603683239702978
49.624537799374046 -0.08237031044173389 1.6936619185443595
49.623156137001615 -0.08223014191726132 1.7296481263625936
49.62551126329782 -0.07920881062430432 1.7651967195356169
49.62377276197432 -0.079116568696165 1.806104777698487
49.621986179413064 -0.07892521890854057 1.8487971292416294
49.620157399259085 -0.07862629731987948 1.8928528477456026
49.61829813204534 -0.07821500382981282 1.9377687990524444
49.616426200430126 -0.07769199230296395 1.9829600027659335
49.61456524119121 -0.07706489799812187 2.0277672011205117
49.6127437048813 -0.07634918610669021 2.071473814379447
49.610993215899654 -0.07556801376235564 2.1133318944486144
49.60934654330995 -0.07475104074829 2.1525938952018553
49.60783553726142 -0.07393238898449825 2.1885453583880716
49.60648936789241 -0.07314812720112676 2.220533614285424

VECTORS L float
-0.0031775904983831755 0.0 0.04327054912623981
-0.005744101403766011 0.0 0.07821977756549431
-0.008483330777964667 0.0 0.11552098401881532
-0.011482135618833067 0.0 0.15635693574161486
-0.01475565607290406 0.0 0.2009338023000033
-0.01829993076305137 0.0 0.24919764000185368
-0.02210352868651866 0.0 0.3009927882085212
-0.026151334891206694 0.0 0.3561134204367999
-0.030426128250971254 0.0 0.4143250295703034
-0.03490938793866279 0.0 0.475375409932611
-0.03958181549639447 0.0 0.5390017665315804
-0.04442383127185117 0.0 0.6049374752355604
-0.04941676956496531 0.0 0.6729283575743666
-0.05453801201081997 0.0 0.742666410024326
-0.05976767895152474 0.0 0.8138809231551964
-0.06508401362689578 0.0 0.8862756262672635
-0.07048363738896712 0.0 0.9598045109296526
-0.07595073279086513 0.0 1.034252184500566
-0.08147420927938427 0.0 1.1094676223821018
-0.0870458031915992 0.0 1.185338294897212
-0.09266069764353438 0.0 1.2617986085671877
-0.09832196423235233 0.0 1.338890390586561
-0.10401680611821221 0.0 1.416439381154619
-0.10975434492489215 0.0 1.4945697931521609
-0.11551969520207955 0.0 1.5730789253156519
-0.12134811525692903 0.0 1.6524469044306602
-0.12725796400095973 0.0 1.732923731302261
-0.13326939117931413 0.0 1.8147837932492463
-0.13937894905513243 0.0 1.897980141029023
-0.14560365365044955 0.0 1.9827444887714556
-0.15195418127132618 0.0 2.069222220101689
-0.1584570883680998 0.0 2.157774965062845
-0.1651266291203754 0.0 2.2485968286471056
-0.17199964128379558 0.0 2.342189445635934
-0.17909699309789665 0.0 2.438836987380073
-0.18644972452504482 0.0 2.5389621377392357
-0.1940810461562527 0.0 2.6428809648220004
-0.2020025374735592 0.0 2.7507511511701157
-0.21021049600698324 0.0 2.862522278735917
-0.2186787751422268 0.0 2.9778382983812155
-0.2273488487389959 0.0 3.0959022357224173
-0.23611536528643517 0.0 3.215279476158206
-0.2448421578759005 0.0 3.3341157792152245
-0.2533749484681592 0.0 3.4503102777492916
-0.26150215578898617 0.0 3.560981783034165
-0.2692219436813838 0.0 3.66610529136921
-0.27657247915748373 0.0 3.7662005385650286
-0.2834383112477682 0.0 3.8596953815620525
-0.28930900786303954 0.0 3.939639057887118
-0.2928530070060884 0.0 3.987899143351458
-0.2932837987366817 0.0 3.9937654104967373
-0.29068413214271843 0.0 3.9583646874887948
-0.28576934737927767 0.0 3.891438053720357
-0.279690919889571 0.0 3.808665621137409
-0.2727668504694738 0.0 3.714377736607209
-0.26503229184514016 0.0 3.6090530891756716
-0.25651099849667625 0.0 3.4930151533115565
-0.24734016412923432 0.0 3.368132151796126
-0.23786521643720807 0.0 3.2391079147885624
-0.2283368309768971 0.0 3.1093559938396793
-0.2189510894264482 0.0 2.9815465133381687
-0.20983770485066838 0.0 2.8574458291268945
-0.20106464161470938 0.0 2.7379794397566064
-0.19266892635587485 0.0 2.623651552087579
-0.18461014083243935 0.0 2.5139117743953068
-0.17688027422614805 0.0 2.408651020092008
-0.16943929666075994 0.0 2.3073241859847804
-0.16230107209023792 0.0 2.2101200632036773
-0.1554231148502559 0.0 2.1164601070852753