# vtk DataFile Version 4.0
[MyVLM domain - lattices] 
ASCII
DATASET UNSTRUCTURED_GRID
POINTS 302 float
1.2444999999999997 -1.2445 0.0
1.2399745454545452 -1.2399745454545454 0.0
1.2346178849721705 -1.2346178849721707 0.0
1.2284300185528754 -1.2284300185528756 0.0
1.2214109461966602 -1.2214109461966605 0.0
1.2135606679035247 -1.213560667903525 0.0
1.2048791836734691 -1.2048791836734694 0.0
1.1953664935064932 -1.1953664935064934 0.0
1.1850225974025972 -1.1850225974025974 0.0
1.1738474953617808 -1.173847495361781 0.0
1.1618411873840442 -1.1618411873840444 0.0
1.1490036734693874 -1.1490036734693876 0.0
1.1353349536178106 -1.1353349536178108 0.0
1.1208350278293133 -1.1208350278293135 0.0
1.1055038961038959 -1.105503896103896 0.0
1.0893415584415582 -1.0893415584415584 0.0
1.0723480148423004 -1.0723480148423006 0.0
1.054523265306122 -1.0545232653061223 0.0
1.0358673098330238 -1.035867309833024 0.0
1.0163801484230053 -1.0163801484230055 0.0
0.9960617810760664 -0.9960617810760668 0.0
0.9749122077922076 -0.9749122077922077 0.0
0.9529314285714284 -0.9529314285714284 0.0
0.9301194434137288 -0.930119443413729 0.0
0.9064762523191091 -0.9064762523191096 0.0
0.8820018552875695 -0.8820018552875695 0.0
0.8566962523191093 -0.8566962523191094 0.0
0.8305594434137288 -0.8305594434137291 0.0
0.8035914285714284 -0.8035914285714285 0.0
0.7757922077922076 -0.7757922077922077 0.0
0.7471617810760666 -0.7471617810760667 0.0
0.7177001484230053 -0.7177001484230054 0.0
0.6874073098330239 -0.687407309833024 0.0
0.6562832653061222 -0.6562832653061225 0.0
0.6243280148423004 -0.6243280148423005 0.0
0.5915415584415582 -0.5915415584415583 0.0
0.5579238961038958 -0.5579238961038959 0.0
0.5234750278293133 -0.5234750278293134 0.0
0.48819495361781057 -0.48819495361781057 0.0
0.4520836734693877 -0.4520836734693877 0.0
0.4151411873840445 -0.4151411873840446 0.0
0.37736749536178105 -0.37736749536178116 0.0
0.3387625974025974 -0.3387625974025974 0.0
0.2993264935064933 -0.29932649350649343 0.0
0.25905918367346925 -0.25905918367346925 0.0
0.21796066790352486 -0.21796066790352486 0.0
0.17603094619666027 -0.1760309461966605 0.0
0.13327001855287546 -0.13327001855287568 0.0
0.08967788497217066 -0.08967788497217066 0.0
0.045254545454545436 -0.045254545454545436 0.0
0.0 0.0 0.0
0.04525454545454545 0.04525454545454546 0.0
0.08967788497217066 0.08967788497217068 0.0
0.13327001855287568 0.1332700185528757 0.0
0.17603094619666046 0.1760309461966605 0.0
0.21796066790352497 0.21796066790352508 0.0
0.2590591836734693 0.25905918367346936 0.0
0.29932649350649343 0.2993264935064935 0.0
0.3387625974025973 0.33876259740259734 0.0
0.37736749536178094 0.377367495361781 0.0
0.41514118738404443 0.4151411873840445 0.0
0.45208367346938766 0.4520836734693878 0.0
0.48819495361781057 0.4881949536178107 0.0
0.5234750278293133 0.5234750278293134 0.0
0.5579238961038959 0.557923896103896 0.0
0.5915415584415582 0.5915415584415583 0.0
0.6243280148423003 0.6243280148423004 0.0
0.6562832653061222 0.6562832653061225 0.0
0.687407309833024 0.6874073098330241 0.0
0.7177001484230054 0.7177001484230056 0.0
0.7471617810760667 0.7471617810760669 0.0
0.7757922077922076 0.7757922077922077 0.0
0.8035914285714284 0.8035914285714285 0.0
0.8305594434137288 0.830559443413729 0.0
0.8566962523191093 0.8566962523191094 0.0
0.8820018552875692 0.8820018552875695 0.0
0.9064762523191091 0.9064762523191093 0.0
0.9301194434137288 0.9301194434137292 0.0
0.9529314285714284 0.9529314285714284 0.0
0.9749122077922076 0.9749122077922077 0.0
0.9960617810760666 0.9960617810760668 0.0
1.0163801484230053 1.0163801484230055 0.0
1.0358673098330238 1.035867309833024 0.0
1.054523265306122 1.0545232653061223 0.0
1.0723480148423001 1.0723480148423004 0.0
1.0893415584415582 1.0893415584415584 0.0
1.1055038961038959 1.105503896103896 0.0
1.120835027829313 1.1208350278293133 0.0
1.1353349536178106 1.1353349536178106 0.0
1.1490036734693874 1.1490036734693876 0.0
1.1618411873840444 1.1618411873840446 0.0
1.1738474953617808 1.173847495361781 0.0
1.1850225974025972 1.1850225974025972 0.0
1.1953664935064932 1.1953664935064934 0.0
1.2048791836734691 1.2048791836734694 0.0
1.2135606679035245 1.2135606679035247 0.0
1.22141094619666 1.2214109461966602 0.0
1.2284300185528754 1.2284300185528756 0.0
1.2346178849721703 1.2346178849721705 0.0
1.2399745454545452 1.2399745454545454 0.0
1.2444999999999997 1.2445 0.0
1.7422999999999997 -1.2445 0.0
1.7377745454545452 -1.2399745454545454 0.0
1.7324178849721703 -1.2346178849721707 0.0
1.7262300185528754 -1.2284300185528756 0.0
1.7192109461966603 -1.2214109461966605 0.0
1.7113606679035245 -1.213560667903525 0.0
1.7026791836734692 -1.2048791836734694 0.0
1.6931664935064934 -1.1953664935064934 0.0
1.6828225974025972 -1.1850225974025974 0.0
1.6716474953617806 -1.173847495361781 0.0
1.6596411873840444 -1.1618411873840444 0.0
1.6468036734693878 -1.1490036734693876 0.0
1.6331349536178106 -1.1353349536178108 0.0
1.6186350278293133 -1.1208350278293135 0.0
1.603303896103896 -1.105503896103896 0.0
1.5871415584415582 -1.0893415584415584 0.0
1.5701480148423004 -1.0723480148423006 0.0
1.552323265306122 -1.0545232653061223 0.0
1.5336673098330238 -1.035867309833024 0.0
1.5141801484230053 -1.0163801484230055 0.0
1.4938617810760666 -0.9960617810760668 0.0
1.4727122077922075 -0.9749122077922077 0.0
1.4507314285714283 -0.9529314285714284 0.0
1.4279194434137288 -0.930119443413729 0.0
1.4042762523191092 -0.9064762523191096 0.0
1.3798018552875693 -0.8820018552875695 0.0
1.3544962523191093 -0.8566962523191094 0.0
1.328359443413729 -0.8305594434137291 0.0
1.3013914285714283 -0.8035914285714285 0.0
1.2735922077922077 -0.7757922077922077 0.0
1.2449617810760665 -0.7471617810760667 0.0
1.2155001484230055 -0.7177001484230054 0.0
1.1852073098330238 -0.687407309833024 0.0
1.1540832653061224 -0.6562832653061225 0.0
1.1221280148423003 -0.6243280148423005 0.0
1.0893415584415582 -0.5915415584415583 0.0
1.055723896103896 -0.5579238961038959 0.0
1.0212750278293132 -0.5234750278293134 0.0
0.9859949536178108 -0.48819495361781057 0.0
0.9498836734693876 -0.4520836734693877 0.0
0.9129411873840445 -0.4151411873840446 0.0
0.875167495361781 -0.37736749536178116 0.0
0.8365625974025973 -0.3387625974025974 0.0
0.7971264935064933 -0.29932649350649343 0.0
0.7568591836734693 -0.25905918367346925 0.0
0.7157606679035249 -0.21796066790352486 0.0
0.6738309461966603 -0.1760309461966605 0.0
0.6310700185528755 -0.13327001855287568 0.0
0.5874778849721707 -0.08967788497217066 0.0
0.5430545454545455 -0.045254545454545436 0.0
0.4978 0.0 0.0
0.5430545454545455 0.04525454545454546 0.0
0.5874778849721707 0.08967788497217068 0.0
0.6310700185528757 0.1332700185528757 0.0
0.6738309461966605 0.1760309461966605 0.0
0.715760667903525 0.21796066790352508 0.0
0.7568591836734693 0.25905918367346936 0.0
0.7971264935064934 0.2993264935064935 0.0
0.8365625974025973 0.33876259740259734 0.0
0.875167495361781 0.377367495361781 0.0
0.9129411873840445 0.4151411873840445 0.0
0.9498836734693876 0.4520836734693878 0.0
0.9859949536178105 0.4881949536178107 0.0
1.0212750278293132 0.5234750278293134 0.0
1.055723896103896 0.557923896103896 0.0
1.0893415584415582 0.5915415584415583 0.0
1.1221280148423003 0.6243280148423004 0.0
1.1540832653061224 0.6562832653061225 0.0
1.185207309833024 0.6874073098330241 0.0
1.2155001484230055 0.7177001484230056 0.0
1.2449617810760667 0.7471617810760669 0.0
1.2735922077922077 0.7757922077922077 0.0
1.3013914285714283 0.8035914285714285 0.0
1.3283594434137287 0.830559443413729 0.0
1.3544962523191093 0.8566962523191094 0.0
1.3798018552875693 0.8820018552875695 0.0
1.4042762523191092 0.9064762523191093 0.0
1.427919443413729 0.9301194434137292 0.0
1.4507314285714283 0.9529314285714284 0.0
1.4727122077922075 0.9749122077922077 0.0
1.4938617810760666 0.9960617810760668 0.0
1.5141801484230053 1.0163801484230055 0.0
1.5336673098330238 1.035867309833024 0.0
1.552323265306122 1.0545232653061223 0.0
1.5701480148423002 1.0723480148423004 0.0
1.5871415584415582 1.0893415584415584 0.0
1.603303896103896 1.105503896103896 0.0
1.6186350278293131 1.1208350278293133 0.0
1.6331349536178106 1.1353349536178106 0.0
1.6468036734693874 1.1490036734693876 0.0
1.6596411873840444 1.1618411873840446 0.0
1.6716474953617806 1.173847495361781 0.0
1.6828225974025972 1.1850225974025972 0.0
1.6931664935064934 1.1953664935064934 0.0
1.7026791836734692 1.2048791836734694 0.0
1.7113606679035245 1.2135606679035247 0.0
1.71921094619666 1.2214109461966602 0.0
1.7262300185528754 1.2284300185528756 0.0
1.7324178849721703 1.2346178849721705 0.0
1.7377745454545452 1.2399745454545454 0.0
1.7422999999999997 1.2445 0.0
1.6155872727272724 -1.2422372727272726 0.0
1.6106462152133578 -1.237296215213358 0.0
1.604873951762523 -1.2315239517625232 0.0
1.598270482374768 -1.224920482374768 0.0
1.5908358070500925 -1.2174858070500927 0.0
1.582569925788497 -1.2092199257884972 0.0
1.5734728385899812 -1.2001228385899814 0.0
1.5635445454545454 -1.1901945454545453 0.0
1.552785046382189 -1.1794350463821892 0.0
1.5411943413729126 -1.1678443413729127 0.0
1.5287724304267158 -1.155422430426716 0.0
1.5155193135435991 -1.142169313543599 0.0
1.501434990723562 -1.1280849907235622 0.0
1.4865194619666047 -1.1131694619666048 0.0
1.4707727272727271 -1.0974227272727273 0.0
1.4541947866419294 -1.0808447866419293 0.0
1.4367856400742112 -1.0634356400742113 0.0
1.418545287569573 -1.0451952875695731 0.0
1.3994737291280146 -1.0261237291280147 0.0
1.379570964749536 -1.0062209647495362 0.0
1.358836994434137 -0.9854869944341371 0.0
1.337271818181818 -0.9639218181818181 0.0
1.3148754359925787 -0.9415254359925787 0.0
1.291647847866419 -0.9182978478664192 0.0
1.2675890538033394 -0.8942390538033393 0.0
1.2426990538033393 -0.8693490538033395 0.0
1.2169778478664193 -0.8436278478664192 0.0
1.1904254359925788 -0.8170754359925788 0.0
1.163041818181818 -0.7896918181818181 0.0
1.1348269944341371 -0.7614769944341371 0.0
1.105780964749536 -0.7324309647495362 0.0
1.0759037291280147 -0.7025537291280148 0.0
1.0451952875695731 -0.6718452875695733 0.0
1.0136556400742114 -0.6403056400742114 0.0
0.9812847866419293 -0.6079347866419293 0.0
0.9480827272727271 -0.5747327272727272 0.0
0.9140494619666047 -0.5406994619666048 0.0
0.8791849907235622 -0.5058349907235622 0.0
0.8434893135435992 -0.47013931354359917 0.0
0.8069624304267162 -0.43361243042671627 0.0
0.7696043413729128 -0.3962543413729128 0.0
0.7314150463821893 -0.3580650463821894 0.0
0.6923945454545455 -0.3190445454545454 0.0
0.6525428385899814 -0.27919283858998134 0.0
0.6118599257884971 -0.23850992578849706 0.0
0.5703458070500929 -0.19699580705009279 0.0
0.5280004823747682 -0.15465048237476808 0.0
0.4848239517625232 -0.11147395176252317 0.0
0.4408162152133581 -0.06746621521335805 0.0
0.39597727272727273 -0.022627272727272718 0.0
0.39597727272727273 0.02262727272727273 0.0
0.4408162152133581 0.06746621521335806 0.0
0.4848239517625232 0.11147395176252319 0.0
0.528000482374768 0.15465048237476808 0.0
0.5703458070500929 0.19699580705009276 0.0
0.6118599257884971 0.23850992578849717 0.0
0.6525428385899814 0.2791928385899814 0.0
0.6923945454545455 0.3190445454545454 0.0
0.7314150463821891 0.3580650463821891 0.0
0.7696043413729128 0.39625434137291277 0.0
0.8069624304267162 0.43361243042671616 0.0
0.8434893135435992 0.4701393135435992 0.0
0.8791849907235619 0.5058349907235621 0.0
0.9140494619666046 0.5406994619666047 0.0
0.9480827272727271 0.5747327272727272 0.0
0.9812847866419294 0.6079347866419295 0.0
1.0136556400742114 0.6403056400742114 0.0
1.0451952875695731 0.6718452875695732 0.0
1.0759037291280147 0.7025537291280147 0.0
1.105780964749536 0.7324309647495362 0.0
1.1348269944341371 0.7614769944341373 0.0
1.163041818181818 0.789691818181818 0.0
1.1904254359925786 0.8170754359925786 0.0
1.216977847866419 0.843627847866419 0.0
1.2426990538033393 0.8693490538033394 0.0
1.2675890538033392 0.8942390538033393 0.0
1.291647847866419 0.9182978478664192 0.0
1.3148754359925787 0.9415254359925787 0.0
1.3372718181818182 0.9639218181818181 0.0
1.3588369944341372 0.9854869944341373 0.0
1.379570964749536 1.0062209647495362 0.0
1.3994737291280148 1.0261237291280147 0.0
1.418545287569573 1.0451952875695731 0.0
1.4367856400742112 1.0634356400742113 0.0
1.4541947866419291 1.0808447866419293 0.0
1.470772727272727 1.097422727272727 0.0
1.4865194619666047 1.1131694619666048 0.0
1.501434990723562 1.128084990723562 0.0
1.5155193135435991 1.1421693135435993 0.0
1.528772430426716 1.1554224304267162 0.0
1.5411943413729128 1.1678443413729127 0.0
1.5527850463821888 1.179435046382189 0.0
1.5635445454545451 1.1901945454545453 0.0
1.573472838589981 1.2001228385899811 0.0
1.5825699257884969 1.209219925788497 0.0
1.5908358070500925 1.2174858070500927 0.0
1.5982704823747678 1.224920482374768 0.0
1.604873951762523 1.2315239517625232 0.0
1.6106462152133578 1.237296215213358 0.0
1.6155872727272724 1.2422372727272726 0.0

CELLS 200 700
4 0 101 102 1
4 1 102 103 2
4 2 103 104 3
4 3 104 105 4
4 4 105 106 5
4 5 106 107 6
4 6 107 108 7
4 7 108 109 8
4 8 109 110 9
4 9 110 111 10
4 10 111 112 11
4 11 112 113 12
4 12 113 114 13
4 13 114 115 14
4 14 115 116 15
4 15 116 117 16
4 16 117 118 17
4 17 118 119 18
4 18 119 120 19
4 19 120 121 20
4 20 121 122 21
4 21 122 123 22
4 22 123 124 23
4 23 124 125 24
4 24 125 126 25
4 25 126 127 26
4 26 127 128 27
4 27 128 129 28
4 28 129 130 29
4 29 130 131 30
4 30 131 132 31
4 31 132 133 32
4 32 133 134 33
4 33 134 135 34
4 34 135 136 35
4 35 136 137 36
4 36 137 138 37
4 37 138 139 38
4 38 139 140 39
4 39 140 141 40
4 40 141 142 41
4 41 142 143 42
4 42 143 144 43
4 43 144 145 44
4 44 145 146 45
4 45 146 147 46
4 46 147 148 47
4 47 148 149 48
4 48 149 150 49
4 49 150 151 50
4 50 151 152 51
4 51 152 153 52
4 52 153 154 53
4 53 154 155 54
4 54 155 156 55
4 55 156 157 56
4 56 157 158 57
4 57 158 159 58
4 58 159 160 59
4 59 160 161 60
4 60 161 162 61
4 61 162 163 62
4 62 163 164 63
4 63 164 165 64
4 64 165 166 65
4 65 166 167 66
4 66 167 168 67
4 67 168 169 68
4 68 169 170 69
4 69 170 171 70
4 70 171 172 71
4 71 172 173 72
4 72 173 174 73
4 73 174 175 74
4 74 175 176 75
4 75 176 177 76
4 76 177 178 77
4 77 178 179 78
4 78 179 180 79
4 79 180 181 80
4 80 181 182 81
4 81 182 183 82
4 82 183 184 83
4 83 184 185 84
4 84 185 186 85
4 85 186 187 86
4 86 187 188 87
4 87 188 189 88
4 88 189 190 89
4 89 190 191 90
4 90 191 192 91
4 91 192 193 92
4 92 193 194 93
4 93 194 195 94
4 94 195 196 95
4 95 196 197 96
4 96 197 198 97
4 97 198 199 98
4 98 199 200 99
4 99 200 201 100
1 202
1 203
1 204
1 205
1 206
1 207
1 208
1 209
1 210
1 211
1 212
1 213
1 214
1 215
1 216
1 217
1 218
1 219
1 220
1 221
1 222
1 223
1 224
1 225
1 226
1 227
1 228
1 229
1 230
1 231
1 232
1 233
1 234
1 235
1 236
1 237
1 238
1 239
1 240
1 241
1 242
1 243
1 244
1 245
1 246
1 247
1 248
1 249
1 250
1 251
1 252
1 253
1 254
1 255
1 256
1 257
1 258
1 259
1 260
1 261
1 262
1 263
1 264
1 265
1 266
1 267
1 268
1 269
1 270
1 271
1 272
1 273
1 274
1 275
1 276
1 277
1 278
1 279
1 280
1 281
1 282
1 283
1 284
1 285
1 286
1 287
1 288
1 289
1 290
1 291
1 292
1 293
1 294
1 295
1 296
1 297
1 298
1 299
1 300
1 301

CELL_TYPES 200
9
9
9
9
9
9
9
9
9
9
9
9
9
9
9
9
9
9
9
9
9
9
9
9
9
9
9
9
9
9
9
9
9
9
9
9
9
9
9
9
9
9
9
9
9
9
9
9
9
9
9
9
9
9
9
9
9
9
9
9
9
9
9
9
9
9
9
9
9
9
9
9
9
9
9
9
9
9
9
9
9
9
9
9
9
9
9
9
9
9
9
9
9
9
9
9
9
9
9
9
1
1
1
1
1
1
1
1
1
1
1
1
1
1
1
1
1
1
1
1
1
1
1
1
1
1
1
1
1
1
1
1
1
1
1
1
1
1
1
1
1
1
1
1
1
1
1
1
1
1
1
1
1
1
1
1
1
1
1
1
1
1
1
1
1
1
1
1
1
1
1
1
1
1
1
1
1
1
1
1
1
1
1
1
1
1
1
1
1
1
1
1
1
1
1
1
1
1
1
1

CELL_DATA 200

VECTORS Vinf float
49.5308661063894 0.03340227378081264 4.288172724999263
49.533377429115816 0.034187953909665954 4.25310189683222
49.536183786935084 0.034913445364804827 4.213613932068684
49.53922144561869 0.03550583864696808 4.170470140638086
49.54277618526979 0.03523913746465966 4.126707616543084
49.54606990218558 0.03578794223869595 4.078720376650625
49.54939152621893 0.03612757248635928 4.02955946325808
49.55267666633211 0.03623985032317339 3.9800307699746114
49.55586997127393 0.036121638572558255 3.9308451275856235
49.55892717082472 0.035782402858121586 3.8825983963318125
49.561815490465 0.035240449117020074 3.8357712599842704
49.56451273710165 0.034518894925939875 3.790742994573441
49.56700559718779 0.033642297296289536 3.7478104072858156
49.56928767338162 0.03263444073377451 3.7072042525535602
49.571357630799476 0.03151735188256479 3.669099295270917
49.5729730893481 0.03171025019513278 3.6370930606664444
49.57469171154111 0.029769609368898765 3.603249529304747
49.57631148885808 0.026784331046684373 3.5703036041409875
49.57759968419532 0.02635257781452309 3.5433830861824953
49.57869529882227 0.024984304955701274 3.518625807776874
49.57963378329009 0.02362248425579483 3.4963933948369426
49.58043389427449 0.02228077629424955 3.476567489324191
49.581113499748945 0.020967211854302503 3.45901816800396
49.58168692109806 0.019684733865263537 3.443610224871274
49.582029513399185 0.018342510805779855 3.4310627633628297
49.58248190165849 0.017088356513049695 3.4190177671770776
49.58285581021278 0.016033659195171416 3.408877764524544
49.58308545054385 0.014891736563520526 3.4007103020674125
49.583250471740314 0.01379176013509941 3.3940848957609764
49.58336062288017 0.012731179254724018 3.38894999734728
49.58342323870687 0.011703515799231503 3.38528237686967
49.58330304285612 0.010215093486670065 3.383716617945878
49.58342294203906 0.009715263392277964 3.3822979792829564
49.58336727849252 0.008740734344674522 3.382909988970323
49.58328026427899 0.007769536132503991 3.3848208463464493
49.583162091020114 0.006789849829896038 3.3879418390268854
49.58293260842546 0.005650034472792956 3.3929414556406563
49.58269496517672 0.004572342766506454 3.3981576709698413
49.58241953315211 0.003678649713957321 3.4048007314220223
49.58193437714479 0.002605527875011706 3.4135539330293874
49.58129634215388 0.0015520851338308144 3.4244669100632197
49.58045143523414 0.00048321449012029834 3.438490268663098
49.57940731379583 -0.0005769596746216218 3.45561188504764
49.578222743040506 -0.0013610183282930669 3.47615723712036
49.57670458869745 -0.002118438919797666 3.5017168235280427
49.574967476062504 -0.0025940873429127626 3.530678962570142
49.57318724389875 -0.0025319437726896315 3.559162335751356
49.571942289168554 -0.001982538151906053 3.5780749558441363
49.57151865312403 -0.0009967371585196812 3.5826361509403366
49.57178116329963 -0.00019795664852930646 3.5761446917031026
49.571781651664665 0.00023923346726840799 3.576148438737608
49.57151950247265 0.001041654779953888 3.582658300856292
49.57194356728661 0.0020343520787761645 3.578131206983283
49.57319264801545 0.0025923757994232985 3.559259721578792
49.57498329297045 0.002660758547875902 3.5308039396605495
49.57673264551179 0.002182108252567928 3.501834165902299
49.57825678768749 0.0014173705359898073 3.476221875389261
49.57944096463977 0.0006290626158916697 3.4555989310375064
49.580487832271324 -0.0004326818989936378 3.438411177129221
49.58133829174541 -0.001507943052413217 3.424355436689973
49.58197695881644 -0.0025708767446125124 3.413436858323707
49.58245725907349 -0.003650336959408457 3.4046849541860884
49.582726350735015 -0.004546825555573472 3.3980406299707866
49.5829596816421 -0.005624289107902544 3.392819818471081
49.58318692206613 -0.006762891733481364 3.3878119859041136
49.58330377173018 -0.007741299790219262 3.3846847658282746
49.58339030583468 -0.00871108834578994 3.382768487979191
49.58344606685311 -0.009684166514338071 3.3821517775679606
49.583326468766195 -0.010182562211609217 3.3835664103116083
49.583447708759785 -0.011669526813508647 3.3851279760145916
49.58338618598149 -0.012695777750634888 3.388791622992193
49.583277355124714 -0.013754986838054348 3.3939223980192614
49.583113856795265 -0.014853652945188145 3.400543423647691
49.58288591753373 -0.015994352026201406 3.4087061752486187
49.582513573591854 -0.017046626578252618 3.4188430669975425
49.582063114345004 -0.018299533954983172 3.430882503580847
49.581722893487246 -0.019642493145276975 3.443422427210672
49.581151567778626 -0.020924265675937352 3.4588245942806024
49.580474082609584 -0.02223725431794434 3.47636818522188
49.57967610314033 -0.023578517202689067 3.496188398367443
49.57873975174638 -0.024940036897307543 3.518414984784406
49.5776462564787 -0.02630817242081158 3.5431660425661486
49.57635955292047 -0.02673650118023774 3.5700838331578337
49.57474185835249 -0.029721736311585815 3.603021686620169
49.57302515259008 -0.031662528852176346 3.636856602052395
49.57141197198461 -0.03147405864682821 3.668850193102868
49.56934365268444 -0.032591715720796194 3.7069454362627776
49.56706307595515 -0.033600179966123495 3.747541501479521
49.564571586154514 -0.03447739066923731 3.7904638109191873
49.56187559608981 -0.03519953782108317 3.8354817688468756
49.55898843726562 -0.035742048043684985 3.8822986904278176
49.55593232011244 -0.03608179553306984 3.930535392082006
49.55274003349533 -0.03620047237308453 3.9797112657161495
49.54945585753349 -0.036088615020040425 4.029230522496646
49.546135148389624 -0.035749364735712774 4.078382406602547
49.542842297249365 -0.03520090384071618 4.126361105369442
49.5392844219984 -0.03545912601884088 4.170155187313481
49.53624743214309 -0.03486684270121077 4.213290991990127
49.5334416876551 -0.03414144828200678 4.252771801100884
49.530930912349675 -0.03335585339977183 4.287836376652087
49.5308661063894 0.03340227378081264 4.288172724999263
49.533377429115816 0.034187953909665954 4.25310189683222
49.536183786935084 0.034913445364804827 4.213613932068684
49.53922144561869 0.03550583864696808 4.170470140638086
49.54277618526979 0.03523913746465966 4.126707616543084
49.54606990218558 0.03578794223869595 4.078720376650625
49.54939152621893 0.03612757248635928 4.02955946325808
49.55267666633211 0.03623985032317339 3.9800307699746114
49.55586997127393 0.036121638572558255 3.9308451275856235
49.55892717082472 0.035782402858121586 3.8825983963318125
49.561815490465 0.035240449117020074 3.8357712599842704
49.56451273710165 0.034518894925939875 3.790742994573441
49.56700559718779 0.033642297296289536 3.7478104072858156
49.56928767338162 0.03263444073377451 3.7072042525535602
49.571357630799476 0.03151735188256479 3.669099295270917
49.5729730893481 0.03171025019513278 3.6370930606664444
49.57469171154111 0.029769609368898765 3.603249529304747
49.57631148885808 0.026784331046684373 3.5703036041409875
49.57759968419532 0.02635257781452309 3.5433830861824953
49.57869529882227 0.024984304955701274 3.518625807776874
49.57963378329009 0.02362248425579483 3.4963933948369426
49.58043389427449 0.02228077629424955 3.476567489324191
49.581113499748945 0.020967211854302503 3.45901816800396
49.58168692109806 0.019684733865263537 3.443610224871274
49.582029513399185 0.018342510805779855 3.4310627633628297
49.58248190165849 0.017088356513049695 3.4190177671770776
49.58285581021278 0.016033659195171416 3.408877764524544
49.58308545054385 0.014891736563520526 3.4007103020674125
49.583250471740314 0.01379176013509941 3.3940848957609764
49.58336062288017 0.012731179254724018 3.38894999734728
49.58342323870687 0.011703515799231503 3.38528237686967
49.58330304285612 0.010215093486670065 3.383716617945878
49.58342294203906 0.009715263392277964 3.3822979792829564
49.58336727849252 0.008740734344674522 3.382909988970323
49.58328026427899 0.007769536132503991 3.3848208463464493
49.583162091020114 0.006789849829896038 3.3879418390268854
49.58293260842546 0.005650034472792956 3.3929414556406563
49.58269496517672 0.004572342766506454 3.3981576709698413
49.58241953315211 0.003678649713957321 3.4048007314220223
49.58193437714479 0.002605527875011706 3.4135539330293874
49.58129634215388 0.0015520851338308144 3.4244669100632197
49.58045143523414 0.00048321449012029834 3.438490268663098
49.57940731379583 -0.0005769596746216218 3.45561188504764
49.578222743040506 -0.0013610183282930669 3.47615723712036
49.57670458869745 -0.002118438919797666 3.5017168235280427
49.574967476062504 -0.0025940873429127626 3.530678962570142
49.57318724389875 -0.0025319437726896315 3.559162335751356
49.571942289168554 -0.001982538151906053 3.5780749558441363
49.57151865312403 -0.0009967371585196812 3.5826361509403366
49.57178116329963 -0.00019795664852930646 3.5761446917031026
49.571781651664665 0.00023923346726840799 3.576148438737608
49.57151950247265 0.001041654779953888 3.582658300856292
49.57194356728661 0.0020343520787761645 3.578131206983283
49.57319264801545 0.0025923757994232985 3.559259721578792
49.57498329297045 0.002660758547875902 3.5308039396605495
49.57673264551179 0.002182108252567928 3.501834165902299
49.57825678768749 0.0014173705359898073 3.476221875389261
49.57944096463977 0.0006290626158916697 3.4555989310375064
49.580487832271324 -0.0004326818989936378 3.438411177129221
49.58133829174541 -0.001507943052413217 3.424355436689973
49.58197695881644 -0.0025708767446125124 3.413436858323707
49.58245725907349 -0.003650336959408457 3.4046849541860884
49.582726350735015 -0.004546825555573472 3.3980406299707866
49.5829596816421 -0.005624289107902544 3.392819818471081
49.58318692206613 -0.006762891733481364 3.3878119859041136
49.58330377173018 -0.007741299790219262 3.3846847658282746
49.58339030583468 -0.00871108834578994 3.382768487979191
49.58344606685311 -0.009684166514338071 3.3821517775679606
49.583326468766195 -0.010182562211609217 3.3835664103116083
49.583447708759785 -0.011669526813508647 3.3851279760145916
49.58338618598149 -0.012695777750634888 3.388791622992193
49.583277355124714 -0.013754986838054348 3.3939223980192614
49.583113856795265 -0.014853652945188145 3.400543423647691
49.58288591753373 -0.015994352026201406 3.4087061752486187
49.582513573591854 -0.017046626578252618 3.4188430669975425
49.582063114345004 -0.018299533954983172 3.430882503580847
49.581722893487246 -0.019642493145276975 3.443422427210672
49.581151567778626 -0.020924265675937352 3.4588245942806024
49.580474082609584 -0.02223725431794434 3.47636818522188
49.57967610314033 -0.023578517202689067 3.496188398367443
49.57873975174638 -0.024940036897307543 3.518414984784406
49.5776462564787 -0.02630817242081158 3.5431660425661486
49.57635955292047 -0.02673650118023774 3.5700838331578337
49.57474185835249 -0.029721736311585815 3.603021686620169
49.57302515259008 -0.031662528852176346 3.636856602052395
49.57141197198461 -0.03147405864682821 3.668850193102868
49.56934365268444 -0.032591715720796194 3.7069454362627776
49.56706307595515 -0.033600179966123495 3.747541501479521
49.564571586154514 -0.03447739066923731 3.7904638109191873
49.56187559608981 -0.03519953782108317 3.8354817688468756
49.55898843726562 -0.035742048043684985 3.8822986904278176
49.55593232011244 -0.03608179553306984 3.930535392082006
49.55274003349533 -0.03620047237308453 3.9797112657161495
49.54945585753349 -0.036088615020040425 4.029230522496646
49.546135148389624 -0.035749364735712774 4.078382406602547
49.542842297249365 -0.03520090384071618 4.126361105369442
49.5392844219984 -0.03545912601884088 4.170155187313481
49.53624743214309 -0.03486684270121077 4.213290991990127
49.5334416876551 -0.03414144828200678 4.252771801100884
49.530930912349675 -0.03335585339977183 4.287836376652087

VECTORS L float
-0.006627224109913535 0.0 0.0902456205620346
-0.011957383515674143 0.0 0.16282858068071807
-0.01766879993930197 0.0 0.24060327350685431
-0.0239534894057789 0.0 0.32618445976755145
-0.030853844676540693 0.0 0.4201494190295868
-0.03837107813962173 0.0 0.5225146608765675
-0.046490374804576 0.0 0.6330784435257732
-0.055187751964585724 0.0 0.7515141846519904
-0.06443284043248948 0.0 0.8774083346157477
-0.07419012047625019 0.0 1.010277206701957
-0.08441960393384797 0.0 1.1495762657573212
-0.09507736978934912 0.0 1.2947074213486647
-0.10611616073076603 0.0 1.4450271513352415
-0.11748618126072784 0.0 1.5998573700680834
-0.1291362168298889 0.0 1.7585006680872344
-0.14101576465722787 0.0 1.920269328373051
-0.15306751622601575 0.0 2.084382957419908
-0.16524129367357868 0.0 2.250158262754158
-0.17749710718664596 0.0 2.417050686736747
-0.18978965879444212 0.0 2.584443388377385
-0.20207813289746016 0.0 2.7517805649681772
-0.2143263272679557 0.0 2.918569235970916
-0.22650173209526805 0.0 3.0843667020006453
-0.23857552549867636 0.0 3.248780483722387
-0.25052291584808534 0.0 3.4114729833718886
-0.26231713751503266 0.0 3.5720797224419725
-0.2739407280730904 0.0 3.7303629079316227
-0.2853770938318234 0.0 3.8860965767730606
-0.29660979570606333 0.0 4.039056871221641
-0.30762424496568164 0.0 4.189045130573907
-0.3184067902059287 0.0 4.335875458069351
-0.3289447416059256 0.0 4.479375051228225
-0.33921742489449613 0.0 4.619262380046262
-0.349213964146475 0.0 4.755389342603341
-0.3589147654538825 0.0 4.887489120642598
-0.3682977126766995 0.0 5.01526054964215
-0.3773387369823862 0.0 5.138375874467611
-0.3860036082164372 0.0 5.256368969108447
-0.3942605044215284 0.0 5.368806500959846
-0.40207408619403634 0.0 5.475207238912464
-0.40939690506784815 0.0 5.57492505780167
-0.41617407965099956 0.0 5.667212615272201
-0.42233328810030746 0.0 5.751085075213196
-0.4277878484360799 0.0 5.825362053663118
-0.4324420819092005 0.0 5.888740653972416
-0.436168058089915 0.0 5.939478795168659
-0.43882977931341766 0.0 5.975724541441041
-0.4403258157878985 0.0 5.996096681840067
-0.44069332572717596 0.0 6.001101214957211
-0.4388913727263191 0.0 5.976563284129932
-0.4388911823524818 0.0 5.976560691731545
-0.4406933828840016 0.0 6.001101993285078
-0.4403261388092901 0.0 5.996101080554438
-0.4388301991799591 0.0 5.9757302589354175
-0.43616816585653895 0.0 5.939480262670843
-0.4324412454489229 0.0 5.88872926355079
-0.42778543619782433 0.0 5.8253292052284324
-0.422328944426058 0.0 5.751025925624822
-0.4161678579354953 0.0 5.667127891628135
-0.4093891015747254 0.0 5.574818794444985
-0.40206504096163015 0.0 5.4750840662842135
-0.39425046256162616 0.0 5.3686697568474635
-0.3859927401236326 0.0 5.256220973844788
-0.3773271721441956 0.0 5.1382183913371335
-0.36828557019280395 0.0 5.015095200473909
-0.358902170826888 0.0 4.887317614456898
-0.34920103237385747 0.0 4.755213245367835
-0.33920426072742904 0.0 4.6190831182005105