# vtk DataFile Version 4.0
[MyVLM domain - lattices] 
ASCII
DATASET UNSTRUCTURED_GRID
POINTS 302 float
1.2444999999999997 -1.2445 0.0
1.2399745454545452 -1.2399745454545454 0.0
1.2346178849721705 -1.2346178849721707 0.0
1.2284300185528754 -1.2284300185528756 0.0
1.2214109461966602 -1.2214109461966605 0.0
1.2135606679035247 -1.213560667903525 0.0
1.2048791836734691 -1.2048791836734694 0.0
1.1953664935064932 -1.1953664935064934 0.0
1.1850225974025972 -1.1850225974025974 0.0
1.1738474953617808 -1.173847495361781 0.0
1.1618411873840442 -1.1618411873840444 0.0
1.1490036734693874 -1.1490036734693876 0.0
1.1353349536178106 -1.1353349536178108 0.0
1.1208350278293133 -1.1208350278293135 0.0
1.1055038961038959 -1.105503896103896 0.0
1.0893415584415582 -1.0893415584415584 0.0
1.0723480148423004 -1.0723480148423006 0.0
1.054523265306122 -1.0545232653061223 0.0
1.0358673098330238 -1.035867309833024 0.0
1.0163801484230053 -1.0163801484230055 0.0
0.9960617810760664 -0.9960617810760668 0.0
0.9749122077922076 -0.9749122077922077 0.0
0.9529314285714284 -0.9529314285714284 0.0
0.9301194434137288 -0.930119443413729 0.0
0.9064762523191091 -0.9064762523191096 0.0
0.8820018552875695 -0.8820018552875695 0.0
0.8566962523191093 -0.8566962523191094 0.0
0.8305594434137288 -0.8305594434137291 0.0
0.8035914285714284 -0.8035914285714285 0.0
0.7757922077922076 -0.7757922077922077 0.0
0.7471617810760666 -0.7471617810760667 0.0
0.7177001484230053 -0.7177001484230054 0.0
0.6874073098330239 -0.687407309833024 0.0
0.6562832653061222 -0.6562832653061225 0.0
0.6243280148423004 -0.6243280148423005 0.0
0.5915415584415582 -0.5915415584415583 0.0
0.5579238961038958 -0.5579238961038959 0.0
0.5234750278293133 -0.5234750278293134 0.0
0.48819495361781057 -0.48819495361781057 0.0
0.4520836734693877 -0.4520836734693877 0.0
0.4151411873840445 -0.4151411873840446 0.0
0.37736749536178105 -0.37736749536178116 0.0
0.3387625974025974 -0.3387625974025974 0.0
0.2993264935064933 -0.29932649350649343 0.0
0.25905918367346925 -0.25905918367346925 0.0
0.21796066790352486 -0.21796066790352486 0.0
0.17603094619666027 -0.1760309461966605 0.0
0.13327001855287546 -0.13327001855287568 0.0
0.08967788497217066 -0.08967788497217066 0.0
0.045254545454545436 -0.045254545454545436 0.0
0.0 0.0 0.0
0.04525454545454545 0.04525454545454546 0.0
0.08967788497217066 0.08967788497217068 0.0
0.13327001855287568 0.1332700185528757 0.0
0.17603094619666046 0.1760309461966605 0.0
0.21796066790352497 0.21796066790352508 0.0
0.2590591836734693 0.25905918367346936 0.0
0.29932649350649343 0.2993264935064935 0.0
0.3387625974025973 0.33876259740259734 0.0
0.37736749536178094 0.377367495361781 0.0
0.41514118738404443 0.4151411873840445 0.0
0.45208367346938766 0.4520836734693878 0.0
0.48819495361781057 0.4881949536178107 0.0
0.5234750278293133 0.5234750278293134 0.0
0.5579238961038959 0.557923896103896 0.0
0.5915415584415582 0.5915415584415583 0.0
0.6243280148423003 0.6243280148423004 0.0
0.6562832653061222 0.6562832653061225 0.0
0.687407309833024 0.6874073098330241 0.0
0.7177001484230054 0.7177001484230056 0.0
0.7471617810760667 0.7471617810760669 0.0
0.7757922077922076 0.7757922077922077 0.0
0.8035914285714284 0.8035914285714285 0.0
0.8305594434137288 0.830559443413729 0.0
0.8566962523191093 0.8566962523191094 0.0
0.8820018552875692 0.8820018552875695 0.0
0.9064762523191091 0.9064762523191093 0.0
0.9301194434137288 0.9301194434137292 0.0
0.9529314285714284 0.9529314285714284 0.0
0.9749122077922076 0.9749122077922077 0.0
0.9960617810760666 0.9960617810760668 0.0
1.0163801484230053 1.0163801484230055 0.0
1.0358673098330238 1.035867309833024 0.0
1.054523265306122 1.0545232653061223 0.0
1.0723480148423001 1.0723480148423004 0.0
1.0893415584415582 1.0893415584415584 0.0
1.1055038961038959 1.105503896103896 0.0
1.120835027829313 1.1208350278293133 0.0
1.1353349536178106 1.1353349536178106 0.0
1.1490036734693874 1.1490036734693876 0.0
1.1618411873840444 1.1618411873840446 0.0
1.1738474953617808 1.173847495361781 0.0
1.1850225974025972 1.1850225974025972 0.0
1.1953664935064932 1.1953664935064934 0.0
1.2048791836734691 1.2048791836734694 0.0
1.2135606679035245 1.2135606679035247 0.0
1.22141094619666 1.2214109461966602 0.0
1.2284300185528754 1.2284300185528756 0.0
1.2346178849721703 1.2346178849721705 0.0
1.2399745454545452 1.2399745454545454 0.0
1.2444999999999997 1.2445 0.0
1.7422999999999997 -1.2445 0.0
1.7377745454545452 -1.2399745454545454 0.0
1.7324178849721703 -1.2346178849721707 0.0
1.7262300185528754 -1.2284300185528756 0.0
1.7192109461966603 -1.2214109461966605 0.0
1.7113606679035245 -1.213560667903525 0.0
1.7026791836734692 -1.2048791836734694 0.0
1.6931664935064934 -1.1953664935064934 0.0
1.6828225974025972 -1.1850225974025974 0.0
1.6716474953617806 -1.173847495361781 0.0
1.6596411873840444 -1.1618411873840444 0.0
1.6468036734693878 -1.1490036734693876 0.0
1.6331349536178106 -1.1353349536178108 0.0
1.6186350278293133 -1.1208350278293135 0.0
1.603303896103896 -1.105503896103896 0.0
1.5871415584415582 -1.0893415584415584 0.0
1.5701480148423004 -1.0723480148423006 0.0
1.552323265306122 -1.0545232653061223 0.0
1.5336673098330238 -1.035867309833024 0.0
1.5141801484230053 -1.0163801484230055 0.0
1.4938617810760666 -0.9960617810760668 0.0
1.4727122077922075 -0.9749122077922077 0.0
1.4507314285714283 -0.9529314285714284 0.0
1.4279194434137288 -0.930119443413729 0.0
1.4042762523191092 -0.9064762523191096 0.0
1.3798018552875693 -0.8820018552875695 0.0
1.3544962523191093 -0.8566962523191094 0.0
1.328359443413729 -0.8305594434137291 0.0
1.3013914285714283 -0.8035914285714285 0.0
1.2735922077922077 -0.7757922077922077 0.0
1.2449617810760665 -0.7471617810760667 0.0
1.2155001484230055 -0.7177001484230054 0.0
1.1852073098330238 -0.687407309833024 0.0
1.1540832653061224 -0.6562832653061225 0.0
1.1221280148423003 -0.6243280148423005 0.0
1.0893415584415582 -0.5915415584415583 0.0
1.055723896103896 -0.5579238961038959 0.0
1.0212750278293132 -0.5234750278293134 0.0
0.9859949536178108 -0.48819495361781057 0.0
0.9498836734693876 -0.4520836734693877 0.0
0.9129411873840445 -0.4151411873840446 0.0
0.875167495361781 -0.37736749536178116 0.0
0.8365625974025973 -0.3387625974025974 0.0
0.7971264935064933 -0.29932649350649343 0.0
0.7568591836734693 -0.25905918367346925 0.0
0.7157606679035249 -0.21796066790352486 0.0
0.6738309461966603 -0.1760309461966605 0.0
0.6310700185528755 -0.13327001855287568 0.0
0.5874778849721707 -0.08967788497217066 0.0
0.5430545454545455 -0.045254545454545436 0.0
0.4978 0.0 0.0
0.5430545454545455 0.04525454545454546 0.0
0.5874778849721707 0.08967788497217068 0.0
0.6310700185528757 0.1332700185528757 0.0
0.6738309461966605 0.1760309461966605 0.0
0.715760667903525 0.21796066790352508 0.0
0.7568591836734693 0.25905918367346936 0.0
0.7971264935064934 0.2993264935064935 0.0
0.8365625974025973 0.33876259740259734 0.0
0.875167495361781 0.377367495361781 0.0
0.9129411873840445 0.4151411873840445 0.0
0.9498836734693876 0.4520836734693878 0.0
0.9859949536178105 0.4881949536178107 0.0
1.0212750278293132 0.5234750278293134 0.0
1.055723896103896 0.557923896103896 0.0
1.0893415584415582 0.5915415584415583 0.0
1.1221280148423003 0.6243280148423004 0.0
1.1540832653061224 0.6562832653061225 0.0
1.185207309833024 0.6874073098330241 0.0
1.2155001484230055 0.7177001484230056 0.0
1.2449617810760667 0.7471617810760669 0.0
1.2735922077922077 0.7757922077922077 0.0
1.3013914285714283 0.8035914285714285 0.0
1.3283594434137287 0.830559443413729 0.0
1.3544962523191093 0.8566962523191094 0.0
1.3798018552875693 0.8820018552875695 0.0
1.4042762523191092 0.9064762523191093 0.0
1.427919443413729 0.9301194434137292 0.0
1.4507314285714283 0.9529314285714284 0.0
1.4727122077922075 0.9749122077922077 0.0
1.4938617810760666 0.9960617810760668 0.0
1.5141801484230053 1.0163801484230055 0.0
1.5336673098330238 1.035867309833024 0.0
1.552323265306122 1.0545232653061223 0.0
1.5701480148423002 1.0723480148423004 0.0
1.5871415584415582 1.0893415584415584 0.0
1.603303896103896 1.105503896103896 0.0
1.6186350278293131 1.1208350278293133 0.0
1.6331349536178106 1.1353349536178106 0.0
1.6468036734693874 1.1490036734693876 0.0
1.6596411873840444 1.1618411873840446 0.0
1.6716474953617806 1.173847495361781 0.0
1.6828225974025972 1.1850225974025972 0.0
1.6931664935064934 1.1953664935064934 0.0
1.7026791836734692 1.2048791836734694 0.0
1.7113606679035245 1.2135606679035247 0.0
1.71921094619666 1.2214109461966602 0.0
1.7262300185528754 1.2284300185528756 0.0
1.7324178849721703 1.2346178849721705 0.0
1.7377745454545452 1.2399745454545454 0.0
1.7422999999999997 1.2445 0.0
1.6155872727272724 -1.2422372727272726 0.0
1.6106462152133578 -1.237296215213358 0.0
1.604873951762523 -1.2315239517625232 0.0
1.598270482374768 -1.224920482374768 0.0
1.5908358070500925 -1.2174858070500927 0.0
1.582569925788497 -1.2092199257884972 0.0
1.5734728385899812 -1.2001228385899814 0.0
1.5635445454545454 -1.1901945454545453 0.0
1.552785046382189 -1.1794350463821892 0.0
1.5411943413729126 -1.1678443413729127 0.0
1.5287724304267158 -1.155422430426716 0.0
1.5155193135435991 -1.142169313543599 0.0
1.501434990723562 -1.1280849907235622 0.0
1.4865194619666047 -1.1131694619666048 0.0
1.4707727272727271 -1.0974227272727273 0.0
1.4541947866419294 -1.0808447866419293 0.0
1.4367856400742112 -1.0634356400742113 0.0
1.418545287569573 -1.0451952875695731 0.0
1.3994737291280146 -1.0261237291280147 0.0
1.379570964749536 -1.0062209647495362 0.0
1.358836994434137 -0.9854869944341371 0.0
1.337271818181818 -0.9639218181818181 0.0
1.3148754359925787 -0.9415254359925787 0.0
1.291647847866419 -0.9182978478664192 0.0
1.2675890538033394 -0.8942390538033393 0.0
1.2426990538033393 -0.8693490538033395 0.0
1.2169778478664193 -0.8436278478664192 0.0
1.1904254359925788 -0.8170754359925788 0.0
1.163041818181818 -0.7896918181818181 0.0
1.1348269944341371 -0.7614769944341371 0.0
1.105780964749536 -0.7324309647495362 0.0
1.0759037291280147 -0.7025537291280148 0.0
1.0451952875695731 -0.6718452875695733 0.0
1.0136556400742114 -0.6403056400742114 0.0
0.9812847866419293 -0.6079347866419293 0.0
0.9480827272727271 -0.5747327272727272 0.0
0.9140494619666047 -0.5406994619666048 0.0
0.8791849907235622 -0.5058349907235622 0.0
0.8434893135435992 -0.47013931354359917 0.0
0.8069624304267162 -0.43361243042671627 0.0
0.7696043413729128 -0.3962543413729128 0.0
0.7314150463821893 -0.3580650463821894 0.0
0.6923945454545455 -0.3190445454545454 0.0
0.6525428385899814 -0.27919283858998134 0.0
0.6118599257884971 -0.23850992578849706 0.0
0.5703458070500929 -0.19699580705009279 0.0
0.5280004823747682 -0.15465048237476808 0.0
0.4848239517625232 -0.11147395176252317 0.0
0.4408162152133581 -0.06746621521335805 0.0
0.39597727272727273 -0.022627272727272718 0.0
0.39597727272727273 0.02262727272727273 0.0
0.4408162152133581 0.06746621521335806 0.0
0.4848239517625232 0.11147395176252319 0.0
0.528000482374768 0.15465048237476808 0.0
0.5703458070500929 0.19699580705009276 0.0
0.6118599257884971 0.23850992578849717 0.0
0.6525428385899814 0.2791928385899814 0.0
0.6923945454545455 0.3190445454545454 0.0
0.7314150463821891 0.3580650463821891 0.0
0.7696043413729128 0.39625434137291277 0.0
0.8069624304267162 0.43361243042671616 0.0
0.8434893135435992 0.4701393135435992 0.0
0.8791849907235619 0.5058349907235621 0.0
0.9140494619666046 0.5406994619666047 0.0
0.9480827272727271 0.5747327272727272 0.0
0.9812847866419294 0.6079347866419295 0.0
1.0136556400742114 0.6403056400742114 0.0
1.0451952875695731 0.6718452875695732 0.0
1.0759037291280147 0.7025537291280147 0.0
1.105780964749536 0.7324309647495362 0.0
1.1348269944341371 0.7614769944341373 0.0
1.163041818181818 0.789691818181818 0.0
1.1904254359925786 0.8170754359925786 0.0
1.216977847866419 0.843627847866419 0.0
1.2426990538033393 0.8693490538033394 0.0
1.2675890538033392 0.8942390538033393 0.0
1.291647847866419 0.9182978478664192 0.0
1.3148754359925787 0.9415254359925787 0.0
1.3372718181818182 0.9639218181818181 0.0
1.3588369944341372 0.9854869944341373 0.0
1.379570964749536 1.0062209647495362 0.0
1.3994737291280148 1.0261237291280147 0.0
1.418545287569573 1.0451952875695731 0.0
1.4367856400742112 1.0634356400742113 0.0
1.4541947866419291 1.0808447866419293 0.0
1.470772727272727 1.097422727272727 0.0
1.4865194619666047 1.1131694619666048 0.0
1.501434990723562 1.128084990723562 0.0
1.5155193135435991 1.1421693135435993 0.0
1.528772430426716 1.1554224304267162 0.0
1.5411943413729128 1.1678443413729127 0.0
1.5527850463821888 1.179435046382189 0.0
1.5635445454545451 1.1901945454545453 0.0
1.573472838589981 1.2001228385899811 0.0
1.5825699257884969 1.209219925788497 0.0
1.5908358070500925 1.2174858070500927 0.0
1.5982704823747678 1.224920482374768 0.0
1.604873951762523 1.2315239517625232 0.0
1.6106462152133578 1.237296215213358 0.0
1.6155872727272724 1.2422372727272726 0.0

CELLS 200 700
4 0 101 102 1
4 1 102 103 2
4 2 103 104 3
4 3 104 105 4
4 4 105 106 5
4 5 106 107 6
4 6 107 108 7
4 7 108 109 8
4 8 109 110 9
4 9 110 111 10
4 10 111 112 11
4 11 112 113 12
4 12 113 114 13
4 13 114 115 14
4 14 115 116 15
4 15 116 117 16
4 16 117 118 17
4 17 118 119 18
4 18 119 120 19
4 19 120 121 20
4 20 121 122 21
4 21 122 123 22
4 22 123 124 23
4 23 124 125 24
4 24 125 126 25
4 25 126 127 26
4 26 127 128 27
4 27 128 129 28
4 28 129 130 29
4 29 130 131 30
4 30 131 132 31
4 31 132 133 32
4 32 133 134 33
4 33 134 135 34
4 34 135 136 35
4 35 136 137 36
4 36 137 138 37
4 37 138 139 38
4 38 139 140 39
4 39 140 141 40
4 40 141 142 41
4 41 142 143 42
4 42 143 144 43
4 43 144 145 44
4 44 145 146 45
4 45 146 147 46
4 46 147 148 47
4 47 148 149 48
4 48 149 150 49
4 49 150 151 50
4 50 151 152 51
4 51 152 153 52
4 52 153 154 53
4 53 154 155 54
4 54 155 156 55
4 55 156 157 56
4 56 157 158 57
4 57 158 159 58
4 58 159 160 59
4 59 160 161 60
4 60 161 162 61
4 61 162 163 62
4 62 163 164 63
4 63 164 165 64
4 64 165 166 65
4 65 166 167 66
4 66 167 168 67
4 67 168 169 68
4 68 169 170 69
4 69 170 171 70
4 70 171 172 71
4 71 172 173 72
4 72 173 174 73
4 73 174 175 74
4 74 175 176 75
4 75 176 177 76
4 76 177 178 77
4 77 178 179 78
4 78 179 180 79
4 79 180 181 80
4 80 181 182 81
4 81 182 183 82
4 82 183 184 83
4 83 184 185 84
4 84 185 186 85
4 85 186 187 86
4 86 187 188 87
4 87 188 189 88
4 88 189 190 89
4 89 190 191 90
4 90 191 192 91
4 91 192 193 92
4 92 193 194 93
4 93 194 195 94
4 94 195 196 95
4 95 196 197 96
4 96 197 198 97
4 97 198 199 98
4 98 199 200 99
4 99 200 201 100
1 202
1 203
1 204
1 205
1 206
1 207
1 208
1 209
1 210
1 211
1 212
1 213
1 214
1 215
1 216
1 217
1 218
1 219
1 220
1 221
1 222
1 223
1 224
1 225
1 226
1 227
1 228
1 229
1 230
1 231
1 232
1 233
1 234
1 235
1 236
1 237
1 238
1 239
1 240
1 241
1 242
1 243
1 244
1 245
1 246
1 247
1 248
1 249
1 250
1 251
1 252
1 253
1 254
1 255
1 256
1 257
1 258
1 259
1 260
1 261
1 262
1 263
1 264
1 265
1 266
1 267
1 268
1 269
1 270
1 271
1 272
1 273
1 274
1 275
1 276
1 277
1 278
1 279
1 280
1 281
1 282
1 283
1 284
1 285
1 286
1 287
1 288
1 289
1 290
1 291
1 292
1 293
1 294
1 295
1 296
1 297
1 298
1 299
1 300
1 301

CELL_TYPES 200
9
9
9
9
9
9
9
9
9
9
9
9
9
9
9
9
9
9
9
9
9
9
9
9
9
9
9
9
9
9
9
9
9
9
9
9
9
9
9
9
9
9
9
9
9
9
9
9
9
9
9
9
9
9
9
9
9
9
9
9
9
9
9
9
9
9
9
9
9
9
9
9
9
9
9
9
9
9
9
9
9
9
9
9
9
9
9
9
9
9
9
9
9
9
9
9
9
9
9
9
1
1
1
1
1
1
1
1
1
1
1
1
1
1
1
1
1
1
1
1
1
1
1
1
1
1
1
1
1
1
1
1
1
1
1
1
1
1
1
1
1
1
1
1
1
1
1
1
1
1
1
1
1
1
1
1
1
1
1
1
1
1
1
1
1
1
1
1
1
1
1
1
1
1
1
1
1
1
1
1
1
1
1
1
1
1
1
1
1
1
1
1
1
1
1
1
1
1
1
1

CELL_DATA 200

VECTORS Vinf float
49.53040246151549 0.027733420580859956 4.313067681986464
49.532522840271334 0.029778590405023588 4.283214933700459
49.53528264521982 0.030756799191345323 4.243526875688129
49.53827502872584 0.03167224494974143 4.2000764260389545
49.541432754278624 0.03246897693403051 4.153687529350826
49.54468557642451 0.03310056864880036 4.105232640932178
49.547964697037884 0.03353384424120669 4.055579848768891
49.55120714106694 0.03375070069180143 4.005541302943927
49.55435918884901 0.033747620129418794 3.955833721582639
49.557378260715716 0.03353310874433368 3.907058033523213
49.56023312915557 0.033123900997940464 3.8596987533634453
49.56290281921126 0.03254104416268511 3.814137469578344
49.565374830468045 0.03180680212289323 3.7706717929427453
49.56764329036178 0.03094281408665167 3.7295321900137037
49.56970741459977 0.029969400340418506 3.690892814284178
49.5715703678707 0.02890557317217601 3.654876274308838
49.57323840799127 0.027769268153603147 3.621554676577457
49.57472011444807 0.026577491861248956 3.590950121463106
49.576025575994784 0.025346349956338263 3.563037526923282
49.57716562569924 0.024091104472112202 3.537751353656913
49.57815142350156 0.022826355463143697 3.5149957453375427
49.57887586687244 0.016800145829123342 3.4899220319089332
49.579541286097744 0.016988043629046403 3.474326085381084
49.58012122624438 0.016845730906949814 3.4599613739066446
49.58061683655871 0.016365422690849906 3.4469813576249515
49.58103283344915 0.015531869697194473 3.4354685583692897
49.58137400429028 0.014322564721195356 3.4254597114275382
49.58164272764591 0.01270967698142505 3.416968332095048
49.58183812737299 0.010662723782262656 3.4100037987062817
49.581956905673046 0.008150847553965406 3.404584317865578
49.58232664927254 0.011528658347076249 3.4003858412355608
49.58216941884162 0.008484607277949169 3.3984569557928097
49.58222133983726 0.008411848457403191 3.397564789176637
49.582220744004644 0.00800293224995019 3.3977924955882193
49.58217379767264 0.007239318431805727 3.3991489418682233
49.58208615040802 0.006093072445314885 3.4016145328231153
49.581955032257966 0.004526706791874558 3.4052127751951717
49.58176196414144 0.0024988617756843278 3.4100569809346366
49.58157527444298 0.004431819378063376 3.4177048824063525
49.58116647391133 0.0031038244647741205 3.426700023103707
49.58060891996996 0.0017803275307449282 3.4378062617569207
49.579874536903084 0.0004913521319312748 3.4515776736662773
49.57893167748875 -0.0007312715927141087 3.4686722777167227
49.57773878446904 -0.0018403391459945295 3.4897288144779437
49.57652946417891 -0.0015695506275434851 3.5150810851346552
49.57471917393258 -0.0023517594241475063 3.5437439463662153
49.57287203000231 -0.002570307953394847 3.5716141525387415
49.571493848874034 -0.0020819868843565408 3.590694492216133
49.57102594001135 -0.0011451368715097562 3.594965586780362
49.57128494098731 -0.0003575675601029618 3.5881157219456803
49.571284454858244 0.00034002341993859074 3.588108477373875
49.571025856885164 0.0011277983514681952 3.594951312818921
49.57149373049694 0.002064468976454002 3.590674877298796
49.57287145040055 0.0025523215642559625 3.5715910908209816
49.574717741552746 0.0023331224127209537 3.543719931168397
49.57652685276238 0.0015501511234492739 3.5150595067834036
49.577740316694616 0.0017985777967066308 3.489676338810406
49.578933507180565 0.000692265342763112 3.4686176212252433
49.57987667766325 -0.0005279214915595708 3.4515201936825157
49.580611289690836 -0.0018148138100617694 3.437745185319747
49.58116896653603 -0.003136793998054194 3.426634425700222
49.58157747889453 -0.004464298148255014 3.417634132186643
49.581959796308276 -0.005182725864426495 3.411301681028319
49.58217645279213 -0.006087237620287988 3.405689338519841
49.58233065711926 -0.007276158397583635 3.4017580697471663
49.5824445366709 -0.008740063657788911 3.3993680277897824
49.5825240588301 -0.010471871935243902 3.3984772786243886
49.582563451724596 -0.012458912449156583 3.399105598327339
49.58255350168936 -0.014681614503250194 3.4012758874784144
49.58248685047868 -0.017115760689828344 3.40497625587176
49.58195585047071 -0.00817869874093008 3.4045610097403496
49.5818420138397 -0.010691117256152509 3.409962846597808
49.58164990206332 -0.012739822002196194 3.4169146477847563
49.58138289344098 -0.014355098999034666 3.425398141231448
49.581042145010905 -0.015566983709219889 3.4354038090709267
49.580625636846975 -0.016403072020079734 3.446917610530631
49.580128884722825 -0.016885801259261746 3.459901946728271
49.57954737595116 -0.01703041136866952 3.474273394154023
49.57888009866024 -0.016844674695883022 3.4898777470027946
49.5781534469734 -0.022876035564586915 3.514943585806212
49.57716589982609 -0.024142162660448455 3.5377002992188187
49.576024193181325 -0.02539849008702211 3.562985292489924
49.57471724504944 -0.026630466393808647 3.590893902703312
49.57323426402731 -0.027822883290910823 3.621491601517583
49.57156516348307 -0.028959678461457774 3.6548039293369934
49.569701340248145 -0.03002387373377772 3.690809585435689
49.56763650646091 -0.03099755367570576 3.729437315357077
49.565367473753334 -0.03186172777563334 3.770565199454266
49.56289501071357 -0.03259610408991105 3.8140195381984796
49.56022497655276 -0.033179075543283955 3.85957012134197
49.55736985457504 -0.033588406597174186 3.9069194732043058
49.55435059676805 -0.033803067276251285 3.955686083648597
49.55119840426922 -0.03380632618838584 4.00538549381306
49.547955831810945 -0.03358966773573703 4.055416816069907
49.54467658006375 -0.03315659302611922 4.105063353356618
49.541423613449 -0.03252518697609221 4.153512948416482
49.538265727794766 -0.03172861085429929 4.199897473876214
49.535273172765926 -0.030813282784551223 4.243344404966088
49.53251319299518 -0.029835151876283134 4.2830297047884125
49.53041837449912 -0.027809642806571572 4.312429459604751
49.53040246151549 0.027733420580859956 4.313067681986464
49.532522840271334 0.029778590405023588 4.283214933700459
49.53528264521982 0.030756799191345323 4.243526875688129
49.53827502872584 0.03167224494974143 4.2000764260389545
49.541432754278624 0.03246897693403051 4.153687529350826
49.54468557642451 0.03310056864880036 4.105232640932178
49.547964697037884 0.03353384424120669 4.055579848768891
49.55120714106694 0.03375070069180143 4.005541302943927
49.55435918884901 0.033747620129418794 3.955833721582639
49.557378260715716 0.03353310874433368 3.907058033523213
49.56023312915557 0.033123900997940464 3.8596987533634453
49.56290281921126 0.03254104416268511 3.814137469578344
49.565374830468045 0.03180680212289323 3.7706717929427453
49.56764329036178 0.03094281408665167 3.7295321900137037
49.56970741459977 0.029969400340418506 3.690892814284178
49.5715703678707 0.02890557317217601 3.654876274308838
49.57323840799127 0.027769268153603147 3.621554676577457
49.57472011444807 0.026577491861248956 3.590950121463106
49.576025575994784 0.025346349956338263 3.563037526923282
49.57716562569924 0.024091104472112202 3.537751353656913
49.57815142350156 0.022826355463143697 3.5149957453375427
49.57887586687244 0.016800145829123342 3.4899220319089332
49.579541286097744 0.016988043629046403 3.474326085381084
49.58012122624438 0.016845730906949814 3.4599613739066446
49.58061683655871 0.016365422690849906 3.4469813576249515
49.58103283344915 0.015531869697194473 3.4354685583692897
49.58137400429028 0.014322564721195356 3.4254597114275382
49.58164272764591 0.01270967698142505 3.416968332095048
49.58183812737299 0.010662723782262656 3.4100037987062817
49.581956905673046 0.008150847553965406 3.404584317865578
49.58232664927254 0.011528658347076249 3.4003858412355608
49.58216941884162 0.008484607277949169 3.3984569557928097
49.58222133983726 0.008411848457403191 3.397564789176637
49.582220744004644 0.00800293224995019 3.3977924955882193
49.58217379767264 0.007239318431805727 3.3991489418682233
49.58208615040802 0.006093072445314885 3.4016145328231153
49.581955032257966 0.004526706791874558 3.4052127751951717
49.58176196414144 0.0024988617756843278 3.4100569809346366
49.58157527444298 0.004431819378063376 3.4177048824063525
49.58116647391133 0.0031038244647741205 3.426700023103707
49.58060891996996 0.0017803275307449282 3.4378062617569207
49.579874536903084 0.0004913521319312748 3.4515776736662773
49.57893167748875 -0.0007312715927141087 3.4686722777167227
49.57773878446904 -0.0018403391459945295 3.4897288144779437
49.57652946417891 -0.0015695506275434851 3.5150810851346552
49.57471917393258 -0.0023517594241475063 3.5437439463662153
49.57287203000231 -0.002570307953394847 3.5716141525387415
49.571493848874034 -0.0020819868843565408 3.590694492216133
49.57102594001135 -0.0011451368715097562 3.594965586780362
49.57128494098731 -0.0003575675601029618 3.5881157219456803
49.571284454858244 0.00034002341993859074 3.588108477373875
49.571025856885164 0.0011277983514681952 3.594951312818921
49.57149373049694 0.002064468976454002 3.590674877298796
49.57287145040055 0.0025523215642559625 3.5715910908209816
49.574717741552746 0.0023331224127209537 3.543719931168397
49.57652685276238 0.0015501511234492739 3.5150595067834036
49.577740316694616 0.0017985777967066308 3.489676338810406
49.578933507180565 0.000692265342763112 3.4686176212252433
49.57987667766325 -0.0005279214915595708 3.4515201936825157
49.580611289690836 -0.0018148138100617694 3.437745185319747
49.58116896653603 -0.003136793998054194 3.426634425700222
49.58157747889453 -0.004464298148255014 3.417634132186643
49.581959796308276 -0.005182725864426495 3.411301681028319
49.58217645279213 -0.006087237620287988 3.405689338519841
49.58233065711926 -0.007276158397583635 3.4017580697471663
49.5824445366709 -0.008740063657788911 3.3993680277897824
49.5825240588301 -0.010471871935243902 3.3984772786243886
49.582563451724596 -0.012458912449156583 3.399105598327339
49.58255350168936 -0.014681614503250194 3.4012758874784144
49.58248685047868 -0.017115760689828344 3.40497625587176
49.58195585047071 -0.00817869874093008 3.4045610097403496
49.5818420138397 -0.010691117256152509 3.409962846597808
49.58164990206332 -0.012739822002196194 3.4169146477847563
49.58138289344098 -0.014355098999034666 3.425398141231448
49.581042145010905 -0.015566983709219889 3.4354038090709267
49.580625636846975 -0.016403072020079734 3.446917610530631
49.580128884722825 -0.016885801259261746 3.459901946728271
49.57954737595116 -0.01703041136866952 3.474273394154023
49.57888009866024 -0.016844674695883022 3.4898777470027946
49.5781534469734 -0.022876035564586915 3.514943585806212
49.57716589982609 -0.024142162660448455 3.5377002992188187
49.576024193181325 -0.02539849008702211 3.562985292489924
49.57471724504944 -0.026630466393808647 3.590893902703312
49.57323426402731 -0.027822883290910823 3.621491601517583
49.57156516348307 -0.028959678461457774 3.6548039293369934
49.569701340248145 -0.03002387373377772 3.690809585435689
49.56763650646091 -0.03099755367570576 3.729437315357077
49.565367473753334 -0.03186172777563334 3.770565199454266
49.56289501071357 -0.03259610408991105 3.8140195381984796
49.56022497655276 -0.033179075543283955 3.85957012134197
49.55736985457504 -0.033588406597174186 3.9069194732043058
49.55435059676805 -0.033803067276251285 3.955686083648597
49.55119840426922 -0.03380632618838584 4.00538549381306
49.547955831810945 -0.03358966773573703 4.055416816069907
49.54467658006375 -0.03315659302611922 4.105063353356618
49.541423613449 -0.03252518697609221 4.153512948416482
49.538265727794766 -0.03172861085429929 4.199897473876214
49.535273172765926 -0.030813282784551223 4.243344404966088
49.53251319299518 -0.029835151876283134 4.2830297047884125
49.53041837449912 -0.027809642806571572 4.312429459604751

VECTORS L float
-0.006666888797462469 0.0 0.09078575083119181
-0.012028804179200091 0.0 0.16380114505970292
-0.01777383714746697 0.0 0.2420336081199202
-0.024094889384288692 0.0 0.328109961093059
-0.03103417664161119 0.0 0.4226050731352953
-0.038593371725532045 0.0 0.525541723531266
-0.04675743758337443 0.0 0.6367151465860535
-0.05550218847774493 0.0 0.7557959952240768
-0.06479695908239202 0.0 0.8823666871587849
-0.07460585491560803 0.0 1.0159384325555891
-0.08488848516865706 0.0 1.1559612132562207
-0.09560049479074083 0.0 1.3018310283972765
-0.10669414991690082 0.0 1.452897866421344
-0.11811909884217485 0.0 1.6084760675732528
-0.12982334603777426 0.0 1.7678575874766296
-0.14175439745156315 0.0 1.9303275931588377
-0.15386046053041513 0.0 2.0951808042460938
-0.16609154402545842 0.0 2.2617364694612005
-0.1784003137083946 0.0 2.4293500192625554
-0.1907425800265074 0.0 2.597419706441811
-0.20307714808118038 0.0 2.7653845632200036
-0.21536261207687996 0.0 2.932680749948614
-0.2275887454572686 0.0 3.0991690074283764
-0.23971420102921212 0.0 3.2642862940236084
-0.251709893566969 0.0 3.4276365443225023
-0.2635519524551565 0.0 3.588894702394749
-0.2752200532914327 0.0 3.747784002543054
-0.28669659792045743 0.0 3.904064803490306
-0.29796604339939575 0.0 4.057525450628444
-0.3090141700736692 0.0 4.2079723091066885
-0.31982689511937773 0.0 4.355213607353558
-0.33039323709750384 0.0 4.499099806623664
-0.3406946449362625 0.0 4.639378289387016
-0.35071370975365773 0.0 4.775811991779024
-0.3604318307018626 0.0 4.9081476184489805
-0.36982810646313197 0.0 5.03610054760665
-0.37887895883608175 0.0 5.1593497052427075
-0.38755804433710533 0.0 5.277536361369091
-0.39584693736973436 0.0 5.390409607104505
-0.4036797349483418 0.0 5.497072014546081
-0.41101906689353385 0.0 5.597014698680429
-0.41780791805745177 0.0 5.689461260925787
-0.42397708845861976 0.0 5.773469376838681
-0.4294416201261714 0.0 5.847882138990695
-0.43409754519086624 0.0 5.911283774394149
-0.4378192028505397 0.0 5.961963108523543
-0.44047155239186553 0.0 5.9980812367676615
-0.4419612662992859 0.0 6.018367280185741
-0.44231812422459726 0.0 6.023226760473125
-0.44049274860550314 0.0 5.998369874275849
-0.4404932611397474 0.0 5.998376853664229
-0.44231943865426304 0.0 6.023244659599351
-0.4419635242184236 0.0 6.018398027193896
-0.44047490923501204 0.0 5.998126948273393
-0.43782383526274765 0.0 5.962026189974761
-0.43410364248100836 0.0 5.911366803687182
-0.42944928495533535 0.0 5.847986514103552
-0.42398677178915584 0.0 5.773601238710084
-0.41782005941238715 0.0 5.689626594720516
-0.4110341933708073 0.0 5.597220682106644
-0.4036985470032806 0.0 5.497328185990391
-0.3958705890445382 0.0 5.390731681631427
-0.3875904265154559 0.0 5.277977322732692
-0.3789499911930158 0.0 5.160316981892053
-0.3698879877696002 0.0 5.036915975842162
-0.3604858240700273 0.0 4.908882868221049
-0.3507666716306378 0.0 4.776533195313856