# vtk DataFile Version 4.0
[MyVLM domain - lattices] 
ASCII
DATASET UNSTRUCTURED_GRID
POINTS 302 float
1.2444999999999997 -1.2445 0.0
1.2399745454545452 -1.2399745454545454 0.0
1.2346178849721705 -1.2346178849721707 0.0
1.2284300185528754 -1.2284300185528756 0.0
1.2214109461966602 -1.2214109461966605 0.0
1.2135606679035247 -1.213560667903525 0.0
1.2048791836734691 -1.2048791836734694 0.0
1.1953664935064932 -1.1953664935064934 0.0
1.1850225974025972 -1.1850225974025974 0.0
1.1738474953617808 -1.173847495361781 0.0
1.1618411873840442 -1.1618411873840444 0.0
1.1490036734693874 -1.1490036734693876 0.0
1.1353349536178106 -1.1353349536178108 0.0
1.1208350278293133 -1.1208350278293135 0.0
1.1055038961038959 -1.105503896103896 0.0
1.0893415584415582 -1.0893415584415584 0.0
1.0723480148423004 -1.0723480148423006 0.0
1.054523265306122 -1.0545232653061223 0.0
1.0358673098330238 -1.035867309833024 0.0
1.0163801484230053 -1.0163801484230055 0.0
0.9960617810760664 -0.9960617810760668 0.0
0.9749122077922076 -0.9749122077922077 0.0
0.9529314285714284 -0.9529314285714284 0.0
0.9301194434137288 -0.930119443413729 0.0
0.9064762523191091 -0.9064762523191096 0.0
0.8820018552875695 -0.8820018552875695 0.0
0.8566962523191093 -0.8566962523191094 0.0
0.8305594434137288 -0.8305594434137291 0.0
0.8035914285714284 -0.8035914285714285 0.0
0.7757922077922076 -0.7757922077922077 0.0
0.7471617810760666 -0.7471617810760667 0.0
0.7177001484230053 -0.7177001484230054 0.0
0.6874073098330239 -0.687407309833024 0.0
0.6562832653061222 -0.6562832653061225 0.0
0.6243280148423004 -0.6243280148423005 0.0
0.5915415584415582 -0.5915415584415583 0.0
0.5579238961038958 -0.5579238961038959 0.0
0.5234750278293133 -0.5234750278293134 0.0
0.48819495361781057 -0.48819495361781057 0.0
0.4520836734693877 -0.4520836734693877 0.0
0.4151411873840445 -0.4151411873840446 0.0
0.37736749536178105 -0.37736749536178116 0.0
0.3387625974025974 -0.3387625974025974 0.0
0.2993264935064933 -0.29932649350649343 0.0
0.25905918367346925 -0.25905918367346925 0.0
0.21796066790352486 -0.21796066790352486 0.0
0.17603094619666027 -0.1760309461966605 0.0
0.13327001855287546 -0.13327001855287568 0.0
0.08967788497217066 -0.08967788497217066 0.0
0.045254545454545436 -0.045254545454545436 0.0
0.0 0.0 0.0
0.04525454545454545 0.04525454545454546 0.0
0.08967788497217066 0.08967788497217068 0.0
0.13327001855287568 0.1332700185528757 0.0
0.17603094619666046 0.1760309461966605 0.0
0.21796066790352497 0.21796066790352508 0.0
0.2590591836734693 0.25905918367346936 0.0
0.29932649350649343 0.2993264935064935 0.0
0.3387625974025973 0.33876259740259734 0.0
0.37736749536178094 0.377367495361781 0.0
0.41514118738404443 0.4151411873840445 0.0
0.45208367346938766 0.4520836734693878 0.0
0.48819495361781057 0.4881949536178107 0.0
0.5234750278293133 0.5234750278293134 0.0
0.5579238961038959 0.557923896103896 0.0
0.5915415584415582 0.5915415584415583 0.0
0.6243280148423003 0.6243280148423004 0.0
0.6562832653061222 0.6562832653061225 0.0
0.687407309833024 0.6874073098330241 0.0
0.7177001484230054 0.7177001484230056 0.0
0.7471617810760667 0.7471617810760669 0.0
0.7757922077922076 0.7757922077922077 0.0
0.8035914285714284 0.8035914285714285 0.0
0.8305594434137288 0.830559443413729 0.0
0.8566962523191093 0.8566962523191094 0.0
0.8820018552875692 0.8820018552875695 0.0
0.9064762523191091 0.9064762523191093 0.0
0.9301194434137288 0.9301194434137292 0.0
0.9529314285714284 0.9529314285714284 0.0
0.9749122077922076 0.9749122077922077 0.0
0.9960617810760666 0.9960617810760668 0.0
1.0163801484230053 1.0163801484230055 0.0
1.0358673098330238 1.035867309833024 0.0
1.054523265306122 1.0545232653061223 0.0
1.0723480148423001 1.0723480148423004 0.0
1.0893415584415582 1.0893415584415584 0.0
1.1055038961038959 1.105503896103896 0.0
1.120835027829313 1.1208350278293133 0.0
1.1353349536178106 1.1353349536178106 0.0
1.1490036734693874 1.1490036734693876 0.0
1.1618411873840444 1.1618411873840446 0.0
1.1738474953617808 1.173847495361781 0.0
1.1850225974025972 1.1850225974025972 0.0
1.1953664935064932 1.1953664935064934 0.0
1.2048791836734691 1.2048791836734694 0.0
1.2135606679035245 1.2135606679035247 0.0
1.22141094619666 1.2214109461966602 0.0
1.2284300185528754 1.2284300185528756 0.0
1.2346178849721703 1.2346178849721705 0.0
1.2399745454545452 1.2399745454545454 0.0
1.2444999999999997 1.2445 0.0
1.7422999999999997 -1.2445 0.0
1.7377745454545452 -1.2399745454545454 0.0
1.7324178849721703 -1.2346178849721707 0.0
1.7262300185528754 -1.2284300185528756 0.0
1.7192109461966603 -1.2214109461966605 0.0
1.7113606679035245 -1.213560667903525 0.0
1.7026791836734692 -1.2048791836734694 0.0
1.6931664935064934 -1.1953664935064934 0.0
1.6828225974025972 -1.1850225974025974 0.0
1.6716474953617806 -1.173847495361781 0.0
1.6596411873840444 -1.1618411873840444 0.0
1.6468036734693878 -1.1490036734693876 0.0
1.6331349536178106 -1.1353349536178108 0.0
1.6186350278293133 -1.1208350278293135 0.0
1.603303896103896 -1.105503896103896 0.0
1.5871415584415582 -1.0893415584415584 0.0
1.5701480148423004 -1.0723480148423006 0.0
1.552323265306122 -1.0545232653061223 0.0
1.5336673098330238 -1.035867309833024 0.0
1.5141801484230053 -1.0163801484230055 0.0
1.4938617810760666 -0.9960617810760668 0.0
1.4727122077922075 -0.9749122077922077 0.0
1.4507314285714283 -0.9529314285714284 0.0
1.4279194434137288 -0.930119443413729 0.0
1.4042762523191092 -0.9064762523191096 0.0
1.3798018552875693 -0.8820018552875695 0.0
1.3544962523191093 -0.8566962523191094 0.0
1.328359443413729 -0.8305594434137291 0.0
1.3013914285714283 -0.8035914285714285 0.0
1.2735922077922077 -0.7757922077922077 0.0
1.2449617810760665 -0.7471617810760667 0.0
1.2155001484230055 -0.7177001484230054 0.0
1.1852073098330238 -0.687407309833024 0.0
1.1540832653061224 -0.6562832653061225 0.0
1.1221280148423003 -0.6243280148423005 0.0
1.0893415584415582 -0.5915415584415583 0.0
1.055723896103896 -0.5579238961038959 0.0
1.0212750278293132 -0.5234750278293134 0.0
0.9859949536178108 -0.48819495361781057 0.0
0.9498836734693876 -0.4520836734693877 0.0
0.9129411873840445 -0.4151411873840446 0.0
0.875167495361781 -0.37736749536178116 0.0
0.8365625974025973 -0.3387625974025974 0.0
0.7971264935064933 -0.29932649350649343 0.0
0.7568591836734693 -0.25905918367346925 0.0
0.7157606679035249 -0.21796066790352486 0.0
0.6738309461966603 -0.1760309461966605 0.0
0.6310700185528755 -0.13327001855287568 0.0
0.5874778849721707 -0.08967788497217066 0.0
0.5430545454545455 -0.045254545454545436 0.0
0.4978 0.0 0.0
0.5430545454545455 0.04525454545454546 0.0
0.5874778849721707 0.08967788497217068 0.0
0.6310700185528757 0.1332700185528757 0.0
0.6738309461966605 0.1760309461966605 0.0
0.715760667903525 0.21796066790352508 0.0
0.7568591836734693 0.25905918367346936 0.0
0.7971264935064934 0.2993264935064935 0.0
0.8365625974025973 0.33876259740259734 0.0
0.875167495361781 0.377367495361781 0.0
0.9129411873840445 0.4151411873840445 0.0
0.9498836734693876 0.4520836734693878 0.0
0.9859949536178105 0.4881949536178107 0.0
1.0212750278293132 0.5234750278293134 0.0
1.055723896103896 0.557923896103896 0.0
1.0893415584415582 0.5915415584415583 0.0
1.1221280148423003 0.6243280148423004 0.0
1.1540832653061224 0.6562832653061225 0.0
1.185207309833024 0.6874073098330241 0.0
1.2155001484230055 0.7177001484230056 0.0
1.2449617810760667 0.7471617810760669 0.0
1.2735922077922077 0.7757922077922077 0.0
1.3013914285714283 0.8035914285714285 0.0
1.3283594434137287 0.830559443413729 0.0
1.3544962523191093 0.8566962523191094 0.0
1.3798018552875693 0.8820018552875695 0.0
1.4042762523191092 0.9064762523191093 0.0
1.427919443413729 0.9301194434137292 0.0
1.4507314285714283 0.9529314285714284 0.0
1.4727122077922075 0.9749122077922077 0.0
1.4938617810760666 0.9960617810760668 0.0
1.5141801484230053 1.0163801484230055 0.0
1.5336673098330238 1.035867309833024 0.0
1.552323265306122 1.0545232653061223 0.0
1.5701480148423002 1.0723480148423004 0.0
1.5871415584415582 1.0893415584415584 0.0
1.603303896103896 1.105503896103896 0.0
1.6186350278293131 1.1208350278293133 0.0
1.6331349536178106 1.1353349536178106 0.0
1.6468036734693874 1.1490036734693876 0.0
1.6596411873840444 1.1618411873840446 0.0
1.6716474953617806 1.173847495361781 0.0
1.6828225974025972 1.1850225974025972 0.0
1.6931664935064934 1.1953664935064934 0.0
1.7026791836734692 1.2048791836734694 0.0
1.7113606679035245 1.2135606679035247 0.0
1.71921094619666 1.2214109461966602 0.0
1.7262300185528754 1.2284300185528756 0.0
1.7324178849721703 1.2346178849721705 0.0
1.7377745454545452 1.2399745454545454 0.0
1.7422999999999997 1.2445 0.0
1.6155872727272724 -1.2422372727272726 0.0
1.6106462152133578 -1.237296215213358 0.0
1.604873951762523 -1.2315239517625232 0.0
1.598270482374768 -1.224920482374768 0.0
1.5908358070500925 -1.2174858070500927 0.0
1.582569925788497 -1.2092199257884972 0.0
1.5734728385899812 -1.2001228385899814 0.0
1.5635445454545454 -1.1901945454545453 0.0
1.552785046382189 -1.1794350463821892 0.0
1.5411943413729126 -1.1678443413729127 0.0
1.5287724304267158 -1.155422430426716 0.0
1.5155193135435991 -1.142169313543599 0.0
1.501434990723562 -1.1280849907235622 0.0
1.4865194619666047 -1.1131694619666048 0.0
1.4707727272727271 -1.0974227272727273 0.0
1.4541947866419294 -1.0808447866419293 0.0
1.4367856400742112 -1.0634356400742113 0.0
1.418545287569573 -1.0451952875695731 0.0
1.3994737291280146 -1.0261237291280147 0.0
1.379570964749536 -1.0062209647495362 0.0
1.358836994434137 -0.9854869944341371 0.0
1.337271818181818 -0.9639218181818181 0.0
1.3148754359925787 -0.9415254359925787 0.0
1.291647847866419 -0.9182978478664192 0.0
1.2675890538033394 -0.8942390538033393 0.0
1.2426990538033393 -0.8693490538033395 0.0
1.2169778478664193 -0.8436278478664192 0.0
1.1904254359925788 -0.8170754359925788 0.0
1.163041818181818 -0.7896918181818181 0.0
1.1348269944341371 -0.7614769944341371 0.0
1.105780964749536 -0.7324309647495362 0.0
1.0759037291280147 -0.7025537291280148 0.0
1.0451952875695731 -0.6718452875695733 0.0
1.0136556400742114 -0.6403056400742114 0.0
0.9812847866419293 -0.6079347866419293 0.0
0.9480827272727271 -0.5747327272727272 0.0
0.9140494619666047 -0.5406994619666048 0.0
0.8791849907235622 -0.5058349907235622 0.0
0.8434893135435992 -0.47013931354359917 0.0
0.8069624304267162 -0.43361243042671627 0.0
0.7696043413729128 -0.3962543413729128 0.0
0.7314150463821893 -0.3580650463821894 0.0
0.6923945454545455 -0.3190445454545454 0.0
0.6525428385899814 -0.27919283858998134 0.0
0.6118599257884971 -0.23850992578849706 0.0
0.5703458070500929 -0.19699580705009279 0.0
0.5280004823747682 -0.15465048237476808 0.0
0.4848239517625232 -0.11147395176252317 0.0
0.4408162152133581 -0.06746621521335805 0.0
0.39597727272727273 -0.022627272727272718 0.0
0.39597727272727273 0.02262727272727273 0.0
0.4408162152133581 0.06746621521335806 0.0
0.4848239517625232 0.11147395176252319 0.0
0.528000482374768 0.15465048237476808 0.0
0.5703458070500929 0.19699580705009276 0.0
0.6118599257884971 0.23850992578849717 0.0
0.6525428385899814 0.2791928385899814 0.0
0.6923945454545455 0.3190445454545454 0.0
0.7314150463821891 0.3580650463821891 0.0
0.7696043413729128 0.39625434137291277 0.0
0.8069624304267162 0.43361243042671616 0.0
0.8434893135435992 0.4701393135435992 0.0
0.8791849907235619 0.5058349907235621 0.0
0.9140494619666046 0.5406994619666047 0.0
0.9480827272727271 0.5747327272727272 0.0
0.9812847866419294 0.6079347866419295 0.0
1.0136556400742114 0.6403056400742114 0.0
1.0451952875695731 0.6718452875695732 0.0
1.0759037291280147 0.7025537291280147 0.0
1.105780964749536 0.7324309647495362 0.0
1.1348269944341371 0.7614769944341373 0.0
1.163041818181818 0.789691818181818 0.0
1.1904254359925786 0.8170754359925786 0.0
1.216977847866419 0.843627847866419 0.0
1.2426990538033393 0.8693490538033394 0.0
1.2675890538033392 0.8942390538033393 0.0
1.291647847866419 0.9182978478664192 0.0
1.3148754359925787 0.9415254359925787 0.0
1.3372718181818182 0.9639218181818181 0.0
1.3588369944341372 0.9854869944341373 0.0
1.379570964749536 1.0062209647495362 0.0
1.3994737291280148 1.0261237291280147 0.0
1.418545287569573 1.0451952875695731 0.0
1.4367856400742112 1.0634356400742113 0.0
1.4541947866419291 1.0808447866419293 0.0
1.470772727272727 1.097422727272727 0.0
1.4865194619666047 1.1131694619666048 0.0
1.501434990723562 1.128084990723562 0.0
1.5155193135435991 1.1421693135435993 0.0
1.528772430426716 1.1554224304267162 0.0
1.5411943413729128 1.1678443413729127 0.0
1.5527850463821888 1.179435046382189 0.0
1.5635445454545451 1.1901945454545453 0.0
1.573472838589981 1.2001228385899811 0.0
1.5825699257884969 1.209219925788497 0.0
1.5908358070500925 1.2174858070500927 0.0
1.5982704823747678 1.224920482374768 0.0
1.604873951762523 1.2315239517625232 0.0
1.6106462152133578 1.237296215213358 0.0
1.6155872727272724 1.2422372727272726 0.0

CELLS 200 700
4 0 101 102 1
4 1 102 103 2
4 2 103 104 3
4 3 104 105 4
4 4 105 106 5
4 5 106 107 6
4 6 107 108 7
4 7 108 109 8
4 8 109 110 9
4 9 110 111 10
4 10 111 112 11
4 11 112 113 12
4 12 113 114 13
4 13 114 115 14
4 14 115 116 15
4 15 116 117 16
4 16 117 118 17
4 17 118 119 18
4 18 119 120 19
4 19 120 121 20
4 20 121 122 21
4 21 122 123 22
4 22 123 124 23
4 23 124 125 24
4 24 125 126 25
4 25 126 127 26
4 26 127 128 27
4 27 128 129 28
4 28 129 130 29
4 29 130 131 30
4 30 131 132 31
4 31 132 133 32
4 32 133 134 33
4 33 134 135 34
4 34 135 136 35
4 35 136 137 36
4 36 137 138 37
4 37 138 139 38
4 38 139 140 39
4 39 140 141 40
4 40 141 142 41
4 41 142 143 42
4 42 143 144 43
4 43 144 145 44
4 44 145 146 45
4 45 146 147 46
4 46 147 148 47
4 47 148 149 48
4 48 149 150 49
4 49 150 151 50
4 50 151 152 51
4 51 152 153 52
4 52 153 154 53
4 53 154 155 54
4 54 155 156 55
4 55 156 157 56
4 56 157 158 57
4 57 158 159 58
4 58 159 160 59
4 59 160 161 60
4 60 161 162 61
4 61 162 163 62
4 62 163 164 63
4 63 164 165 64
4 64 165 166 65
4 65 166 167 66
4 66 167 168 67
4 67 168 169 68
4 68 169 170 69
4 69 170 171 70
4 70 171 172 71
4 71 172 173 72
4 72 173 174 73
4 73 174 175 74
4 74 175 176 75
4 75 176 177 76
4 76 177 178 77
4 77 178 179 78
4 78 179 180 79
4 79 180 181 80
4 80 181 182 81
4 81 182 183 82
4 82 183 184 83
4 83 184 185 84
4 84 185 186 85
4 85 186 187 86
4 86 187 188 87
4 87 188 189 88
4 88 189 190 89
4 89 190 191 90
4 90 191 192 91
4 91 192 193 92
4 92 193 194 93
4 93 194 195 94
4 94 195 196 95
4 95 196 197 96
4 96 197 198 97
4 97 198 199 98
4 98 199 200 99
4 99 200 201 100
1 202
1 203
1 204
1 205
1 206
1 207
1 208
1 209
1 210
1 211
1 212
1 213
1 214
1 215
1 216
1 217
1 218
1 219
1 220
1 221
1 222
1 223
1 224
1 225
1 226
1 227
1 228
1 229
1 230
1 231
1 232
1 233
1 234
1 235
1 236
1 237
1 238
1 239
1 240
1 241
1 242
1 243
1 244
1 245
1 246
1 247
1 248
1 249
1 250
1 251
1 252
1 253
1 254
1 255
1 256
1 257
1 258
1 259
1 260
1 261
1 262
1 263
1 264
1 265
1 266
1 267
1 268
1 269
1 270
1 271
1 272
1 273
1 274
1 275
1 276
1 277
1 278
1 279
1 280
1 281
1 282
1 283
1 284
1 285
1 286
1 287
1 288
1 289
1 290
1 291
1 292
1 293
1 294
1 295
1 296
1 297
1 298
1 299
1 300
1 301

CELL_TYPES 200
9
9
9
9
9
9
9
9
9
9
9
9
9
9
9
9
9
9
9
9
9
9
9
9
9
9
9
9
9
9
9
9
9
9
9
9
9
9
9
9
9
9
9
9
9
9
9
9
9
9
9
9
9
9
9
9
9
9
9
9
9
9
9
9
9
9
9
9
9
9
9
9
9
9
9
9
9
9
9
9
9
9
9
9
9
9
9
9
9
9
9
9
9
9
9
9
9
9
9
9
1
1
1
1
1
1
1
1
1
1
1
1
1
1
1
1
1
1
1
1
1
1
1
1
1
1
1
1
1
1
1
1
1
1
1
1
1
1
1
1
1
1
1
1
1
1
1
1
1
1
1
1
1
1
1
1
1
1
1
1
1
1
1
1
1
1
1
1
1
1
1
1
1
1
1
1
1
1
1
1
1
1
1
1
1
1
1
1
1
1
1
1
1
1
1
1
1
1
1
1

CELL_DATA 200

VECTORS Vinf float
49.530794484047966 0.032849625792703306 4.307414262403331
49.53327846662768 0.03367392582272892 4.272273069298074
49.53606192707177 0.034469762709663794 4.2326059689182784
49.539085666427646 0.03517615300813552 4.189125982763279
49.54228367284033 0.035736660639612707 4.142636332257968
49.545172821033766 0.03574728491780764 4.095180209567245
49.54851335318367 0.03673733808041957 4.045710213924038
49.551818539998315 0.037731286426726025 3.996068010894303
49.55544602782866 0.033921405205373865 3.9365730892916084
49.55832768799232 0.03370261657677916 3.8904334104340608
49.56107705234948 0.03331601479744149 3.845214106903962
49.56367248014396 0.03278198071529521 3.8012851936237273
49.56609941573473 0.03212084191241165 3.7589668879507454
49.568348745137364 0.03135056908794276 3.718547360358402
49.570415120248185 0.03048541563052947 3.6802938640977114
49.57229520260346 0.02953532137132809 3.6444573277665646
49.573985833511436 0.028506032568730733 3.611272053493434
49.57548238436865 0.027400029624624803 3.5809522182280045
49.5767777581014 0.02621824630214058 3.5536868132363217
49.57782701304766 0.025667707024251276 3.531991965769546
49.57888962297577 0.016782431098743913 3.503085930487531
49.579691309175196 0.01757970369184955 3.4849875044036414
49.580399872333594 0.017943287177755732 3.468042225019732
49.580997318079575 0.01787510221120886 3.4526917414668157
49.581480641345536 0.017370400553193555 3.4392003408959897
49.58185281486615 0.016411679574213744 3.427740063666029
49.58211519684949 0.014969278699619733 3.418440661443903
49.58226432312563 0.013006778909797345 3.411409710736609
49.58270811203488 0.012155533250188753 3.398584905195189
49.58272095665918 0.0116131812677189 3.395083702319413
49.58279873277105 0.01065436969041495 3.39182247524971
49.58282560895751 0.00965304206469202 3.389870259083427
49.58280615776867 0.008607554124518838 3.3892924415073216
49.582740051667784 0.007510302009177169 3.390142122529193
49.582618021204716 0.006352079549262012 3.39245283127168
49.583072149824844 0.009922580188719977 3.398924448034092
49.58291165098903 0.008166165529478612 3.4014916725131608
49.58266145280922 0.006582732838994277 3.405564568652511
49.58231996420534 0.00519532858620613 3.4113772250777394
49.58187154139394 0.0040084067075148964 3.4193098904403803
49.58101351855981 0.0023569904619551085 3.4310836973549743
49.58021415837668 0.0011075391303721144 3.4441952132287943
49.57923336892619 -0.00016209183136756548 3.4605502859059896
49.57797754962114 -0.0012692506771875642 3.481220756927801
49.57645206691931 -0.0021203684268783266 3.506462014871243
49.57472640563355 -0.002440666574671257 3.535180893419748
49.57320491171265 -0.002044185603741211 3.563244990913196
49.57178893726803 -0.0015765704020484805 3.582792431021811
49.57125587878575 -0.0006858958215866184 3.5876425668566174
49.57143532565109 5.3711577434913566e-5 3.5813740132668355
49.57152855680645 0.00023202891684848635 3.5809357015940932
49.57125548371095 0.001049493242558081 3.5874189648423704
49.571681225939535 0.00206070894823095 3.5828159633693484
49.57298490231886 0.002689614022343522 3.563416167787378
49.57483047569925 0.0023653356900405686 3.5351158739163613
49.57655366827983 0.0021580460825083646 3.506154256506541
49.57807541352462 0.0013822200633098508 3.480687290284408
49.579326549928545 0.00031513043685602873 3.4598066139962875
49.58030199804283 -0.000947516967319165 3.4432530009026054
49.58109549820845 -0.002220909847435728 3.4299522845642896
49.58194305231327 -0.003561796576943765 3.4185363778802818
49.582375671375374 -0.004715704928734763 3.410677214991946
49.582698975921716 -0.006090465096572469 3.4049714500300543
49.58292863658074 -0.007680280618836591 3.401038694072985
49.58306633353614 -0.00946075145896896 3.398644306069988
49.58262983797404 -0.006361680845306464 3.392428827638371
49.58275409049666 -0.0075157335525174 3.390088763573096
49.58282180787731 -0.00860945364429782 3.389216521856186
49.582842263681215 -0.00965183459496361 3.389778771272716
49.58281595838115 -0.010650366693729362 3.3917218060847736
49.58273854177006 -0.011606849793913776 3.394979137271579
49.58272590565015 -0.01214787468837785 3.398480461791395
49.582283473865466 -0.012995312272002717 3.411349245607644
49.58213521864237 -0.014962087258788991 3.4183566759061144
49.58187192574695 -0.016407923395859936 3.427636344439411
49.581497792079595 -0.017368346970750095 3.439079052453384
49.581012819657296 -0.017872988158769077 3.4525549330004606
49.580415150498055 -0.01794027045366381 3.467893600771115
49.579707968482055 -0.017576172779297978 3.4848335209107235
49.57890855446025 -0.016779606116308805 3.502935627574207
49.5778884296139 -0.025729735178008275 3.5316061905549763
49.57682976648076 -0.02632309372020963 3.5534240366822103
49.57553236014765 -0.02749538410828347 3.5807068031213922
49.574032395547846 -0.028593566507184552 3.6110454061066304
49.57233719460226 -0.029616115248147685 3.6442477676603304
49.570451761535686 -0.03056007381588574 3.6800979745902045
49.56837968304962 -0.031419371708842896 3.718361322581344
49.56612469930387 -0.03218390961417938 3.75878738357805
49.56369247618952 -0.03283941751036009 3.801109814003777
49.56109233230965 -0.033368002444287725 3.8450413973891746
49.55833891511041 -0.03374945414675113 3.890262714098726
49.555453866203315 -0.03396350467722697 3.936404316146333
49.55184309553139 -0.03772652315340767 3.9956706143435405
49.54853930370118 -0.03672726575210131 4.045271746337677
49.545200195067544 -0.03573266130140692 4.094705647411053
49.54229893425538 -0.0358134957295069 4.1424017971639495
49.539099081125954 -0.03524967941282576 4.188902045559756
49.53607381907011 -0.03454046540859307 4.232391065134031
49.53328910332293 -0.03374225245836534 4.2720657684032854
49.53080409257195 -0.03291598728829937 4.3072132473358185
49.530794484047966 0.032849625792703306 4.307414262403331
49.53327846662768 0.03367392582272892 4.272273069298074
49.53606192707177 0.034469762709663794 4.2326059689182784
49.539085666427646 0.03517615300813552 4.189125982763279
49.54228367284033 0.035736660639612707 4.142636332257968
49.545172821033766 0.03574728491780764 4.095180209567245
49.54851335318367 0.03673733808041957 4.045710213924038
49.551818539998315 0.037731286426726025 3.996068010894303
49.55544602782866 0.033921405205373865 3.9365730892916084
49.55832768799232 0.03370261657677916 3.8904334104340608
49.56107705234948 0.03331601479744149 3.845214106903962
49.56367248014396 0.03278198071529521 3.8012851936237273
49.56609941573473 0.03212084191241165 3.7589668879507454
49.568348745137364 0.03135056908794276 3.718547360358402
49.570415120248185 0.03048541563052947 3.6802938640977114
49.57229520260346 0.02953532137132809 3.6444573277665646
49.573985833511436 0.028506032568730733 3.611272053493434
49.57548238436865 0.027400029624624803 3.5809522182280045
49.5767777581014 0.02621824630214058 3.5536868132363217
49.57782701304766 0.025667707024251276 3.531991965769546
49.57888962297577 0.016782431098743913 3.503085930487531
49.579691309175196 0.01757970369184955 3.4849875044036414
49.580399872333594 0.017943287177755732 3.468042225019732
49.580997318079575 0.01787510221120886 3.4526917414668157
49.581480641345536 0.017370400553193555 3.4392003408959897
49.58185281486615 0.016411679574213744 3.427740063666029
49.58211519684949 0.014969278699619733 3.418440661443903
49.58226432312563 0.013006778909797345 3.411409710736609
49.58270811203488 0.012155533250188753 3.398584905195189
49.58272095665918 0.0116131812677189 3.395083702319413
49.58279873277105 0.01065436969041495 3.39182247524971
49.58282560895751 0.00965304206469202 3.389870259083427
49.58280615776867 0.008607554124518838 3.3892924415073216
49.582740051667784 0.007510302009177169 3.390142122529193
49.582618021204716 0.006352079549262012 3.39245283127168
49.583072149824844 0.009922580188719977 3.398924448034092
49.58291165098903 0.008166165529478612 3.4014916725131608
49.58266145280922 0.006582732838994277 3.405564568652511
49.58231996420534 0.00519532858620613 3.4113772250777394
49.58187154139394 0.0040084067075148964 3.4193098904403803
49.58101351855981 0.0023569904619551085 3.4310836973549743
49.58021415837668 0.0011075391303721144 3.4441952132287943
49.57923336892619 -0.00016209183136756548 3.4605502859059896
49.57797754962114 -0.0012692506771875642 3.481220756927801
49.57645206691931 -0.0021203684268783266 3.506462014871243
49.57472640563355 -0.002440666574671257 3.535180893419748
49.57320491171265 -0.002044185603741211 3.563244990913196
49.57178893726803 -0.0015765704020484805 3.582792431021811
49.57125587878575 -0.0006858958215866184 3.5876425668566174
49.57143532565109 5.3711577434913566e-5 3.5813740132668355
49.57152855680645 0.00023202891684848635 3.5809357015940932
49.57125548371095 0.001049493242558081 3.5874189648423704
49.571681225939535 0.00206070894823095 3.5828159633693484
49.57298490231886 0.002689614022343522 3.563416167787378
49.57483047569925 0.0023653356900405686 3.5351158739163613
49.57655366827983 0.0021580460825083646 3.506154256506541
49.57807541352462 0.0013822200633098508 3.480687290284408
49.579326549928545 0.00031513043685602873 3.4598066139962875
49.58030199804283 -0.000947516967319165 3.4432530009026054
49.58109549820845 -0.002220909847435728 3.4299522845642896
49.58194305231327 -0.003561796576943765 3.4185363778802818
49.582375671375374 -0.004715704928734763 3.410677214991946
49.582698975921716 -0.006090465096572469 3.4049714500300543
49.58292863658074 -0.007680280618836591 3.401038694072985
49.58306633353614 -0.00946075145896896 3.398644306069988
49.58262983797404 -0.006361680845306464 3.392428827638371
49.58275409049666 -0.0075157335525174 3.390088763573096
49.58282180787731 -0.00860945364429782 3.389216521856186
49.582842263681215 -0.00965183459496361 3.389778771272716
49.58281595838115 -0.010650366693729362 3.3917218060847736
49.58273854177006 -0.011606849793913776 3.394979137271579
49.58272590565015 -0.01214787468837785 3.398480461791395
49.582283473865466 -0.012995312272002717 3.411349245607644
49.58213521864237 -0.014962087258788991 3.4183566759061144
49.58187192574695 -0.016407923395859936 3.427636344439411
49.581497792079595 -0.017368346970750095 3.439079052453384
49.581012819657296 -0.017872988158769077 3.4525549330004606
49.580415150498055 -0.01794027045366381 3.467893600771115
49.579707968482055 -0.017576172779297978 3.4848335209107235
49.57890855446025 -0.016779606116308805 3.502935627574207
49.5778884296139 -0.025729735178008275 3.5316061905549763
49.57682976648076 -0.02632309372020963 3.5534240366822103
49.57553236014765 -0.02749538410828347 3.5807068031213922
49.574032395547846 -0.028593566507184552 3.6110454061066304
49.57233719460226 -0.029616115248147685 3.6442477676603304
49.570451761535686 -0.03056007381588574 3.6800979745902045
49.56837968304962 -0.031419371708842896 3.718361322581344
49.56612469930387 -0.03218390961417938 3.75878738357805
49.56369247618952 -0.03283941751036009 3.801109814003777
49.56109233230965 -0.033368002444287725 3.8450413973891746
49.55833891511041 -0.03374945414675113 3.890262714098726
49.555453866203315 -0.03396350467722697 3.936404316146333
49.55184309553139 -0.03772652315340767 3.9956706143435405
49.54853930370118 -0.03672726575210131 4.045271746337677
49.545200195067544 -0.03573266130140692 4.094705647411053
49.54229893425538 -0.0358134957295069 4.1424017971639495
49.539099081125954 -0.03524967941282576 4.188902045559756
49.53607381907011 -0.03454046540859307 4.232391065134031
49.53328910332293 -0.03374225245836534 4.2720657684032854
49.53080409257195 -0.03291598728829937 4.3072132473358185

VECTORS L float
-0.006648976798568903 0.0 0.09054183581808123
-0.011996010005662527 0.0 0.16335457338917658
-0.017725282432124956 0.0 0.2413724187071919
-0.024028802222293935 0.0 0.3272100251852814
-0.030948801696868623 0.0 0.42144248760310876
-0.03848703487516955 0.0 0.5240936911589761
-0.04662802510302642 0.0 0.6349528839246765
-0.055346929515486115 0.0 0.7536817704499511
-0.06461030198335188 0.0 0.8798249011174784
-0.07439209661111348 0.0 1.013027598317987
-0.08464913749488477 0.0 1.1527019181137268
-0.09533622155239489 0.0 1.2982323116499748
-0.10640501348301304 0.0 1.4489605773738434
-0.11780486798774738 0.0 1.6041970575402096
-0.12948376012430707 0.0 1.7632333072370143
-0.14138943953091324 0.0 1.9253578119228576
-0.15347063216260345 0.0 2.0898723519616413
-0.1656780983541465 0.0 2.256106410697922
-0.17796539696622227 0.0 2.423427580147897
-0.19028966331544173 0.0 2.591252154390584
-0.20259948201627473 0.0 2.7588799890975815
-0.2148742527921883 0.0 2.9260305618799314
-0.22707569892142268 0.0 3.092182642966164
-0.2391725479025835 0.0 3.2569103819175362
-0.2511393757832661 0.0 3.4198675703783548
-0.26295422804639723 0.0 3.5807552447124795
-0.27459738863002664 0.0 3.7393049232424795
-0.2860490109664131 0.0 3.8952463471402052
-0.2973071196004059 0.0 4.048552615825109
-0.30833297551656536 0.0 4.198696204283651
-0.3191285454466583 0.0 4.345703894306495
-0.3296792300937897 0.0 4.489376881298197
-0.3399700672786835 0.0 4.6295114191455555
-0.34998478491069834 0.0 4.765885924136683
-0.3597050637962782 0.0 4.898250936322252
-0.36911339983162345 0.0 5.026368095163431
-0.37815234861532776 0.0 5.149455156757382
-0.3868083524823025 0.0 5.2673275008348925
-0.39505629718625473 0.0 5.379643136435033
-0.40286247636762884 0.0 5.485943070277279
-0.41015396115514097 0.0 5.585234200100901
-0.4169103711193269 0.0 5.677238997264374
-0.42304739183723117 0.0 5.760809317794331
-0.428485820539571 0.0 5.834866625195612
-0.43312344098115824 0.0 5.898018999061489
-0.43683536949343726 0.0 5.948565847412586
-0.43948644455089525 0.0 5.984666620488743
-0.4409824039033039 0.0 6.005037710684976
-0.44134949689888675 0.0 6.010036566109345
-0.43954034156864313 0.0 5.985400558217787
-0.4395292197782276 0.0 5.9852491082500245
-0.4413348489856158 0.0 6.009837099484835
-0.4409656594580773 0.0 6.004809694727559
-0.43946585798459403 0.0 5.984386284797617
-0.4368066547836732 0.0 5.948174827468347
-0.4330852870753889 0.0 5.8974994417255795
-0.4284383354076462 0.0 5.834220000737626
-0.42299164727250105 0.0 5.760050221262572
-0.41684821987321086 0.0 5.676392658332505
-0.41008813229407587 0.0 5.584337781582502
-0.4028079428980493 0.0 5.485200465723398
-0.3950037244781293 0.0 5.378927232371625
-0.38675902725003874 0.0 5.266655818978179
-0.37810723900348986 0.0 5.148840880727764
-0.3690730592729875 0.0 5.02581876128132
-0.3596692913594669 0.0 4.897763808422921
-0.3499519291279879 0.0 4.765438513508858